 Gaussian 16, Revision C.01,
 Gaussian 16:  ES64L-G16RevC.01  3-Jul-2019

 -----------------------------------------
 # sp b3lyp/6-311g** Force nosymm scf=(qc)
 -----------------------------------------

 -------------------
 Title Card Required
 -------------------
 Symbolic Z-matrix:
 Charge =  0 Multiplicity = 2

                          Input orientation:
 ---------------------------------------------------------------------
 Center     Atomic      Atomic             Coordinates (Angstroms)
 Number     Number       Type             X           Y           Z
 ---------------------------------------------------------------------
      1          1           0        0.000000    0.000000    0.000000
      2          1           0       -1.700000    0.000000    0.000000
      3          9           0        1.800000    0.000000    0.000000
 ---------------------------------------------------------------------

 SCF Done:  E(UB3LYP) =  -100.829828762     a.u. after   15 cycles

 Alpha  occ. eigenvalues --  -24.66927  -1.13312  -0.46517  -0.38681  -0.38681
 Alpha  occ. eigenvalues --   -0.38058
 Alpha virt. eigenvalues --   -0.11749   0.22518   0.29860   0.87523   0.94599
 Alpha virt. eigenvalues --    0.94599   1.03501   1.18792   1.18792   1.33082
 Alpha virt. eigenvalues --    1.35410   1.35410   1.75444   2.15283   2.36363

  Beta  occ. eigenvalues --  -24.64815  -1.07471  -0.38600  -0.36614  -0.36614
  Beta virt. eigenvalues --   -0.21838  -0.09629   0.25301   0.30064   0.90588
  Beta virt. eigenvalues --    0.94962   0.94962   1.07504   1.23077   1.23077
  Beta virt. eigenvalues --    1.35976   1.35976   1.39645   1.76630   2.16149

 Mulliken charges and spin densities:
               1          2
     1  H    0.166891  -0.437491
     2  H    0.065082   0.775558
     3  F   -0.231972   0.661932
 Sum of Mulliken charges =   0.00000   1.00000

 Dipole moment (field-independent basis, Debye):
    X=             -2.5827    Y=              0.0000    Z=             -0.0000  Tot=              2.5827
 Quadrupole moment (field-independent basis, Debye-Ang):
   XX=             -8.3491   YY=             -7.4609   ZZ=             -7.4609
   XY=              0.0000   XZ=             -0.0000   YZ=             -0.0000

  Exact polarizability:      47.387       0.000       2.139      -0.000      -0.000       2.139
 Approx polarizability:      65.976       0.000       2.062      -0.000       0.000       2.062

 ******    2 imaginary frequencies (negative Signs) ******

                      1                      2                      3
                      A                      A                      A
 Frequencies --  -2145.8006              -611.0506               891.5675
 Red. masses --      1.0188                 1.0955                 1.0173
 Frc consts  --      2.7639                 0.2410                 0.4764
 IR Inten    --    342.6322                 9.8924                13.4656

                      4
                      A
 Frequencies --    891.5675
 Red. masses --      1.0173
 Frc consts  --      0.4764
 IR Inten    --     13.4656

 - Thermochemistry -
 -------------------
 Temperature   298.150 Kelvin.  Pressure   1.00000 Atm.
 Atom     1 has atomic number  1 and mass   1.00783

 Molecular mass:    21.01405 amu.
 Principal axes and moments of inertia in atomic units:
                           1         2         3
     Eigenvalues --     0.00000  50.90011  50.90011
           X            1.00000  -0.00000   0.00000
           Y            0.00000   1.00000   0.00000
           Z            0.00000   0.00000   1.00000
 This molecule is a prolate symmetric top.
 Rotational symmetry number  1.
 Rotational temperature (Kelvin)      1.70164
 Rotational constant (GHZ):          35.456526
    2 imaginary frequencies ignored.
 Zero-point vibrational energy      10665.5 (Joules/Mol)
                                    2.54912 (Kcal/Mol)
 Vibrational temperatures:   1282.77  1282.77
          (Kelvin)

 Zero-point correction=                           0.004062 (Hartree/Particle)
 Thermal correction to Energy=                    0.006534
 Thermal correction to Enthalpy=                  0.007478
 Thermal correction to Gibbs Free Energy=        -0.015797
 Sum of electronic and zero-point Energies=           -100.825766
 Sum of electronic and thermal Energies=              -100.823295
 Sum of electronic and thermal Enthalpies=            -100.822350
 Sum of electronic and thermal Free Energies=         -100.845626

                     E (Thermal)             CV                S
                      KCal/Mol        Cal/Mol-Kelvin    Cal/Mol-Kelvin
 Total                    4.100              5.991             48.987
 Electronic               0.000              0.000              1.377
 Translational            0.889              2.981             35.068
 Rotational               0.592              1.987             12.253
 Vibrational              2.619              1.023              0.289

 Normal termination of Gaussian 16 at Fri Aug 22 16:43:15 2025.
