 Gaussian 16, Revision C.01,
 Gaussian 16:  ES64L-G16RevC.01  3-Jul-2019

 -----------------------------------------
 # sp b3lyp/6-311g** Force nosymm scf=(qc)
 -----------------------------------------

 -------------------
 Title Card Required
 -------------------
 Symbolic Z-matrix:
 Charge =  0 Multiplicity = 2

                          Input orientation:
 ---------------------------------------------------------------------
 Center     Atomic      Atomic             Coordinates (Angstroms)
 Number     Number       Type             X           Y           Z
 ---------------------------------------------------------------------
      1          1           0        0.000000    0.000000    0.000000
      2          1           0       -1.750000    0.000000    0.000000
      3          9           0        3.300000    0.000000    0.000000
 ---------------------------------------------------------------------

 SCF Done:  E(UB3LYP) =  -100.790635258     a.u. after   29 cycles

 Alpha  occ. eigenvalues --  -24.75448  -1.21408  -0.54572  -0.45828  -0.45828
 Alpha  occ. eigenvalues --   -0.33599
 Alpha virt. eigenvalues --   -0.11261   0.25469   0.30598   0.88326   0.91414
 Alpha virt. eigenvalues --    0.91414   1.02330   1.08083   1.23709   1.23709
 Alpha virt. eigenvalues --    1.37255   1.37255   1.63980   2.15312   2.40551

  Beta  occ. eigenvalues --  -24.72341  -1.12480  -0.42713  -0.42713  -0.33558
  Beta virt. eigenvalues --   -0.25626  -0.11066   0.25548   0.30964   0.92900
  Beta virt. eigenvalues --    0.92900   0.97365   1.06325   1.08195   1.23756
  Beta virt. eigenvalues --    1.23756   1.37461   1.37461   1.64217   2.15974

 Mulliken charges and spin densities:
               1          2
     1  H    0.001389  -0.664784
     2  H    0.011021   0.679633
     3  F   -0.012410   0.985151
 Sum of Mulliken charges =   0.00000   1.00000

 Dipole moment (field-independent basis, Debye):
    X=             -0.3004    Y=              0.0000    Z=             -0.0000  Tot=              0.3004
 Quadrupole moment (field-independent basis, Debye-Ang):
   XX=             -6.3763   YY=             -7.7545   ZZ=             -7.7545
   XY=              0.0000   XZ=             -0.0000   YZ=             -0.0000

  Exact polarizability:      50.312      -0.000       2.000       0.000      -0.000       2.000
 Approx polarizability:      53.636       0.000       1.966      -0.000       0.000       1.966

 ******    2 imaginary frequencies (negative Signs) ******

                      1                      2                      3
                      A                      A                      A
 Frequencies --  -1826.2121              -159.4706               830.4005
 Red. masses --      1.0078                 1.1085                 1.0121
 Frc consts  --      1.9804                 0.0166                 0.4112
 IR Inten    --     38.5288                11.3888                 0.0084

                      4
                      A
 Frequencies --    830.4005
 Red. masses --      1.0121
 Frc consts  --      0.4112
 IR Inten    --      0.0084

 - Thermochemistry -
 -------------------
 Temperature   298.150 Kelvin.  Pressure   1.00000 Atm.
 Atom     1 has atomic number  1 and mass   1.00783

 Molecular mass:    21.01405 amu.
 Principal axes and moments of inertia in atomic units:
                           1         2         3
     Eigenvalues --     0.00000 118.94233 118.94233
           X            1.00000  -0.00000   0.00000
           Y            0.00000   1.00000   0.00000
           Z            0.00000   0.00000   1.00000
 This molecule is a prolate symmetric top.
 Rotational symmetry number  1.
 Rotational temperature (Kelvin)      0.72820
 Rotational constant (GHZ):          15.173245
    2 imaginary frequencies ignored.
 Zero-point vibrational energy       9933.8 (Joules/Mol)
                                    2.37423 (Kcal/Mol)
 Vibrational temperatures:   1194.76  1194.76
          (Kelvin)

 Zero-point correction=                           0.003784 (Hartree/Particle)
 Thermal correction to Energy=                    0.006284
 Thermal correction to Enthalpy=                  0.007228
 Thermal correction to Gibbs Free Energy=        -0.016886
 Sum of electronic and zero-point Energies=           -100.786852
 Sum of electronic and thermal Energies=              -100.784351
 Sum of electronic and thermal Enthalpies=            -100.783407
 Sum of electronic and thermal Free Energies=         -100.807521

                     E (Thermal)             CV                S
                      KCal/Mol        Cal/Mol-Kelvin    Cal/Mol-Kelvin
 Total                    3.943              6.172             50.753
 Electronic               0.000              0.000              1.377
 Translational            0.889              2.981             35.068
 Rotational               0.592              1.987             13.940
 Vibrational              2.462              1.204              0.368

 Normal termination of Gaussian 16 at Fri Aug 22 20:47:45 2025.
