 Gaussian 16, Revision C.01,
 Gaussian 16:  ES64L-G16RevC.01  3-Jul-2019

 -----------------------------------------
 # sp b3lyp/6-311g** Force nosymm scf=(qc)
 -----------------------------------------

 -------------------
 Title Card Required
 -------------------
 Symbolic Z-matrix:
 Charge =  0 Multiplicity = 2

                          Input orientation:
 ---------------------------------------------------------------------
 Center     Atomic      Atomic             Coordinates (Angstroms)
 Number     Number       Type             X           Y           Z
 ---------------------------------------------------------------------
      1          1           0        0.000000    0.000000    0.000000
      2          1           0       -3.150000    0.000000    0.000000
      3          9           0        1.500000    0.000000    0.000000
 ---------------------------------------------------------------------

 SCF Done:  E(UB3LYP) =  -100.854873708     a.u. after    8 cycles

 Alpha  occ. eigenvalues --  -24.64309  -1.09692  -0.43251  -0.36395  -0.36395
 Alpha  occ. eigenvalues --   -0.34413
 Alpha virt. eigenvalues --   -0.14327   0.20849   0.27713   0.93566   0.93566
 Alpha virt. eigenvalues --    1.03499   1.09789   1.23102   1.23102   1.23405
 Alpha virt. eigenvalues --    1.31319   1.31319   1.73443   2.13704   2.18880

  Beta  occ. eigenvalues --  -24.64235  -1.09496  -0.43068  -0.36325  -0.36325
  Beta virt. eigenvalues --   -0.14960  -0.07141   0.23766   0.37637   0.93536
  Beta virt. eigenvalues --    0.93536   1.03690   1.09830   1.30972   1.30972
  Beta virt. eigenvalues --    1.44934   1.45363   1.45363   1.73363   2.18375

 Mulliken charges and spin densities:
               1          2
     1  H    0.346582  -0.018631
     2  H    0.004466   0.995196
     3  F   -0.351048   0.023435
 Sum of Mulliken charges =  -0.00000   1.00000

 Dipole moment (field-independent basis, Debye):
    X=             -2.6549    Y=             -0.0000    Z=             -0.0000  Tot=              2.6549
 Quadrupole moment (field-independent basis, Debye-Ang):
   XX=             -9.7651   YY=             -7.3232   ZZ=             -7.3232
   XY=             -0.0000   XZ=             -0.0000   YZ=             -0.0000

  Exact polarizability:      16.955      -0.000       2.190       0.000       0.000       2.190
 Approx polarizability:      30.287      -0.000       2.116      -0.000       0.000       2.116

 ******    2 imaginary frequencies (negative Signs) ******

                      1                      2                      3
                      A                      A                      A
 Frequencies --  -1175.8555              -123.0898              1009.2268
 Red. masses --      1.0561                 1.0555                 1.0288
 Frc consts  --      0.8603                 0.0094                 0.6174
 IR Inten    --     57.0770                 0.6859               113.5890

                      4
                      A
 Frequencies --   1009.2268
 Red. masses --      1.0288
 Frc consts  --      0.6174
 IR Inten    --    113.5890

 - Thermochemistry -
 -------------------
 Temperature   298.150 Kelvin.  Pressure   1.00000 Atm.
 Atom     1 has atomic number  1 and mass   1.00783

 Molecular mass:    21.01405 amu.
 Principal axes and moments of inertia in atomic units:
                           1         2         3
     Eigenvalues --     0.00000  79.38891  79.38891
           X            1.00000  -0.00000   0.00000
           Y            0.00000   1.00000   0.00000
           Z            0.00000   0.00000   1.00000
 This molecule is a prolate symmetric top.
 Rotational symmetry number  1.
 Rotational temperature (Kelvin)      1.09101
 Rotational constant (GHZ):          22.732914
    2 imaginary frequencies ignored.
 Zero-point vibrational energy      12073.0 (Joules/Mol)
                                    2.88552 (Kcal/Mol)
 Vibrational temperatures:   1452.05  1452.05
          (Kelvin)

 Zero-point correction=                           0.004598 (Hartree/Particle)
 Thermal correction to Energy=                    0.007030
 Thermal correction to Enthalpy=                  0.007974
 Thermal correction to Gibbs Free Energy=        -0.015669
 Sum of electronic and zero-point Energies=           -100.850275
 Sum of electronic and thermal Energies=              -100.847844
 Sum of electronic and thermal Enthalpies=            -100.846900
 Sum of electronic and thermal Free Energies=         -100.870543

                     E (Thermal)             CV                S
                      KCal/Mol        Cal/Mol-Kelvin    Cal/Mol-Kelvin
 Total                    4.411              5.702             49.762
 Electronic               0.000              0.000              1.377
 Translational            0.889              2.981             35.068
 Rotational               0.592              1.987             13.136
 Vibrational              2.930              0.734              0.180

 Normal termination of Gaussian 16 at Fri Aug 22 16:26:23 2025.
