 Gaussian 16, Revision C.01,
 Gaussian 16:  ES64L-G16RevC.01  3-Jul-2019

 -----------------------------------------
 # sp b3lyp/6-311g** Force nosymm scf=(qc)
 -----------------------------------------

 -------------------
 Title Card Required
 -------------------
 Symbolic Z-matrix:
 Charge =  0 Multiplicity = 2

                          Input orientation:
 ---------------------------------------------------------------------
 Center     Atomic      Atomic             Coordinates (Angstroms)
 Number     Number       Type             X           Y           Z
 ---------------------------------------------------------------------
      1          1           0        0.000000    0.000000    0.000000
      2          1           0       -3.800000    0.000000    0.000000
      3          9           0        2.750000    0.000000    0.000000
 ---------------------------------------------------------------------

 SCF Done:  E(UB3LYP) =  -100.763205655     a.u. after   24 cycles

 Alpha  occ. eigenvalues --  -24.73045  -1.19180  -0.52161  -0.43804  -0.43804
 Alpha  occ. eigenvalues --   -0.32617
 Alpha virt. eigenvalues --   -0.08846   0.23693   0.35902   0.89895   0.92889
 Alpha virt. eigenvalues --    0.92889   1.05296   1.24883   1.24883   1.24928
 Alpha virt. eigenvalues --    1.42624   1.42624   1.44198   2.14342   2.39444

  Beta  occ. eigenvalues --  -24.70094  -1.10744  -0.40855  -0.40855  -0.34439
  Beta virt. eigenvalues --   -0.24161  -0.06194   0.23815   0.38094   0.94321
  Beta virt. eigenvalues --    0.94321   0.97916   1.08517   1.22875   1.22875
  Beta virt. eigenvalues --    1.24991   1.46322   1.46519   1.46519   2.13701

 Mulliken charges and spin densities:
               1          2
     1  H    0.059202  -0.933285
     2  H    0.000296   0.999021
     3  F   -0.059498   0.934264
 Sum of Mulliken charges =  -0.00000   1.00000

 Dipole moment (field-independent basis, Debye):
    X=             -0.8432    Y=             -0.0000    Z=             -0.0000  Tot=              0.8432
 Quadrupole moment (field-independent basis, Debye-Ang):
   XX=             -8.8519   YY=             -7.5914   ZZ=             -7.5914
   XY=             -0.0000   XZ=             -0.0000   YZ=              0.0000

  Exact polarizability:      31.412      -0.000       2.025      -0.000      -0.000       2.025
 Approx polarizability:      36.372      -0.000       1.923      -0.000       0.000       1.923

 ******    2 imaginary frequencies (negative Signs) ******

                      1                      2                      3
                      A                      A                      A
 Frequencies --   -474.2271               -86.1356               174.6766
 Red. masses --      1.0548                 1.0568                 1.0223
 Frc consts  --      0.1398                 0.0046                 0.0184
 IR Inten    --     58.9923                 0.1059                 3.3894

                      4
                      A
 Frequencies --    174.6766
 Red. masses --      1.0223
 Frc consts  --      0.0184
 IR Inten    --      3.3894

 - Thermochemistry -
 -------------------
 Temperature   298.150 Kelvin.  Pressure   1.00000 Atm.
 Atom     1 has atomic number  1 and mass   1.00783

 Molecular mass:    21.01405 amu.
 Principal axes and moments of inertia in atomic units:
                           1         2         3
     Eigenvalues --     0.00000 166.69519 166.69519
           X            1.00000  -0.00000   0.00000
           Y            0.00000   1.00000   0.00000
           Z            0.00000   0.00000   1.00000
 This molecule is a prolate symmetric top.
 Rotational symmetry number  1.
 Rotational temperature (Kelvin)      0.51959
 Rotational constant (GHZ):          10.826594
    2 imaginary frequencies ignored.
 Zero-point vibrational energy       2089.6 (Joules/Mol)
                                    0.49943 (Kcal/Mol)
 Warning -- explicit consideration of   2 degrees of freedom as
           vibrations may cause significant error
 Vibrational temperatures:    251.32   251.32
          (Kelvin)

 Zero-point correction=                           0.000796 (Hartree/Particle)
 Thermal correction to Energy=                    0.004359
 Thermal correction to Enthalpy=                  0.005304
 Thermal correction to Gibbs Free Energy=        -0.021221
 Sum of electronic and zero-point Energies=           -100.762410
 Sum of electronic and thermal Energies=              -100.758846
 Sum of electronic and thermal Enthalpies=            -100.757902
 Sum of electronic and thermal Free Energies=         -100.784426

                     E (Thermal)             CV                S
                      KCal/Mol        Cal/Mol-Kelvin    Cal/Mol-Kelvin
 Total                    2.736              8.715             55.825
 Electronic               0.000              0.000              1.377
 Translational            0.889              2.981             35.068
 Rotational               0.592              1.987             14.611
 Vibrational              1.254              3.747              4.769
 Vibration     1          0.627              1.874              2.385
 Vibration     2          0.627              1.874              2.385

 Normal termination of Gaussian 16 at Fri Aug 22 18:35:28 2025.
