 Gaussian 16, Revision C.01,
 Gaussian 16:  ES64L-G16RevC.01  3-Jul-2019

 -----------------------------------------
 # sp b3lyp/6-311g** Force nosymm scf=(qc)
 -----------------------------------------

 -------------------
 Title Card Required
 -------------------
 Symbolic Z-matrix:
 Charge =  0 Multiplicity = 2

                          Input orientation:
 ---------------------------------------------------------------------
 Center     Atomic      Atomic             Coordinates (Angstroms)
 Number     Number       Type             X           Y           Z
 ---------------------------------------------------------------------
      1          1           0        0.000000    0.000000    0.000000
      2          1           0       -3.100000    0.000000    0.000000
      3          9           0        2.750000    0.000000    0.000000
 ---------------------------------------------------------------------

 SCF Done:  E(UB3LYP) =  -100.763969076     a.u. after   20 cycles

 Alpha  occ. eigenvalues --  -24.73065  -1.19196  -0.52179  -0.43819  -0.43819
 Alpha  occ. eigenvalues --   -0.32871
 Alpha virt. eigenvalues --   -0.09655   0.24266   0.35077   0.90030   0.92879
 Alpha virt. eigenvalues --    0.92879   1.05420   1.24660   1.24660   1.25314
 Alpha virt. eigenvalues --    1.41867   1.41867   1.42944   2.15190   2.37562

  Beta  occ. eigenvalues --  -24.70112  -1.10758  -0.40869  -0.40869  -0.34455
  Beta virt. eigenvalues --   -0.24178  -0.07483   0.24559   0.37003   0.94312
  Beta virt. eigenvalues --    0.94312   0.98144   1.08784   1.22894   1.22894
  Beta virt. eigenvalues --    1.25236   1.44834   1.44965   1.44965   2.14944

 Mulliken charges and spin densities:
               1          2
     1  H    0.057197  -0.928844
     2  H    0.001802   0.994321
     3  F   -0.058999   0.934523
 Sum of Mulliken charges =  -0.00000   1.00000

 Dipole moment (field-independent basis, Debye):
    X=             -0.8577    Y=             -0.0000    Z=             -0.0000  Tot=              0.8577
 Quadrupole moment (field-independent basis, Debye-Ang):
   XX=             -8.7249   YY=             -7.6037   ZZ=             -7.6037
   XY=             -0.0000   XZ=             -0.0000   YZ=             -0.0000

  Exact polarizability:      34.594       0.000       2.021       0.000      -0.000       2.021
 Approx polarizability:      38.317       0.000       1.921       0.000       0.000       1.921

 ******    2 imaginary frequencies (negative Signs) ******

                      1                      2                      3
                      A                      A                      A
 Frequencies --   -513.8449              -184.8877               192.6719
 Red. masses --      1.0405                 1.0715                 1.0195
 Frc consts  --      0.1619                 0.0216                 0.0223
 IR Inten    --     56.1996                 2.7727                 2.9965

                      4
                      A
 Frequencies --    192.6719
 Red. masses --      1.0195
 Frc consts  --      0.0223
 IR Inten    --      2.9965

 - Thermochemistry -
 -------------------
 Temperature   298.150 Kelvin.  Pressure   1.00000 Atm.
 Atom     1 has atomic number  1 and mass   1.00783

 Molecular mass:    21.01405 amu.
 Principal axes and moments of inertia in atomic units:
                           1         2         3
     Eigenvalues --     0.00000 137.61856 137.61856
           X            1.00000  -0.00000   0.00000
           Y            0.00000   1.00000   0.00000
           Z            0.00000   0.00000   1.00000
 This molecule is a prolate symmetric top.
 Rotational symmetry number  1.
 Rotational temperature (Kelvin)      0.62938
 Rotational constant (GHZ):          13.114082
    2 imaginary frequencies ignored.
 Zero-point vibrational energy       2304.9 (Joules/Mol)
                                    0.55088 (Kcal/Mol)
 Warning -- explicit consideration of   2 degrees of freedom as
           vibrations may cause significant error
 Vibrational temperatures:    277.21   277.21
          (Kelvin)

 Zero-point correction=                           0.000878 (Hartree/Particle)
 Thermal correction to Energy=                    0.004383
 Thermal correction to Enthalpy=                  0.005327
 Thermal correction to Gibbs Free Energy=        -0.020843
 Sum of electronic and zero-point Energies=           -100.763091
 Sum of electronic and thermal Energies=              -100.759586
 Sum of electronic and thermal Enthalpies=            -100.758642
 Sum of electronic and thermal Free Energies=         -100.784812

                     E (Thermal)             CV                S
                      KCal/Mol        Cal/Mol-Kelvin    Cal/Mol-Kelvin
 Total                    2.750              8.668             55.079
 Electronic               0.000              0.000              1.377
 Translational            0.889              2.981             35.068
 Rotational               0.592              1.987             14.230
 Vibrational              1.269              3.700              4.404
 Vibration     1          0.635              1.850              2.202
 Vibration     2          0.635              1.850              2.202

 Normal termination of Gaussian 16 at Fri Aug 22 18:34:47 2025.
