 Gaussian 16, Revision C.01,
 Gaussian 16:  ES64L-G16RevC.01  3-Jul-2019

 -----------------------------------------
 # sp b3lyp/6-311g** Force nosymm scf=(qc)
 -----------------------------------------

 -------------------
 Title Card Required
 -------------------
 Symbolic Z-matrix:
 Charge =  0 Multiplicity = 2

                          Input orientation:
 ---------------------------------------------------------------------
 Center     Atomic      Atomic             Coordinates (Angstroms)
 Number     Number       Type             X           Y           Z
 ---------------------------------------------------------------------
      1          1           0        0.000000    0.000000    0.000000
      2          1           0       -3.600000    0.000000    0.000000
      3          9           0        1.900000    0.000000    0.000000
 ---------------------------------------------------------------------

 SCF Done:  E(UB3LYP) =  -100.794810131     a.u. after   11 cycles

 Alpha  occ. eigenvalues --  -24.67436  -1.13714  -0.46339  -0.39080  -0.39080
 Alpha  occ. eigenvalues --   -0.33496
 Alpha virt. eigenvalues --   -0.14421   0.21994   0.30916   0.90329   0.94865
 Alpha virt. eigenvalues --    0.94865   1.05652   1.24016   1.24016   1.24067
 Alpha virt. eigenvalues --    1.34494   1.34494   1.65273   2.13761   2.27840

  Beta  occ. eigenvalues --  -24.65259  -1.07667  -0.38611  -0.36944  -0.36944
  Beta virt. eigenvalues --   -0.20049  -0.06855   0.22176   0.37926   0.91200
  Beta virt. eigenvalues --    0.95193   0.95193   1.08042   1.22642   1.22642
  Beta virt. eigenvalues --    1.45628   1.46027   1.46027   1.59267   2.11922

 Mulliken charges and spin densities:
               1          2
     1  H    0.222221  -0.682761
     2  H    0.001394   0.998114
     3  F   -0.223615   0.684647
 Sum of Mulliken charges =   0.00000   1.00000

 Dipole moment (field-independent basis, Debye):
    X=             -2.1093    Y=             -0.0000    Z=              0.0000  Tot=              2.1093
 Quadrupole moment (field-independent basis, Debye-Ang):
   XX=            -10.1296   YY=             -7.4650   ZZ=             -7.4650
   XY=             -0.0000   XZ=              0.0000   YZ=              0.0000

  Exact polarizability:      24.440      -0.000       2.077       0.000      -0.000       2.077
 Approx polarizability:      36.555       0.000       1.964      -0.000      -0.000       1.964

 ******    2 imaginary frequencies (negative Signs) ******

                      1                      2                      3
                      A                      A                      A
 Frequencies --  -1307.1971              -105.2846               559.6946
 Red. masses --      1.0575                 1.0540                 1.0272
 Frc consts  --      1.0647                 0.0069                 0.1896
 IR Inten    --    129.4629                 0.1920                46.2190

                      4
                      A
 Frequencies --    559.6946
 Red. masses --      1.0272
 Frc consts  --      0.1896
 IR Inten    --     46.2190

 - Thermochemistry -
 -------------------
 Temperature   298.150 Kelvin.  Pressure   1.00000 Atm.
 Atom     1 has atomic number  1 and mass   1.00783

 Molecular mass:    21.01405 amu.
 Principal axes and moments of inertia in atomic units:
                           1         2         3
     Eigenvalues --     0.00000 112.41047 112.41047
           X            1.00000  -0.00000   0.00000
           Y            0.00000   1.00000   0.00000
           Z            0.00000   0.00000   1.00000
 This molecule is a prolate symmetric top.
 Rotational symmetry number  1.
 Rotational temperature (Kelvin)      0.77051
 Rotational constant (GHZ):          16.054920
    2 imaginary frequencies ignored.
 Zero-point vibrational energy       6695.4 (Joules/Mol)
                                    1.60025 (Kcal/Mol)
 Warning -- explicit consideration of   2 degrees of freedom as
           vibrations may cause significant error
 Vibrational temperatures:    805.28   805.28
          (Kelvin)

 Zero-point correction=                           0.002550 (Hartree/Particle)
 Thermal correction to Energy=                    0.005278
 Thermal correction to Enthalpy=                  0.006222
 Thermal correction to Gibbs Free Energy=        -0.018163
 Sum of electronic and zero-point Energies=           -100.792260
 Sum of electronic and thermal Energies=              -100.789532
 Sum of electronic and thermal Enthalpies=            -100.788588
 Sum of electronic and thermal Free Energies=         -100.812973

                     E (Thermal)             CV                S
                      KCal/Mol        Cal/Mol-Kelvin    Cal/Mol-Kelvin
 Total                    3.312              7.205             51.322
 Electronic               0.000              0.000              1.377
 Translational            0.889              2.981             35.068
 Rotational               0.592              1.987             13.828
 Vibrational              1.831              2.237              1.049
 Vibration     1          0.915              1.119              0.524
 Vibration     2          0.915              1.119              0.524

 Normal termination of Gaussian 16 at Fri Aug 22 16:51:22 2025.
