 Gaussian 16, Revision C.01,
 Gaussian 16:  ES64L-G16RevC.01  3-Jul-2019

 -----------------------------------------
 # sp b3lyp/6-311g** Force nosymm scf=(qc)
 -----------------------------------------

 -------------------
 Title Card Required
 -------------------
 Symbolic Z-matrix:
 Charge =  0 Multiplicity = 2

                          Input orientation:
 ---------------------------------------------------------------------
 Center     Atomic      Atomic             Coordinates (Angstroms)
 Number     Number       Type             X           Y           Z
 ---------------------------------------------------------------------
      1          1           0        0.000000    0.000000    0.000000
      2          1           0       -1.400000    0.000000    0.000000
      3          9           0        3.050000    0.000000    0.000000
 ---------------------------------------------------------------------

 SCF Done:  E(UB3LYP) =  -100.837000001     a.u. after  232 cycles

 Alpha  occ. eigenvalues --  -24.76671  -1.22502  -0.55692  -0.46935  -0.46843
 Alpha  occ. eigenvalues --   -0.34242
 Alpha virt. eigenvalues --   -0.07945   0.24398   0.31621   0.85756   0.90629
 Alpha virt. eigenvalues --    0.93065   1.03101   1.10848   1.18029   1.18035
 Alpha virt. eigenvalues --    1.45227   1.45233   1.90705   2.25987   2.50822

  Beta  occ. eigenvalues --  -24.73511  -1.13418  -0.43772  -0.43674  -0.34234
  Beta virt. eigenvalues --   -0.26320  -0.07934   0.24416   0.31686   0.92128
  Beta virt. eigenvalues --    0.94691   0.95215   1.07042   1.10851   1.18029
  Beta virt. eigenvalues --    1.18034   1.45226   1.45232   1.90714   2.25988

 Mulliken charges and spin densities:
               1          2
     1  H   -0.000500   0.001188
     2  H   -0.006359  -0.002102
     3  F    0.006859   1.000914
 Sum of Mulliken charges =   0.00000   1.00000

 Dipole moment (field-independent basis, Debye):
    X=              0.1041    Y=             -0.0000    Z=             -0.0000  Tot=              0.1041
 Quadrupole moment (field-independent basis, Debye-Ang):
   XX=             -6.1596   YY=             -7.4932   ZZ=             -7.0210
   XY=             -0.0000   XZ=             -0.0000   YZ=              0.3616

  Exact polarizability:      20.953       0.000       2.166       0.000       0.194       2.419
 Approx polarizability:      36.478      -0.000       2.199      -0.000       0.243       2.516

 ******    1 imaginary frequencies (negative Signs) ******

                      1                      2                      3
                      A                      A                      A
 Frequencies --  -1167.0712                15.6811              1306.1268
 Red. masses --      1.0078                 1.1085                 1.0112
 Frc consts  --      0.8088                 0.0002                 1.0164
 IR Inten    --      1.0537                 0.6256                 0.0073

                      4
                      A
 Frequencies --   1308.5293
 Red. masses --      1.0112
 Frc consts  --      1.0202
 IR Inten    --      0.0051

 - Thermochemistry -
 -------------------
 Temperature   298.150 Kelvin.  Pressure   1.00000 Atm.
 Atom     1 has atomic number  1 and mass   1.00783

 Molecular mass:    21.01405 amu.
 Principal axes and moments of inertia in atomic units:
                           1         2         3
     Eigenvalues --     0.00000  95.04000  95.04000
           X            1.00000  -0.00000   0.00000
           Y            0.00000   1.00000   0.00000
           Z            0.00000   0.00000   1.00000
 This molecule is a prolate symmetric top.
 Rotational symmetry number  1.
 Rotational temperature (Kelvin)      0.91134
 Rotational constant (GHZ):          18.989279
    1 imaginary frequencies ignored.
 Zero-point vibrational energy      15732.9 (Joules/Mol)
                                    3.76026 (Kcal/Mol)
 Warning -- explicit consideration of   1 degrees of freedom as
           vibrations may cause significant error
 Vibrational temperatures:     22.56  1879.23  1882.68
          (Kelvin)

 Zero-point correction=                           0.005992 (Hartree/Particle)
 Thermal correction to Energy=                    0.009283
 Thermal correction to Enthalpy=                  0.010228
 Thermal correction to Gibbs Free Energy=        -0.016907
 Sum of electronic and zero-point Energies=           -100.831008
 Sum of electronic and thermal Energies=              -100.827717
 Sum of electronic and thermal Enthalpies=            -100.826772
 Sum of electronic and thermal Free Energies=         -100.853907

                     E (Thermal)             CV                S
                      KCal/Mol        Cal/Mol-Kelvin    Cal/Mol-Kelvin
 Total                    5.825              7.243             57.110
 Electronic               0.000              0.000              1.377
 Translational            0.889              2.981             35.068
 Rotational               0.592              1.987             13.494
 Vibrational              4.344              2.275              7.170
 Vibration     1          0.593              1.986              7.117

 Normal termination of Gaussian 16 at Fri Aug 22 19:42:13 2025.
