 Gaussian 16, Revision C.01,
 Gaussian 16:  ES64L-G16RevC.01  3-Jul-2019

 -----------------------------------------
 # sp b3lyp/6-311g** Force nosymm scf=(qc)
 -----------------------------------------

 -------------------
 Title Card Required
 -------------------
 Symbolic Z-matrix:
 Charge =  0 Multiplicity = 2

                          Input orientation:
 ---------------------------------------------------------------------
 Center     Atomic      Atomic             Coordinates (Angstroms)
 Number     Number       Type             X           Y           Z
 ---------------------------------------------------------------------
      1          1           0        0.000000    0.000000    0.000000
      2          1           0       -3.800000    0.000000    0.000000
      3          9           0        3.750000    0.000000    0.000000
 ---------------------------------------------------------------------

 SCF Done:  E(UB3LYP) =  -100.758602987     a.u. after   30 cycles

 Alpha  occ. eigenvalues --  -24.75705  -1.21644  -0.54829  -0.46035  -0.46035
 Alpha  occ. eigenvalues --   -0.32260
 Alpha virt. eigenvalues --   -0.06291   0.24187   0.37608   0.86950   0.91282
 Alpha virt. eigenvalues --    0.91282   1.01330   1.25237   1.25237   1.25285
 Alpha virt. eigenvalues --    1.46134   1.46134   1.46207   2.14720   2.42051

  Beta  occ. eigenvalues --  -24.72570  -1.12633  -0.42893  -0.42893  -0.32572
  Beta virt. eigenvalues --   -0.25644  -0.06021   0.23977   0.38181   0.92777
  Beta virt. eigenvalues --    0.92777   0.96228   1.05413   1.24890   1.24890
  Beta virt. eigenvalues --    1.24921   1.46448   1.46600   1.46600   2.14765

 Mulliken charges and spin densities:
               1          2
     1  H    0.005540  -0.992810
     2  H    0.000048   0.998978
     3  F   -0.005588   0.993832
 Sum of Mulliken charges =  -0.00000   1.00000

 Dipole moment (field-independent basis, Debye):
    X=             -0.1090    Y=              0.0000    Z=              0.0000  Tot=              0.1090
 Quadrupole moment (field-independent basis, Debye-Ang):
   XX=             -7.1115   YY=             -7.6199   ZZ=             -7.6199
   XY=              0.0000   XZ=              0.0000   YZ=             -0.0000

  Exact polarizability:      16.199      -0.000       2.032      -0.000      -0.000       2.032
 Approx polarizability:      12.005       0.000       1.936       0.000       0.000       1.936

 ******    2 imaginary frequencies (negative Signs) ******

                      1                      2                      3
                      A                      A                      A
 Frequencies --   -176.3593               -73.8925                55.5362
 Red. masses --      1.0286                 1.0844                 1.0181
 Frc consts  --      0.0188                 0.0035                 0.0019
 IR Inten    --      3.8299                 0.4208                 0.0304

                      4
                      A
 Frequencies --     55.5362
 Red. masses --      1.0181
 Frc consts  --      0.0019
 IR Inten    --      0.0304

 - Thermochemistry -
 -------------------
 Temperature   298.150 Kelvin.  Pressure   1.00000 Atm.
 Atom     1 has atomic number  1 and mass   1.00783

 Molecular mass:    21.01405 amu.
 Principal axes and moments of inertia in atomic units:
                           1         2         3
     Eigenvalues --     0.00000 233.72336 233.72336
           X            1.00000  -0.00000   0.00000
           Y            0.00000   1.00000   0.00000
           Z            0.00000   0.00000   1.00000
 This molecule is a prolate symmetric top.
 Rotational symmetry number  1.
 Rotational temperature (Kelvin)      0.37058
 Rotational constant (GHZ):           7.721698
    2 imaginary frequencies ignored.
 Zero-point vibrational energy        664.4 (Joules/Mol)
                                    0.15879 (Kcal/Mol)
 Warning -- explicit consideration of   2 degrees of freedom as
           vibrations may cause significant error
 Vibrational temperatures:     79.90    79.90
          (Kelvin)

 Zero-point correction=                           0.000253 (Hartree/Particle)
 Thermal correction to Energy=                    0.004260
 Thermal correction to Enthalpy=                  0.005204
 Thermal correction to Gibbs Free Energy=        -0.023754
 Sum of electronic and zero-point Energies=           -100.758350
 Sum of electronic and thermal Energies=              -100.754343
 Sum of electronic and thermal Enthalpies=            -100.753399
 Sum of electronic and thermal Free Energies=         -100.782357

                     E (Thermal)             CV                S
                      KCal/Mol        Cal/Mol-Kelvin    Cal/Mol-Kelvin
 Total                    2.673              8.919             60.947
 Electronic               0.000              0.000              1.377
 Translational            0.889              2.981             35.068
 Rotational               0.592              1.987             15.282
 Vibrational              1.192              3.951              9.220
 Vibration     1          0.596              1.975              4.610
 Vibration     2          0.596              1.975              4.610

 Normal termination of Gaussian 16 at Sat Aug 23 00:28:26 2025.
