 Gaussian 16, Revision C.01,
 Gaussian 16:  ES64L-G16RevC.01  3-Jul-2019

 -----------------------------------------
 # sp b3lyp/6-311g** Force nosymm scf=(qc)
 -----------------------------------------

 -------------------
 Title Card Required
 -------------------
 Symbolic Z-matrix:
 Charge =  0 Multiplicity = 2

                          Input orientation:
 ---------------------------------------------------------------------
 Center     Atomic      Atomic             Coordinates (Angstroms)
 Number     Number       Type             X           Y           Z
 ---------------------------------------------------------------------
      1          1           0        0.000000    0.000000    0.000000
      2          1           0       -1.150000    0.000000    0.000000
      3          9           0        2.700000    0.000000    0.000000
 ---------------------------------------------------------------------

 SCF Done:  E(UB3LYP) =  -100.881494774     a.u. after  236 cycles

 Alpha  occ. eigenvalues --  -24.76952  -1.22739  -0.55916  -0.47252  -0.47063
 Alpha  occ. eigenvalues --   -0.36586
 Alpha virt. eigenvalues --   -0.02475   0.22901   0.36224   0.85578   0.90446
 Alpha virt. eigenvalues --    0.93222   1.07008   1.12041   1.12053   1.26350
 Alpha virt. eigenvalues --    1.57339   1.57351   2.13303   2.33886   2.56253

  Beta  occ. eigenvalues --  -24.73788  -1.13648  -0.44113  -0.43891  -0.36549
  Beta virt. eigenvalues --   -0.26528  -0.02439   0.22931   0.36326   0.91943
  Beta virt. eigenvalues --    0.95027   0.95039   1.10697   1.12043   1.12051
  Beta virt. eigenvalues --    1.26370   1.57337   1.57349   2.13307   2.33888

 Mulliken charges and spin densities:
               1          2
     1  H   -0.002111  -0.000351
     2  H   -0.010021  -0.001384
     3  F    0.012132   1.001735
 Sum of Mulliken charges =  -0.00000   1.00000

 Dipole moment (field-independent basis, Debye):
    X=              0.1596    Y=             -0.0000    Z=              0.0000  Tot=              0.1596
 Quadrupole moment (field-independent basis, Debye-Ang):
   XX=             -6.1004   YY=             -7.2974   ZZ=             -6.7468
   XY=             -0.0000   XZ=              0.0000   YZ=             -0.3324

  Exact polarizability:      15.815       0.000       2.175      -0.000      -0.180       2.473
 Approx polarizability:      22.457      -0.000       2.230       0.000      -0.221       2.596

                      1                      2                      3
                      A                      A                      A
 Frequencies --     96.7541               584.2877              1452.6621
 Red. masses --      1.1085                 1.0078                 1.0109
 Frc consts  --      0.0061                 0.2027                 1.2568
 IR Inten    --      1.2091                 3.4010                 0.1125

                      4
                      A
 Frequencies --   1500.4686
 Red. masses --      1.0109
 Frc consts  --      1.3409
 IR Inten    --      0.0056

 - Thermochemistry -
 -------------------
 Temperature   298.150 Kelvin.  Pressure   1.00000 Atm.
 Atom     1 has atomic number  1 and mass   1.00783

 Molecular mass:    21.01405 amu.
 Principal axes and moments of inertia in atomic units:
                           1         2         3
     Eigenvalues --     0.00000  72.17781  72.17781
           X            1.00000  -0.00000   0.00000
           Y            0.00000   1.00000   0.00000
           Z            0.00000   0.00000   1.00000
 This molecule is a prolate symmetric top.
 Rotational symmetry number  1.
 Rotational temperature (Kelvin)      1.20001
 Rotational constant (GHZ):          25.004101
 Zero-point vibrational energy      21737.2 (Joules/Mol)
                                    5.19531 (Kcal/Mol)
 Warning -- explicit consideration of   2 degrees of freedom as
           vibrations may cause significant error
 Vibrational temperatures:    139.21   840.66  2090.06  2158.84
          (Kelvin)

 Zero-point correction=                           0.008279 (Hartree/Particle)
 Thermal correction to Energy=                    0.011560
 Thermal correction to Enthalpy=                  0.012504
 Thermal correction to Gibbs Free Energy=        -0.012875
 Sum of electronic and zero-point Energies=           -100.873216
 Sum of electronic and thermal Energies=              -100.869935
 Sum of electronic and thermal Enthalpies=            -100.868990
 Sum of electronic and thermal Free Energies=         -100.894369

                     E (Thermal)             CV                S
                      KCal/Mol        Cal/Mol-Kelvin    Cal/Mol-Kelvin
 Total                    7.254              8.148             53.415
 Electronic               0.000              0.000              1.377
 Translational            0.889              2.981             35.068
 Rotational               0.592              1.987             12.947
 Vibrational              5.773              3.180              4.022
 Vibration     1          0.603              1.951              3.519
 Vibration     2          0.941              1.065              0.477

 Normal termination of Gaussian 16 at Fri Aug 22 18:22:27 2025.
