 Gaussian 16, Revision C.01,
 Gaussian 16:  ES64L-G16RevC.01  3-Jul-2019

 -----------------------------------------
 # sp b3lyp/6-311g** Force nosymm scf=(qc)
 -----------------------------------------

 -------------------
 Title Card Required
 -------------------
 Symbolic Z-matrix:
 Charge =  0 Multiplicity = 2

                          Input orientation:
 ---------------------------------------------------------------------
 Center     Atomic      Atomic             Coordinates (Angstroms)
 Number     Number       Type             X           Y           Z
 ---------------------------------------------------------------------
      1          1           0        0.000000    0.000000    0.000000
      2          1           0       -2.900000    0.000000    0.000000
      3          9           0        2.100000    0.000000    0.000000
 ---------------------------------------------------------------------

 SCF Done:  E(UB3LYP) =  -100.780466175     a.u. after   20 cycles

 Alpha  occ. eigenvalues --  -24.66168  -1.08013  -0.37664  -0.37664  -0.37563
 Alpha  occ. eigenvalues --   -0.33484
 Alpha virt. eigenvalues --   -0.21177   0.21454   0.27432   0.91146   0.95824
 Alpha virt. eigenvalues --    0.95824   1.08554   1.21619   1.21619   1.23683
 Alpha virt. eigenvalues --    1.23683   1.24490   1.47768   2.12669   2.14590

  Beta  occ. eigenvalues --  -24.68656  -1.15001  -0.47673  -0.40124  -0.40124
  Beta virt. eigenvalues --   -0.13757  -0.04954   0.31326   0.39066   0.89085
  Beta virt. eigenvalues --    0.94949   0.94949   1.06517   1.36470   1.36470
  Beta virt. eigenvalues --    1.46948   1.46948   1.47540   1.56325   2.31739

 Mulliken charges and spin densities:
               1          2
     1  H    0.167692   0.788785
     2  H    0.005957   0.994200
     3  F   -0.173649  -0.782985
 Sum of Mulliken charges =   0.00000   1.00000

 Dipole moment (field-independent basis, Debye):
    X=             -1.8982    Y=             -0.0000    Z=             -0.0000  Tot=              1.8982
 Quadrupole moment (field-independent basis, Debye-Ang):
   XX=             -9.9570   YY=             -7.4935   ZZ=             -7.4935
   XY=             -0.0000   XZ=             -0.0000   YZ=              0.0000

  Exact polarizability:      33.332      -0.000       2.049      -0.000       0.000       2.049
 Approx polarizability:      45.948      -0.000       1.939      -0.000      -0.000       1.939

 ******    1 imaginary frequencies (negative Signs) ******

                      1                      2                      3
                      A                      A                      A
 Frequencies --   -959.3784               147.3871               403.6279
 Red. masses --      1.0621                 1.0495                 1.0223
 Frc consts  --      0.5760                 0.0134                 0.0981
 IR Inten    --     78.6786                 3.7521                25.1340

                      4
                      A
 Frequencies --    403.6279
 Red. masses --      1.0223
 Frc consts  --      0.0981
 IR Inten    --     25.1340

 - Thermochemistry -
 -------------------
 Temperature   298.150 Kelvin.  Pressure   1.00000 Atm.
 Atom     1 has atomic number  1 and mass   1.00783

 Molecular mass:    21.01405 amu.
 Principal axes and moments of inertia in atomic units:
                           1         2         3
     Eigenvalues --     0.00000  97.14573  97.14573
           X            1.00000  -0.00000   0.00000
           Y            0.00000   1.00000   0.00000
           Z            0.00000   0.00000   1.00000
 This molecule is a prolate symmetric top.
 Rotational symmetry number  1.
 Rotational temperature (Kelvin)      0.89159
 Rotational constant (GHZ):          18.577670
    1 imaginary frequencies ignored.
 Zero-point vibrational energy       5710.0 (Joules/Mol)
                                    1.36473 (Kcal/Mol)
 Warning -- explicit consideration of   3 degrees of freedom as
           vibrations may cause significant error
 Vibrational temperatures:    212.06   580.73   580.73
          (Kelvin)

 Zero-point correction=                           0.002175 (Hartree/Particle)
 Thermal correction to Energy=                    0.005795
 Thermal correction to Enthalpy=                  0.006739
 Thermal correction to Gibbs Free Energy=        -0.019197
 Sum of electronic and zero-point Energies=           -100.778291
 Sum of electronic and thermal Energies=              -100.774671
 Sum of electronic and thermal Enthalpies=            -100.773727
 Sum of electronic and thermal Free Energies=         -100.799663

                     E (Thermal)             CV                S
                      KCal/Mol        Cal/Mol-Kelvin    Cal/Mol-Kelvin
 Total                    3.636              9.798             54.587
 Electronic               0.000              0.000              1.377
 Translational            0.889              2.981             35.068
 Rotational               0.592              1.987             13.538
 Vibrational              2.155              4.830              4.605
 Vibration     1          0.617              1.906              2.706
 Vibration     2          0.769              1.462              0.949
 Vibration     3          0.769              1.462              0.949

 Normal termination of Gaussian 16 at Fri Aug 22 17:04:43 2025.
