 Gaussian 16, Revision C.01,
 Gaussian 16:  ES64L-G16RevC.01  3-Jul-2019

 -----------------------------------------
 # sp b3lyp/6-311g** Force nosymm scf=(qc)
 -----------------------------------------

 -------------------
 Title Card Required
 -------------------
 Symbolic Z-matrix:
 Charge =  0 Multiplicity = 2

                          Input orientation:
 ---------------------------------------------------------------------
 Center     Atomic      Atomic             Coordinates (Angstroms)
 Number     Number       Type             X           Y           Z
 ---------------------------------------------------------------------
      1          1           0        0.000000    0.000000    0.000000
      2          1           0       -3.000000    0.000000    0.000000
      3          9           0        0.950000    0.000000    0.000000
 ---------------------------------------------------------------------

 SCF Done:  E(UB3LYP) =  -100.971131902     a.u. after    6 cycles

 Alpha  occ. eigenvalues --  -24.64076  -1.17415  -0.52723  -0.39186  -0.39186
 Alpha  occ. eigenvalues --   -0.34155
 Alpha virt. eigenvalues --    0.02232   0.24976   0.36603   0.94248   0.94248
 Alpha virt. eigenvalues --    0.98157   1.22668   1.23376   1.23376   1.32000
 Alpha virt. eigenvalues --    1.36508   1.36508   1.96292   2.14519   2.35105

  Beta  occ. eigenvalues --  -24.64070  -1.17401  -0.52705  -0.39181  -0.39181
  Beta virt. eigenvalues --   -0.07277   0.03403   0.36560   0.38596   0.94249
  Beta virt. eigenvalues --    0.94249   0.98153   1.30186   1.36503   1.36503
  Beta virt. eigenvalues --    1.48678   1.48678   1.49767   1.96441   2.35046

 Mulliken charges and spin densities:
               1          2
     1  H    0.306423   0.001408
     2  H    0.002530   0.996699
     3  F   -0.308953   0.001893
 Sum of Mulliken charges =   0.00000   1.00000

 Dipole moment (field-independent basis, Debye):
    X=             -1.9910    Y=              0.0000    Z=              0.0000  Tot=              1.9910
 Quadrupole moment (field-independent basis, Debye-Ang):
   XX=             -7.9737   YY=             -6.9153   ZZ=             -6.9153
   XY=              0.0000   XZ=              0.0000   YZ=              0.0000

  Exact polarizability:       6.878      -0.000       2.423       0.000      -0.000       2.423
 Approx polarizability:       7.957      -0.000       2.400       0.000       0.000       2.400

 ******    1 imaginary frequencies (negative Signs) ******

                      1                      2                      3
                      A                      A                      A
 Frequencies --    -66.7919               670.5963               670.5963
 Red. masses --      1.0532                 1.0354                 1.0354
 Frc consts  --      0.0028                 0.2743                 0.2743
 IR Inten    --      0.2112               170.0922               170.0922

                      4
                      A
 Frequencies --   3677.3824
 Red. masses --      1.0584
 Frc consts  --      8.4328
 IR Inten    --    104.4421

 - Thermochemistry -
 -------------------
 Temperature   298.150 Kelvin.  Pressure   1.00000 Atm.
 Atom     1 has atomic number  1 and mass   1.00783

 Molecular mass:    21.01405 amu.
 Principal axes and moments of inertia in atomic units:
                           1         2         3
     Eigenvalues --     0.00000  55.25734  55.25734
           X            1.00000  -0.00000   0.00000
           Y            0.00000   1.00000   0.00000
           Z            0.00000   0.00000   1.00000
 This molecule is a prolate symmetric top.
 Rotational symmetry number  1.
 Rotational temperature (Kelvin)      1.56746
 Rotational constant (GHZ):          32.660658
    1 imaginary frequencies ignored.
 Zero-point vibrational energy      30017.7 (Joules/Mol)
                                    7.17441 (Kcal/Mol)
 Vibrational temperatures:    964.84   964.84  5290.93
          (Kelvin)

 Zero-point correction=                           0.011433 (Hartree/Particle)
 Thermal correction to Energy=                    0.014044
 Thermal correction to Enthalpy=                  0.014988
 Thermal correction to Gibbs Free Energy=        -0.008554
 Sum of electronic and zero-point Energies=           -100.959699
 Sum of electronic and thermal Energies=              -100.957088
 Sum of electronic and thermal Enthalpies=            -100.956144
 Sum of electronic and thermal Free Energies=         -100.979686

                     E (Thermal)             CV                S
                      KCal/Mol        Cal/Mol-Kelvin    Cal/Mol-Kelvin
 Total                    8.813              6.741             49.548
 Electronic               0.000              0.000              1.377
 Translational            0.889              2.981             35.068
 Rotational               0.592              1.987             12.416
 Vibrational              7.331              1.773              0.686

 Normal termination of Gaussian 16 at Fri Aug 22 15:58:49 2025.
