 Gaussian 16, Revision C.01,
 Gaussian 16:  ES64L-G16RevC.01  3-Jul-2019

 -----------------------------------------
 # sp b3lyp/6-311g** Force nosymm scf=(qc)
 -----------------------------------------

 -------------------
 Title Card Required
 -------------------
 Symbolic Z-matrix:
 Charge =  0 Multiplicity = 2

                          Input orientation:
 ---------------------------------------------------------------------
 Center     Atomic      Atomic             Coordinates (Angstroms)
 Number     Number       Type             X           Y           Z
 ---------------------------------------------------------------------
      1          1           0        0.000000    0.000000    0.000000
      2          1           0       -0.750000    0.000000    0.000000
      3          9           0        2.350000    0.000000    0.000000
 ---------------------------------------------------------------------

 SCF Done:  E(UB3LYP) =  -100.933953819     a.u. after    6 cycles

 Alpha  occ. eigenvalues --  -24.75849  -1.21780  -0.55170  -0.46167  -0.46167
 Alpha  occ. eigenvalues --   -0.44010
 Alpha virt. eigenvalues --    0.06331   0.20083   0.47018   0.89808   0.90972
 Alpha virt. eigenvalues --    0.90972   1.07654   1.07654   1.13213   1.55275
 Alpha virt. eigenvalues --    1.81494   1.81494   1.96718   2.39199   3.27022

  Beta  occ. eigenvalues --  -24.72739  -1.12857  -0.44025  -0.43054  -0.43054
  Beta virt. eigenvalues --   -0.26112   0.06881   0.20451   0.47251   0.92433
  Beta virt. eigenvalues --    0.92433   0.98156   1.07875   1.07875   1.17430
  Beta virt. eigenvalues --    1.55669   1.81616   1.81616   1.96898   2.39454

 Mulliken charges and spin densities:
               1          2
     1  H   -0.013218  -0.011577
     2  H    0.020886   0.029435
     3  F   -0.007668   0.982141
 Sum of Mulliken charges =   0.00000   1.00000

 Dipole moment (field-independent basis, Debye):
    X=             -0.1668    Y=             -0.0000    Z=              0.0000  Tot=              0.1668
 Quadrupole moment (field-independent basis, Debye-Ang):
   XX=             -5.6673   YY=             -6.9410   ZZ=             -6.9410
   XY=             -0.0000   XZ=              0.0000   YZ=              0.0000

  Exact polarizability:      13.763      -0.000       2.003       0.000      -0.000       2.003
 Approx polarizability:      14.759      -0.000       2.081       0.000      -0.000       2.081

 ******    1 imaginary frequencies (negative Signs) ******

                      1                      2                      3
                      A                      A                      A
 Frequencies --   -134.3002               359.9030               359.9030
 Red. masses --      1.1085                 1.0097                 1.0097
 Frc consts  --      0.0118                 0.0771                 0.0771
 IR Inten    --      5.7895                 0.4742                 0.4742

                      4
                      A
 Frequencies --   4309.4788
 Red. masses --      1.0078
 Frc consts  --     11.0277
 IR Inten    --     59.1972

 - Thermochemistry -
 -------------------
 Temperature   298.150 Kelvin.  Pressure   1.00000 Atm.
 Atom     1 has atomic number  1 and mass   1.00783

 Molecular mass:    21.01405 amu.
 Principal axes and moments of inertia in atomic units:
                           1         2         3
     Eigenvalues --     0.00000  49.33514  49.33514
           X            1.00000  -0.00000   0.00000
           Y            0.00000   1.00000   0.00000
           Z            0.00000   0.00000   1.00000
 This molecule is a prolate symmetric top.
 Rotational symmetry number  1.
 Rotational temperature (Kelvin)      1.75562
 Rotational constant (GHZ):          36.581252
    1 imaginary frequencies ignored.
 Zero-point vibrational energy      30081.8 (Joules/Mol)
                                    7.18972 (Kcal/Mol)
 Warning -- explicit consideration of   2 degrees of freedom as
           vibrations may cause significant error
 Vibrational temperatures:    517.82   517.82  6200.38
          (Kelvin)

 Zero-point correction=                           0.011458 (Hartree/Particle)
 Thermal correction to Energy=                    0.014519
 Thermal correction to Enthalpy=                  0.015463
 Thermal correction to Gibbs Free Energy=        -0.008712
 Sum of electronic and zero-point Energies=           -100.922496
 Sum of electronic and thermal Energies=              -100.919435
 Sum of electronic and thermal Enthalpies=            -100.918491
 Sum of electronic and thermal Free Energies=         -100.942666

                     E (Thermal)             CV                S
                      KCal/Mol        Cal/Mol-Kelvin    Cal/Mol-Kelvin
 Total                    9.111              8.078             50.882
 Electronic               0.000              0.000              1.377
 Translational            0.889              2.981             35.068
 Rotational               0.592              1.987             12.191
 Vibrational              7.630              3.110              2.245
 Vibration     1          0.734              1.555              1.123
 Vibration     2          0.734              1.555              1.123

 Normal termination of Gaussian 16 at Fri Aug 22 17:25:07 2025.
