 Gaussian 16, Revision C.01,
 Gaussian 16:  ES64L-G16RevC.01  3-Jul-2019

 -----------------------------------------
 # sp b3lyp/6-311g** Force nosymm scf=(qc)
 -----------------------------------------

 -------------------
 Title Card Required
 -------------------
 Symbolic Z-matrix:
 Charge =  0 Multiplicity = 2

                          Input orientation:
 ---------------------------------------------------------------------
 Center     Atomic      Atomic             Coordinates (Angstroms)
 Number     Number       Type             X           Y           Z
 ---------------------------------------------------------------------
      1          1           0        0.000000    0.000000    0.000000
      2          1           0       -1.250000    0.000000    0.000000
      3          9           0        2.600000    0.000000    0.000000
 ---------------------------------------------------------------------

 SCF Done:  E(UB3LYP) =  -100.863632477     a.u. after   80 cycles

 Alpha  occ. eigenvalues --  -24.75830  -1.21741  -0.54916  -0.46250  -0.46147
 Alpha  occ. eigenvalues --   -0.36403
 Alpha virt. eigenvalues --   -0.05340   0.23126   0.34053   0.87706   0.91102
 Alpha virt. eigenvalues --    0.92398   1.07444   1.13432   1.13439   1.19395
 Alpha virt. eigenvalues --    1.51202   1.51207   2.02819   2.29933   2.54532

  Beta  occ. eigenvalues --  -24.72731  -1.12850  -0.43178  -0.43043  -0.36206
  Beta virt. eigenvalues --   -0.26093  -0.05006   0.23336   0.34407   0.92571
  Beta virt. eigenvalues --    0.93221   0.97157   1.11096   1.13633   1.13636
  Beta virt. eigenvalues --    1.20136   1.51374   1.51379   2.03069   2.30204

 Mulliken charges and spin densities:
               1          2
     1  H   -0.001265  -0.027414
     2  H    0.010951   0.046954
     3  F   -0.009686   0.980459
 Sum of Mulliken charges =  -0.00000   1.00000

 Dipole moment (field-independent basis, Debye):
    X=             -0.2160    Y=             -0.0006    Z=              0.0029  Tot=              0.2160
 Quadrupole moment (field-independent basis, Debye-Ang):
   XX=             -6.1230   YY=             -7.5176   ZZ=             -7.2108
   XY=             -0.0864   XZ=              0.4034   YZ=             -0.0689

  Exact polarizability:      90.626      -0.230       2.074       0.240      -0.041       2.255
 Approx polarizability:      43.125      -0.016       2.119       0.077      -0.046       2.324

 ******    2 imaginary frequencies (negative Signs) ******

                      1                      2                      3
                      A                      A                      A
 Frequencies --  -1127.4410              -198.1342              1415.4386
 Red. masses --      1.0112                 1.1044                 1.0115
 Frc consts  --      0.7573                 0.0255                 1.1940
 IR Inten    --   1656.6641                34.1543                 2.3588

                      4
                      A
 Frequencies --   1429.9388
 Red. masses --      1.0115
 Frc consts  --      1.2186
 IR Inten    --      1.6749

 - Thermochemistry -
 -------------------
 Temperature   298.150 Kelvin.  Pressure   1.00000 Atm.
 Atom     1 has atomic number  1 and mass   1.00783

 Molecular mass:    21.01405 amu.
 Principal axes and moments of inertia in atomic units:
                           1         2         3
     Eigenvalues --     0.00000  70.49472  70.49472
           X            1.00000  -0.00000   0.00000
           Y            0.00000   1.00000   0.00000
           Z            0.00000   0.00000   1.00000
 This molecule is a prolate symmetric top.
 Rotational symmetry number  1.
 Rotational temperature (Kelvin)      1.22866
 Rotational constant (GHZ):          25.601082
    2 imaginary frequencies ignored.
 Zero-point vibrational energy      17019.1 (Joules/Mol)
                                    4.06767 (Kcal/Mol)
 Vibrational temperatures:   2036.50  2057.36
          (Kelvin)

 Zero-point correction=                           0.006482 (Hartree/Particle)
 Thermal correction to Energy=                    0.008856
 Thermal correction to Enthalpy=                  0.009800
 Thermal correction to Gibbs Free Energy=        -0.013661
 Sum of electronic and zero-point Energies=           -100.857150
 Sum of electronic and thermal Energies=              -100.854776
 Sum of electronic and thermal Enthalpies=            -100.853832
 Sum of electronic and thermal Free Energies=         -100.877293

                     E (Thermal)             CV                S
                      KCal/Mol        Cal/Mol-Kelvin    Cal/Mol-Kelvin
 Total                    5.557              5.164             49.378
 Electronic               0.000              0.000              1.377
 Translational            0.889              2.981             35.068
 Rotational               0.592              1.987             12.900
 Vibrational              4.076              0.196              0.033

 Normal termination of Gaussian 16 at Fri Aug 22 18:02:40 2025.
