 Gaussian 16, Revision C.01,
 Gaussian 16:  ES64L-G16RevC.01  3-Jul-2019

 -----------------------------------------
 # sp b3lyp/6-311g** Force nosymm scf=(qc)
 -----------------------------------------

 -------------------
 Title Card Required
 -------------------
 Symbolic Z-matrix:
 Charge =  0 Multiplicity = 2

                          Input orientation:
 ---------------------------------------------------------------------
 Center     Atomic      Atomic             Coordinates (Angstroms)
 Number     Number       Type             X           Y           Z
 ---------------------------------------------------------------------
      1          1           0        0.000000    0.000000    0.000000
      2          1           0       -1.300000    0.000000    0.000000
      3          9           0        2.600000    0.000000    0.000000
 ---------------------------------------------------------------------

 SCF Done:  E(UB3LYP) =  -100.854876532     a.u. after   49 cycles

 Alpha  occ. eigenvalues --  -24.75266  -1.21237  -0.54415  -0.45725  -0.45684
 Alpha  occ. eigenvalues --   -0.36322
 Alpha virt. eigenvalues --   -0.06731   0.23219   0.33051   0.88782   0.91447
 Alpha virt. eigenvalues --    0.92032   1.07153   1.14276   1.14279   1.16349
 Alpha virt. eigenvalues --    1.48404   1.48406   1.97863   2.27899   2.53150

  Beta  occ. eigenvalues --  -24.72197  -1.12438  -0.42669  -0.42612  -0.36074
  Beta virt. eigenvalues --   -0.25852  -0.06263   0.23522   0.33495   0.92904
  Beta virt. eigenvalues --    0.93126   0.97537   1.10475   1.14564   1.14565
  Beta virt. eigenvalues --    1.17729   1.48654   1.48656   1.98220   2.28310

 Mulliken charges and spin densities:
               1          2
     1  H   -0.000306  -0.051053
     2  H    0.020493   0.080247
     3  F   -0.020187   0.970806
 Sum of Mulliken charges =  -0.00000   1.00000

 Dipole moment (field-independent basis, Debye):
    X=             -0.4010    Y=              0.0000    Z=              0.0024  Tot=              0.4011
 Quadrupole moment (field-independent basis, Debye-Ang):
   XX=             -6.1547   YY=             -7.5681   ZZ=             -7.4396
   XY=              0.0008   XZ=              0.3014   YZ=              0.0003

  Exact polarizability:    -106.030      -0.012       2.064      -1.866       0.000       2.122
 Approx polarizability:      52.542       0.000       2.095       0.051       0.000       2.181

 ******    1 imaginary frequencies (negative Signs) ******

                      1                      2                      3
                      A                      A                      A
 Frequencies --   -600.7323               435.5321              1376.3050
 Red. masses --      1.0280                 1.0849                 1.0117
 Frc consts  --      0.2186                 0.1213                 1.1291
 IR Inten    --   1875.7647              2123.0371                 0.1282

                      4
                      A
 Frequencies --   1382.9152
 Red. masses --      1.0118
 Frc consts  --      1.1401
 IR Inten    --    262.2043

 - Thermochemistry -
 -------------------
 Temperature   298.150 Kelvin.  Pressure   1.00000 Atm.
 Atom     1 has atomic number  1 and mass   1.00783

 Molecular mass:    21.01405 amu.
 Principal axes and moments of inertia in atomic units:
                           1         2         3
     Eigenvalues --     0.00000  71.77758  71.77758
           X            1.00000  -0.00000   0.00000
           Y            0.00000   1.00000   0.00000
           Z            0.00000   0.00000   1.00000
 This molecule is a prolate symmetric top.
 Rotational symmetry number  1.
 Rotational temperature (Kelvin)      1.20670
 Rotational constant (GHZ):          25.143524
    1 imaginary frequencies ignored.
 Zero-point vibrational energy      19108.9 (Joules/Mol)
                                    4.56713 (Kcal/Mol)
 Warning -- explicit consideration of   1 degrees of freedom as
           vibrations may cause significant error
 Vibrational temperatures:    626.63  1980.20  1989.71
          (Kelvin)

 Zero-point correction=                           0.007278 (Hartree/Particle)
 Thermal correction to Energy=                    0.009931
 Thermal correction to Enthalpy=                  0.010875
 Thermal correction to Gibbs Free Energy=        -0.013005
 Sum of electronic and zero-point Energies=           -100.847598
 Sum of electronic and thermal Energies=              -100.844945
 Sum of electronic and thermal Enthalpies=            -100.844001
 Sum of electronic and thermal Free Energies=         -100.867882

                     E (Thermal)             CV                S
                      KCal/Mol        Cal/Mol-Kelvin    Cal/Mol-Kelvin
 Total                    6.232              6.588             50.261
 Electronic               0.000              0.000              1.377
 Translational            0.889              2.981             35.068
 Rotational               0.592              1.987             12.936
 Vibrational              4.751              1.620              0.880
 Vibration     1          0.796              1.393              0.841

 Normal termination of Gaussian 16 at Fri Aug 22 18:02:51 2025.
