 Gaussian 16, Revision C.01,
 Gaussian 16:  ES64L-G16RevC.01  3-Jul-2019

 -----------------------------------------
 # sp b3lyp/6-311g** Force nosymm scf=(qc)
 -----------------------------------------

 -------------------
 Title Card Required
 -------------------
 Symbolic Z-matrix:
 Charge =  0 Multiplicity = 2

                          Input orientation:
 ---------------------------------------------------------------------
 Center     Atomic      Atomic             Coordinates (Angstroms)
 Number     Number       Type             X           Y           Z
 ---------------------------------------------------------------------
      1          1           0        0.000000    0.000000    0.000000
      2          1           0       -2.100000    0.000000    0.000000
      3          9           0        1.250000    0.000000    0.000000
 ---------------------------------------------------------------------

 SCF Done:  E(UB3LYP) =  -100.915582809     a.u. after    6 cycles

 Alpha  occ. eigenvalues --  -24.63813  -1.11294  -0.46941  -0.36841  -0.36841
 Alpha  occ. eigenvalues --   -0.36429
 Alpha virt. eigenvalues --   -0.05221   0.23984   0.28059   0.93498   0.93498
 Alpha virt. eigenvalues --    1.01631   1.13623   1.20919   1.20919   1.34927
 Alpha virt. eigenvalues --    1.34927   1.39752   1.71199   2.11776   2.29697

  Beta  occ. eigenvalues --  -24.63663  -1.10911  -0.46211  -0.36703  -0.36703
  Beta virt. eigenvalues --   -0.14407  -0.01856   0.27848   0.34378   0.93487
  Beta virt. eigenvalues --    0.93487   1.02038   1.20880   1.34259   1.34259
  Beta virt. eigenvalues --    1.40549   1.40549   1.50908   1.71483   2.25107

 Mulliken charges and spin densities:
               1          2
     1  H    0.338022  -0.011687
     2  H    0.024887   0.966170
     3  F   -0.362909   0.045518
 Sum of Mulliken charges =  -0.00000   1.00000

 Dipole moment (field-independent basis, Debye):
    X=             -2.6264    Y=              0.0000    Z=             -0.0000  Tot=              2.6264
 Quadrupole moment (field-independent basis, Debye-Ang):
   XX=             -8.4266   YY=             -7.1369   ZZ=             -7.1369
   XY=              0.0000   XZ=             -0.0000   YZ=              0.0000

  Exact polarizability:      16.502       0.000       2.347      -0.000      -0.000       2.347
 Approx polarizability:      21.177      -0.000       2.304      -0.000      -0.000       2.304

 ******    1 imaginary frequencies (negative Signs) ******

                      1                      2                      3
                      A                      A                      A
 Frequencies --   -644.6578               277.2286              1147.7246
 Red. masses --      1.0113                 1.1043                 1.0253
 Frc consts  --      0.2476                 0.0500                 0.7957
 IR Inten    --    169.5890                33.5960               108.2231

                      4
                      A
 Frequencies --   1147.7246
 Red. masses --      1.0253
 Frc consts  --      0.7957
 IR Inten    --    108.2231

 - Thermochemistry -
 -------------------
 Temperature   298.150 Kelvin.  Pressure   1.00000 Atm.
 Atom     1 has atomic number  1 and mass   1.00783

 Molecular mass:    21.01405 amu.
 Principal axes and moments of inertia in atomic units:
                           1         2         3
     Eigenvalues --     0.00000  42.36096  42.36096
           X            1.00000  -0.00000   0.00000
           Y            0.00000   1.00000   0.00000
           Z            0.00000   0.00000   1.00000
 This molecule is a prolate symmetric top.
 Rotational symmetry number  1.
 Rotational temperature (Kelvin)      2.04466
 Rotational constant (GHZ):          42.603877
    1 imaginary frequencies ignored.
 Zero-point vibrational energy      15388.0 (Joules/Mol)
                                    3.67783 (Kcal/Mol)
 Warning -- explicit consideration of   1 degrees of freedom as
           vibrations may cause significant error
 Vibrational temperatures:    398.87  1651.32  1651.32
          (Kelvin)

 Zero-point correction=                           0.005861 (Hartree/Particle)
 Thermal correction to Energy=                    0.008712
 Thermal correction to Enthalpy=                  0.009656
 Thermal correction to Gibbs Free Energy=        -0.014094
 Sum of electronic and zero-point Energies=           -100.909722
 Sum of electronic and thermal Energies=              -100.906871
 Sum of electronic and thermal Enthalpies=            -100.905926
 Sum of electronic and thermal Free Energies=         -100.929677

                     E (Thermal)             CV                S
                      KCal/Mol        Cal/Mol-Kelvin    Cal/Mol-Kelvin
 Total                    5.467              7.167             49.987
 Electronic               0.000              0.000              1.377
 Translational            0.889              2.981             35.068
 Rotational               0.592              1.987             11.888
 Vibrational              3.986              2.199              1.653
 Vibration     1          0.678              1.716              1.551

 Normal termination of Gaussian 16 at Fri Aug 22 16:12:40 2025.
