 Gaussian 16, Revision C.01,
 Gaussian 16:  ES64L-G16RevC.01  3-Jul-2019

 -----------------------------------------
 # sp b3lyp/6-311g** Force nosymm scf=(qc)
 -----------------------------------------

 -------------------
 Title Card Required
 -------------------
 Symbolic Z-matrix:
 Charge =  0 Multiplicity = 2

                          Input orientation:
 ---------------------------------------------------------------------
 Center     Atomic      Atomic             Coordinates (Angstroms)
 Number     Number       Type             X           Y           Z
 ---------------------------------------------------------------------
      1          1           0        0.000000    0.000000    0.000000
      2          1           0       -2.350000    0.000000    0.000000
      3          9           0        3.650000    0.000000    0.000000
 ---------------------------------------------------------------------

 SCF Done:  E(UB3LYP) =  -100.764737862     a.u. after   28 cycles

 Alpha  occ. eigenvalues --  -24.75678  -1.21619  -0.54801  -0.46014  -0.46014
 Alpha  occ. eigenvalues --   -0.32709
 Alpha virt. eigenvalues --   -0.09884   0.25863   0.34001   0.87166   0.91293
 Alpha virt. eigenvalues --    0.91293   1.01439   1.25022   1.25022   1.25889
 Alpha virt. eigenvalues --    1.40504   1.40504   1.43622   2.15163   2.35848

  Beta  occ. eigenvalues --  -24.72547  -1.12620  -0.42876  -0.42876  -0.32892
  Beta virt. eigenvalues --   -0.25650  -0.09564   0.25686   0.34483   0.92787
  Beta virt. eigenvalues --    0.92787   0.96427   1.05522   1.24807   1.24807
  Beta virt. eigenvalues --    1.25656   1.40981   1.40981   1.44068   2.15543

 Mulliken charges and spin densities:
               1          2
     1  H    0.004162  -0.945281
     2  H    0.002375   0.952716
     3  F   -0.006537   0.992565
 Sum of Mulliken charges =   0.00000   1.00000

 Dipole moment (field-independent basis, Debye):
    X=             -0.1490    Y=              0.0000    Z=              0.0000  Tot=              0.1490
 Quadrupole moment (field-independent basis, Debye-Ang):
   XX=             -6.8288   YY=             -7.6813   ZZ=             -7.6813
   XY=              0.0000   XZ=              0.0000   YZ=              0.0000

  Exact polarizability:      31.366      -0.000       2.013      -0.000      -0.000       2.013
 Approx polarizability:      23.699       0.000       1.930       0.000       0.000       1.930

 ******    2 imaginary frequencies (negative Signs) ******

                      1                      2                      3
                      A                      A                      A
 Frequencies --   -823.8548              -115.3302               310.5694
 Red. masses --      1.0079                 1.1085                 1.0135
 Frc consts  --      0.4030                 0.0087                 0.0576
 IR Inten    --      3.3244                 3.5743                 0.0102

                      4
                      A
 Frequencies --    310.5694
 Red. masses --      1.0135
 Frc consts  --      0.0576
 IR Inten    --      0.0102

 - Thermochemistry -
 -------------------
 Temperature   298.150 Kelvin.  Pressure   1.00000 Atm.
 Atom     1 has atomic number  1 and mass   1.00783

 Molecular mass:    21.01405 amu.
 Principal axes and moments of inertia in atomic units:
                           1         2         3
     Eigenvalues --     0.00000 161.43851 161.43851
           X            1.00000  -0.00000   0.00000
           Y            0.00000   1.00000   0.00000
           Z            0.00000   0.00000   1.00000
 This molecule is a prolate symmetric top.
 Rotational symmetry number  1.
 Rotational temperature (Kelvin)      0.53651
 Rotational constant (GHZ):          11.179124
    2 imaginary frequencies ignored.
 Zero-point vibrational energy       3715.2 (Joules/Mol)
                                    0.88796 (Kcal/Mol)
 Warning -- explicit consideration of   2 degrees of freedom as
           vibrations may cause significant error
 Vibrational temperatures:    446.84   446.84
          (Kelvin)

 Zero-point correction=                           0.001415 (Hartree/Particle)
 Thermal correction to Energy=                    0.004590
 Thermal correction to Enthalpy=                  0.005534
 Thermal correction to Gibbs Free Energy=        -0.019986
 Sum of electronic and zero-point Energies=           -100.763323
 Sum of electronic and thermal Energies=              -100.760148
 Sum of electronic and thermal Enthalpies=            -100.759204
 Sum of electronic and thermal Free Energies=         -100.784724

                     E (Thermal)             CV                S
                      KCal/Mol        Cal/Mol-Kelvin    Cal/Mol-Kelvin
 Total                    2.880              8.275             53.711
 Electronic               0.000              0.000              1.377
 Translational            0.889              2.981             35.068
 Rotational               0.592              1.987             14.547
 Vibrational              1.399              3.307              2.719
 Vibration     1          0.699              1.654              1.359
 Vibration     2          0.699              1.654              1.359

 Normal termination of Gaussian 16 at Fri Aug 22 23:36:19 2025.
