 Gaussian 16, Revision C.01,
 Gaussian 16:  ES64L-G16RevC.01  3-Jul-2019

 -----------------------------------------
 # sp b3lyp/6-311g** Force nosymm scf=(qc)
 -----------------------------------------

 -------------------
 Title Card Required
 -------------------
 Symbolic Z-matrix:
 Charge =  0 Multiplicity = 2

                          Input orientation:
 ---------------------------------------------------------------------
 Center     Atomic      Atomic             Coordinates (Angstroms)
 Number     Number       Type             X           Y           Z
 ---------------------------------------------------------------------
      1          1           0        0.000000    0.000000    0.000000
      2          1           0       -1.200000    0.000000    0.000000
      3          9           0        0.900000    0.000000    0.000000
 ---------------------------------------------------------------------

 SCF Done:  E(UB3LYP) =  -100.963675273     a.u. after    6 cycles

 Alpha  occ. eigenvalues --  -24.63982  -1.19599  -0.57069  -0.39780  -0.39780
 Alpha  occ. eigenvalues --   -0.36540
 Alpha virt. eigenvalues --    0.13014   0.19536   0.44391   0.92547   0.92547
 Alpha virt. eigenvalues --    0.97179   1.10140   1.10140   1.37450   1.52489
 Alpha virt. eigenvalues --    1.52489   1.59243   2.13394   2.26720   2.91147

  Beta  occ. eigenvalues --  -24.63521  -1.18420  -0.54010  -0.39380  -0.39380
  Beta virt. eigenvalues --   -0.16358   0.14649   0.24285   0.49548   0.93414
  Beta virt. eigenvalues --    0.93414   0.98115   1.18164   1.18164   1.41735
  Beta virt. eigenvalues --    1.58104   1.58104   1.66361   2.16315   2.41064

 Mulliken charges and spin densities:
               1          2
     1  H    0.272150  -0.001966
     2  H    0.021207   0.892643
     3  F   -0.293357   0.109323
 Sum of Mulliken charges =   0.00000   1.00000

 Dipole moment (field-independent basis, Debye):
    X=             -1.9625    Y=              0.0000    Z=              0.0000  Tot=              1.9625
 Quadrupole moment (field-independent basis, Debye-Ang):
   XX=             -7.5365   YY=             -6.6836   ZZ=             -6.6836
   XY=              0.0000   XZ=              0.0000   YZ=             -0.0000

  Exact polarizability:      11.678       0.000       2.575      -0.000       0.000       2.575
 Approx polarizability:      12.466       0.000       2.595       0.000       0.000       2.595

 ******    2 imaginary frequencies (negative Signs) ******

                      1                      2                      3
                      A                      A                      A
 Frequencies --   -968.9671              -968.9671              1045.5604
 Red. masses --      1.0218                 1.0218                 1.0504
 Frc consts  --      0.5652                 0.5652                 0.6766
 IR Inten    --     92.9639                92.9639                19.2064

                      4
                      A
 Frequencies --   4148.1102
 Red. masses --      1.0612
 Frc consts  --     10.7581
 IR Inten    --    117.1106

 - Thermochemistry -
 -------------------
 Temperature   298.150 Kelvin.  Pressure   1.00000 Atm.
 Atom     1 has atomic number  1 and mass   1.00783

 Molecular mass:    21.01405 amu.
 Principal axes and moments of inertia in atomic units:
                           1         2         3
     Eigenvalues --     0.00000  17.23336  17.23336
           X            1.00000  -0.00000   0.00000
           Y            0.00000   1.00000   0.00000
           Z            0.00000   0.00000   1.00000
 This molecule is a prolate symmetric top.
 Rotational symmetry number  1.
 Rotational temperature (Kelvin)      5.02594
 Rotational constant (GHZ):         104.723685
    2 imaginary frequencies ignored.
 Zero-point vibrational energy      31065.0 (Joules/Mol)
                                    7.42472 (Kcal/Mol)
 Vibrational temperatures:   1504.33  5968.21
          (Kelvin)

 Zero-point correction=                           0.011832 (Hartree/Particle)
 Thermal correction to Energy=                    0.014223
 Thermal correction to Enthalpy=                  0.015168
 Thermal correction to Gibbs Free Energy=        -0.006985
 Sum of electronic and zero-point Energies=           -100.951843
 Sum of electronic and thermal Energies=              -100.949452
 Sum of electronic and thermal Enthalpies=            -100.948508
 Sum of electronic and thermal Free Energies=         -100.970660

                     E (Thermal)             CV                S
                      KCal/Mol        Cal/Mol-Kelvin    Cal/Mol-Kelvin
 Total                    8.925              5.298             46.624
 Electronic               0.000              0.000              1.377
 Translational            0.889              2.981             35.068
 Rotational               0.592              1.987             10.101
 Vibrational              7.444              0.330              0.078

 Normal termination of Gaussian 16 at Fri Aug 22 15:55:16 2025.
