 Gaussian 16, Revision C.01,
 Gaussian 16:  ES64L-G16RevC.01  3-Jul-2019

 -----------------------------------------
 # sp b3lyp/6-311g** Force nosymm scf=(qc)
 -----------------------------------------

 -------------------
 Title Card Required
 -------------------
 Symbolic Z-matrix:
 Charge =  0 Multiplicity = 2

                          Input orientation:
 ---------------------------------------------------------------------
 Center     Atomic      Atomic             Coordinates (Angstroms)
 Number     Number       Type             X           Y           Z
 ---------------------------------------------------------------------
      1          1           0        0.000000    0.000000    0.000000
      2          1           0       -3.100000    0.000000    0.000000
      3          9           0        1.000000    0.000000    0.000000
 ---------------------------------------------------------------------

 SCF Done:  E(UB3LYP) =  -100.966232753     a.u. after    6 cycles

 Alpha  occ. eigenvalues --  -24.64162  -1.16039  -0.51641  -0.38784  -0.38784
 Alpha  occ. eigenvalues --   -0.34091
 Alpha virt. eigenvalues --    0.00771   0.24603   0.34332   0.94057   0.94057
 Alpha virt. eigenvalues --    0.98590   1.23048   1.23435   1.23435   1.31010
 Alpha virt. eigenvalues --    1.35948   1.35948   1.90486   2.14391   2.34100

  Beta  occ. eigenvalues --  -24.64158  -1.16026  -0.51625  -0.38779  -0.38779
  Beta virt. eigenvalues --   -0.07184   0.01879   0.33975   0.38646   0.94058
  Beta virt. eigenvalues --    0.94058   0.98591   1.29994   1.35943   1.35943
  Beta virt. eigenvalues --    1.48661   1.48661   1.49367   1.90584   2.34065

 Mulliken charges and spin densities:
               1          2
     1  H    0.318795   0.001100
     2  H    0.002236   0.997191
     3  F   -0.321030   0.001709
 Sum of Mulliken charges =   0.00000   1.00000

 Dipole moment (field-independent basis, Debye):
    X=             -2.0568    Y=             -0.0000    Z=              0.0000  Tot=              2.0568
 Quadrupole moment (field-independent basis, Debye-Ang):
   XX=             -8.1490   YY=             -6.9615   ZZ=             -6.9615
   XY=             -0.0000   XZ=              0.0000   YZ=              0.0000

  Exact polarizability:       7.309      -0.000       2.405       0.000      -0.000       2.405
 Approx polarizability:       8.746       0.000       2.379      -0.000      -0.000       2.379

 ******    1 imaginary frequencies (negative Signs) ******

                      1                      2                      3
                      A                      A                      A
 Frequencies --    -69.7468               978.2695               978.2695
 Red. masses --      1.0532                 1.0351                 1.0351
 Frc consts  --      0.0030                 0.5836                 0.5836
 IR Inten    --      0.1901               165.1269               165.1269

                      4
                      A
 Frequencies --   3024.6078
 Red. masses --      1.0584
 Frc consts  --      5.7048
 IR Inten    --     97.1316

 - Thermochemistry -
 -------------------
 Temperature   298.150 Kelvin.  Pressure   1.00000 Atm.
 Atom     1 has atomic number  1 and mass   1.00783

 Molecular mass:    21.01405 amu.
 Principal axes and moments of inertia in atomic units:
                           1         2         3
     Eigenvalues --     0.00000  59.60884  59.60884
           X            1.00000  -0.00000   0.00000
           Y            0.00000   1.00000   0.00000
           Z            0.00000   0.00000   1.00000
 This molecule is a prolate symmetric top.
 Rotational symmetry number  1.
 Rotational temperature (Kelvin)      1.45304
 Rotational constant (GHZ):          30.276404
    1 imaginary frequencies ignored.
 Zero-point vibrational energy      29793.9 (Joules/Mol)
                                    7.12091 (Kcal/Mol)
 Vibrational temperatures:   1407.51  1407.51  4351.74
          (Kelvin)

 Zero-point correction=                           0.011348 (Hartree/Particle)
 Thermal correction to Energy=                    0.013788
 Thermal correction to Enthalpy=                  0.014733
 Thermal correction to Gibbs Free Energy=        -0.008652
 Sum of electronic and zero-point Energies=           -100.954885
 Sum of electronic and thermal Energies=              -100.952444
 Sum of electronic and thermal Enthalpies=            -100.951500
 Sum of electronic and thermal Free Energies=         -100.974884

                     E (Thermal)             CV                S
                      KCal/Mol        Cal/Mol-Kelvin    Cal/Mol-Kelvin
 Total                    8.652              5.771             49.217
 Electronic               0.000              0.000              1.377
 Translational            0.889              2.981             35.068
 Rotational               0.592              1.987             12.567
 Vibrational              7.171              0.803              0.204

 Normal termination of Gaussian 16 at Fri Aug 22 16:01:17 2025.
