 Gaussian 16, Revision C.01,
 Gaussian 16:  ES64L-G16RevC.01  3-Jul-2019

 -----------------------------------------
 # sp b3lyp/6-311g** Force nosymm scf=(qc)
 -----------------------------------------

 -------------------
 Title Card Required
 -------------------
 Symbolic Z-matrix:
 Charge =  0 Multiplicity = 2

                          Input orientation:
 ---------------------------------------------------------------------
 Center     Atomic      Atomic             Coordinates (Angstroms)
 Number     Number       Type             X           Y           Z
 ---------------------------------------------------------------------
      1          1           0        0.000000    0.000000    0.000000
      2          1           0       -2.550000    0.000000    0.000000
      3          9           0        3.900000    0.000000    0.000000
 ---------------------------------------------------------------------

 SCF Done:  E(UB3LYP) =  -100.762039916     a.u. after   37 cycles

 Alpha  occ. eigenvalues --  -24.75859  -1.21788  -0.54984  -0.46167  -0.46167
 Alpha  occ. eigenvalues --   -0.32513
 Alpha virt. eigenvalues --   -0.09040   0.25734   0.34943   0.86677   0.91180
 Alpha virt. eigenvalues --    0.91180   1.01134   1.25119   1.25119   1.26657
 Alpha virt. eigenvalues --    1.42100   1.42100   1.43387   2.15984   2.37139

  Beta  occ. eigenvalues --  -24.72716  -1.12751  -0.43016  -0.43016  -0.32667
  Beta virt. eigenvalues --   -0.25731  -0.08814   0.25571   0.35248   0.92678
  Beta virt. eigenvalues --    0.92678   0.96039   1.05256   1.24950   1.24950
  Beta virt. eigenvalues --    1.26466   1.42427   1.42427   1.43710   2.16100

 Mulliken charges and spin densities:
               1          2
     1  H    0.002133  -0.970225
     2  H    0.000920   0.973697
     3  F   -0.003052   0.996529
 Sum of Mulliken charges =   0.00000   1.00000

 Dipole moment (field-independent basis, Debye):
    X=             -0.0725    Y=             -0.0000    Z=             -0.0000  Tot=              0.0725
 Quadrupole moment (field-independent basis, Debye-Ang):
   XX=             -6.7520   YY=             -7.6629   ZZ=             -7.6629
   XY=             -0.0000   XZ=              0.0000   YZ=             -0.0000

  Exact polarizability:      20.407       0.000       2.021       0.000       0.000       2.021
 Approx polarizability:      15.428      -0.000       1.931       0.000       0.000       1.931

 ******    2 imaginary frequencies (negative Signs) ******

                      1                      2                      3
                      A                      A                      A
 Frequencies --   -614.9009               -80.0174               226.8119
 Red. masses --      1.0079                 1.1085                 1.0136
 Frc consts  --      0.2245                 0.0042                 0.0307
 IR Inten    --      0.8903                 1.0300                 0.0030

                      4
                      A
 Frequencies --    226.8119
 Red. masses --      1.0136
 Frc consts  --      0.0307
 IR Inten    --      0.0030

 - Thermochemistry -
 -------------------
 Temperature   298.150 Kelvin.  Pressure   1.00000 Atm.
 Atom     1 has atomic number  1 and mass   1.00783

 Molecular mass:    21.01405 amu.
 Principal axes and moments of inertia in atomic units:
                           1         2         3
     Eigenvalues --     0.00000 185.97859 185.97859
           X            1.00000  -0.00000   0.00000
           Y            0.00000   1.00000   0.00000
           Z            0.00000   0.00000   1.00000
 This molecule is a prolate symmetric top.
 Rotational symmetry number  1.
 Rotational temperature (Kelvin)      0.46572
 Rotational constant (GHZ):           9.704027
    2 imaginary frequencies ignored.
 Zero-point vibrational energy       2713.3 (Joules/Mol)
                                    0.64849 (Kcal/Mol)
 Warning -- explicit consideration of   2 degrees of freedom as
           vibrations may cause significant error
 Vibrational temperatures:    326.33   326.33
          (Kelvin)

 Zero-point correction=                           0.001033 (Hartree/Particle)
 Thermal correction to Energy=                    0.004434
 Thermal correction to Enthalpy=                  0.005378
 Thermal correction to Gibbs Free Energy=        -0.020793
 Sum of electronic and zero-point Energies=           -100.761006
 Sum of electronic and thermal Energies=              -100.757606
 Sum of electronic and thermal Enthalpies=            -100.756662
 Sum of electronic and thermal Free Energies=         -100.782833

                     E (Thermal)             CV                S
                      KCal/Mol        Cal/Mol-Kelvin    Cal/Mol-Kelvin
 Total                    2.782              8.568             55.082
 Electronic               0.000              0.000              1.377
 Translational            0.889              2.981             35.068
 Rotational               0.592              1.987             14.828
 Vibrational              1.301              3.600              3.808
 Vibration     1          0.650              1.800              1.904
 Vibration     2          0.650              1.800              1.904

 Normal termination of Gaussian 16 at Sat Aug 23 01:25:26 2025.
