 Gaussian 16, Revision C.01,
 Gaussian 16:  ES64L-G16RevC.01  3-Jul-2019

 -----------------------------------------
 # sp b3lyp/6-311g** Force nosymm scf=(qc)
 -----------------------------------------

 -------------------
 Title Card Required
 -------------------
 Symbolic Z-matrix:
 Charge =  0 Multiplicity = 2

                          Input orientation:
 ---------------------------------------------------------------------
 Center     Atomic      Atomic             Coordinates (Angstroms)
 Number     Number       Type             X           Y           Z
 ---------------------------------------------------------------------
      1          1           0        0.000000    0.000000    0.000000
      2          1           0       -3.150000    0.000000    0.000000
      3          9           0        1.650000    0.000000    0.000000
 ---------------------------------------------------------------------

 SCF Done:  E(UB3LYP) =  -100.825518021     a.u. after   13 cycles

 Alpha  occ. eigenvalues --  -24.65285  -1.11145  -0.43864  -0.37168  -0.37168
 Alpha  occ. eigenvalues --   -0.34336
 Alpha virt. eigenvalues --   -0.15190   0.21420   0.28811   0.94410   0.94410
 Alpha virt. eigenvalues --    0.98408   1.06641   1.23192   1.23192   1.23547
 Alpha virt. eigenvalues --    1.32707   1.32707   1.74145   2.13725   2.22489

  Beta  occ. eigenvalues --  -24.64066  -1.07847  -0.40726  -0.35993  -0.35993
  Beta virt. eigenvalues --   -0.17868  -0.07749   0.22485   0.37249   0.94091
  Beta virt. eigenvalues --    0.94091   0.99203   1.07552   1.26396   1.26396
  Beta virt. eigenvalues --    1.44475   1.44896   1.44896   1.71229   2.13467

 Mulliken charges and spin densities:
               1          2
     1  H    0.307483  -0.378788
     2  H    0.004963   0.994136
     3  F   -0.312446   0.384652
 Sum of Mulliken charges =   0.00000   1.00000

 Dipole moment (field-independent basis, Debye):
    X=             -2.5883    Y=             -0.0000    Z=             -0.0000  Tot=              2.5883
 Quadrupole moment (field-independent basis, Debye-Ang):
   XX=            -10.0212   YY=             -7.3939   ZZ=             -7.3939
   XY=             -0.0000   XZ=             -0.0000   YZ=              0.0000

  Exact polarizability:      22.792       0.000       2.135      -0.000       0.000       2.135
 Approx polarizability:      36.513       0.000       2.040       0.000      -0.000       2.040

 ******    2 imaginary frequencies (negative Signs) ******

                      1                      2                      3
                      A                      A                      A
 Frequencies --  -1830.3819              -160.8063               833.3496
 Red. masses --      1.0569                 1.0547                 1.0273
 Frc consts  --      2.0862                 0.0161                 0.4203
 IR Inten    --     83.7189                 1.2808                86.6917

                      4
                      A
 Frequencies --    833.3496
 Red. masses --      1.0273
 Frc consts  --      0.4203
 IR Inten    --     86.6917

 - Thermochemistry -
 -------------------
 Temperature   298.150 Kelvin.  Pressure   1.00000 Atm.
 Atom     1 has atomic number  1 and mass   1.00783

 Molecular mass:    21.01405 amu.
 Principal axes and moments of inertia in atomic units:
                           1         2         3
     Eigenvalues --     0.00000  85.53858  85.53858
           X            1.00000  -0.00000   0.00000
           Y            0.00000   1.00000   0.00000
           Z            0.00000   0.00000   1.00000
 This molecule is a prolate symmetric top.
 Rotational symmetry number  1.
 Rotational temperature (Kelvin)      1.01257
 Rotational constant (GHZ):          21.098564
    2 imaginary frequencies ignored.
 Zero-point vibrational energy       9969.1 (Joules/Mol)
                                    2.38267 (Kcal/Mol)
 Vibrational temperatures:   1199.00  1199.00
          (Kelvin)

 Zero-point correction=                           0.003797 (Hartree/Particle)
 Thermal correction to Energy=                    0.006296
 Thermal correction to Enthalpy=                  0.007240
 Thermal correction to Gibbs Free Energy=        -0.016561
 Sum of electronic and zero-point Energies=           -100.821721
 Sum of electronic and thermal Energies=              -100.819222
 Sum of electronic and thermal Enthalpies=            -100.818278
 Sum of electronic and thermal Free Energies=         -100.842079

                     E (Thermal)             CV                S
                      KCal/Mol        Cal/Mol-Kelvin    Cal/Mol-Kelvin
 Total                    3.951              6.163             50.094
 Electronic               0.000              0.000              1.377
 Translational            0.889              2.981             35.068
 Rotational               0.592              1.987             13.285
 Vibrational              2.470              1.195              0.364

 Normal termination of Gaussian 16 at Fri Aug 22 16:35:22 2025.
