 Gaussian 16, Revision C.01,
 Gaussian 16:  ES64L-G16RevC.01  3-Jul-2019

 -----------------------------------------
 # sp b3lyp/6-311g** Force nosymm scf=(qc)
 -----------------------------------------

 -------------------
 Title Card Required
 -------------------
 Symbolic Z-matrix:
 Charge =  0 Multiplicity = 2

                          Input orientation:
 ---------------------------------------------------------------------
 Center     Atomic      Atomic             Coordinates (Angstroms)
 Number     Number       Type             X           Y           Z
 ---------------------------------------------------------------------
      1          1           0        0.000000    0.000000    0.000000
      2          1           0       -0.950000    0.000000    0.000000
      3          9           0        0.600000    0.000000    0.000000
 ---------------------------------------------------------------------

 SCF Done:  E(UB3LYP) =  -100.630375321     a.u. after    7 cycles

 Alpha  occ. eigenvalues --  -24.65231  -1.38937  -0.66330  -0.45421  -0.45421
 Alpha  occ. eigenvalues --   -0.33056
 Alpha virt. eigenvalues --    0.16540   0.19952   0.79254   0.87317   0.87317
 Alpha virt. eigenvalues --    0.90670   1.10001   1.10001   1.49028   1.72571
 Alpha virt. eigenvalues --    1.76829   1.76829   2.23399   2.43085   3.75481

  Beta  occ. eigenvalues --  -24.64813  -1.37565  -0.64236  -0.45090  -0.45090
  Beta virt. eigenvalues --   -0.11780   0.17247   0.26696   0.83770   0.88671
  Beta virt. eigenvalues --    0.88671   0.92618   1.17756   1.17756   1.49901
  Beta virt. eigenvalues --    1.78649   1.82605   1.82605   2.34816   2.55750

 Mulliken charges and spin densities:
               1          2
     1  H    0.252540  -0.011393
     2  H   -0.045071   0.966599
     3  F   -0.207469   0.044794
 Sum of Mulliken charges =   0.00000   1.00000

 Dipole moment (field-independent basis, Debye):
    X=             -0.9522    Y=              0.0000    Z=              0.0000  Tot=              0.9522
 Quadrupole moment (field-independent basis, Debye-Ang):
   XX=             -7.2958   YY=             -6.4128   ZZ=             -6.4128
   XY=              0.0000   XZ=              0.0000   YZ=              0.0000

  Exact polarizability:       6.979      -0.000       2.510       0.000      -0.000       2.510
 Approx polarizability:       6.729      -0.000       2.576      -0.000      -0.000       2.576

 ******    2 imaginary frequencies (negative Signs) ******

                      1                      2                      3
                      A                      A                      A
 Frequencies --  -5766.2760             -5766.2760              2410.7276
 Red. masses --      1.0243                 1.0243                 1.0551
 Frc consts  --     20.0673                20.0673                 3.6126
 IR Inten    --    148.6665               148.6665               117.0013

                      4
                      A
 Frequencies --  13081.2936
 Red. masses --      1.0565
 Frc consts  --    106.5166
 IR Inten    --     46.3915

 - Thermochemistry -
 -------------------
 Temperature   298.150 Kelvin.  Pressure   1.00000 Atm.
 Atom     1 has atomic number  1 and mass   1.00783

 Molecular mass:    21.01405 amu.
 Principal axes and moments of inertia in atomic units:
                           1         2         3
     Eigenvalues --     0.00000   9.14439   9.14439
           X            1.00000  -0.00000   0.00000
           Y            0.00000   1.00000   0.00000
           Z            0.00000   0.00000   1.00000
 This molecule is a prolate symmetric top.
 Rotational symmetry number  1.
 Rotational temperature (Kelvin)      9.47181
 Rotational constant (GHZ):         197.360575
    2 imaginary frequencies ignored.
 Zero-point vibrational energy      92662.9 (Joules/Mol)
                                   22.14696 (Kcal/Mol)
 Vibrational temperatures:   3468.50 18821.06
          (Kelvin)

 Zero-point correction=                           0.035293 (Hartree/Particle)
 Thermal correction to Energy=                    0.037654
 Thermal correction to Enthalpy=                  0.038598
 Thermal correction to Gibbs Free Energy=         0.017081
 Sum of electronic and zero-point Energies=           -100.595082
 Sum of electronic and thermal Energies=              -100.592721
 Sum of electronic and thermal Enthalpies=            -100.591777
 Sum of electronic and thermal Free Energies=         -100.613295

                     E (Thermal)             CV                S
                      KCal/Mol        Cal/Mol-Kelvin    Cal/Mol-Kelvin
 Total                   23.628              4.970             45.287
 Electronic               0.000              0.000              1.377
 Translational            0.889              2.981             35.068
 Rotational               0.592              1.987              8.842
 Vibrational             22.147              0.002              0.000

 Normal termination of Gaussian 16 at Fri Aug 22 15:40:58 2025.
