 Gaussian 16, Revision C.01,
 Gaussian 16:  ES64L-G16RevC.01  3-Jul-2019

 -----------------------------------------
 # sp b3lyp/6-311g** Force nosymm scf=(qc)
 -----------------------------------------

 -------------------
 Title Card Required
 -------------------
 Symbolic Z-matrix:
 Charge =  0 Multiplicity = 2

                          Input orientation:
 ---------------------------------------------------------------------
 Center     Atomic      Atomic             Coordinates (Angstroms)
 Number     Number       Type             X           Y           Z
 ---------------------------------------------------------------------
      1          1           0        0.000000    0.000000    0.000000
      2          1           0       -2.250000    0.000000    0.000000
      3          9           0        3.850000    0.000000    0.000000
 ---------------------------------------------------------------------

 SCF Done:  E(UB3LYP) =  -100.766441678     a.u. after   47 cycles

 Alpha  occ. eigenvalues --  -24.75862  -1.21792  -0.54988  -0.46172  -0.46172
 Alpha  occ. eigenvalues --   -0.32713
 Alpha virt. eigenvalues --   -0.10081   0.25973   0.33813   0.86740   0.91173
 Alpha virt. eigenvalues --    0.91173   1.01157   1.24613   1.25091   1.25091
 Alpha virt. eigenvalues --    1.39959   1.39959   1.44804   2.14565   2.35442

  Beta  occ. eigenvalues --  -24.72721  -1.12757  -0.43022  -0.43022  -0.32821
  Beta virt. eigenvalues --   -0.25745  -0.09887   0.25820   0.34103   0.92671
  Beta virt. eigenvalues --    0.92671   0.96089   1.05275   1.24511   1.24970
  Beta virt. eigenvalues --    1.24970   1.40232   1.40232   1.45033   2.14769

 Mulliken charges and spin densities:
               1          2
     1  H    0.001310  -0.931572
     2  H    0.001963   0.935363
     3  F   -0.003273   0.996209
 Sum of Mulliken charges =   0.00000   1.00000

 Dipole moment (field-independent basis, Debye):
    X=             -0.0855    Y=             -0.0000    Z=             -0.0000  Tot=              0.0855
 Quadrupole moment (field-independent basis, Debye-Ang):
   XX=             -6.5894   YY=             -7.6938   ZZ=             -7.6938
   XY=             -0.0000   XZ=             -0.0000   YZ=             -0.0000

  Exact polarizability:      27.282      -0.000       2.014      -0.000      -0.000       2.014
 Approx polarizability:      22.015      -0.000       1.931      -0.000       0.000       1.931

 ******    2 imaginary frequencies (negative Signs) ******

                      1                      2                      3
                      A                      A                      A
 Frequencies --   -948.6283               -86.4936               365.3062
 Red. masses --      1.0078                 1.1085                 1.0127
 Frc consts  --      0.5344                 0.0049                 0.0796
 IR Inten    --      1.2555                 1.3690                 0.0003

                      4
                      A
 Frequencies --    365.3062
 Red. masses --      1.0127
 Frc consts  --      0.0796
 IR Inten    --      0.0003

 - Thermochemistry -
 -------------------
 Temperature   298.150 Kelvin.  Pressure   1.00000 Atm.
 Atom     1 has atomic number  1 and mass   1.00783

 Molecular mass:    21.01405 amu.
 Principal axes and moments of inertia in atomic units:
                           1         2         3
     Eigenvalues --     0.00000 170.17690 170.17690
           X            1.00000  -0.00000   0.00000
           Y            0.00000   1.00000   0.00000
           Z            0.00000   0.00000   1.00000
 This molecule is a prolate symmetric top.
 Rotational symmetry number  1.
 Rotational temperature (Kelvin)      0.50896
 Rotational constant (GHZ):          10.605089
    2 imaginary frequencies ignored.
 Zero-point vibrational energy       4370.0 (Joules/Mol)
                                    1.04446 (Kcal/Mol)
 Warning -- explicit consideration of   2 degrees of freedom as
           vibrations may cause significant error
 Vibrational temperatures:    525.59   525.59
          (Kelvin)

 Zero-point correction=                           0.001664 (Hartree/Particle)
 Thermal correction to Energy=                    0.004714
 Thermal correction to Enthalpy=                  0.005658
 Thermal correction to Gibbs Free Energy=        -0.019664
 Sum of electronic and zero-point Energies=           -100.764777
 Sum of electronic and thermal Energies=              -100.761727
 Sum of electronic and thermal Enthalpies=            -100.760783
 Sum of electronic and thermal Free Energies=         -100.786106

                     E (Thermal)             CV                S
                      KCal/Mol        Cal/Mol-Kelvin    Cal/Mol-Kelvin
 Total                    2.958              8.055             53.296
 Electronic               0.000              0.000              1.377
 Translational            0.889              2.981             35.068
 Rotational               0.592              1.987             14.652
 Vibrational              1.477              3.087              2.199
 Vibration     1          0.739              1.544              1.099
 Vibration     2          0.739              1.544              1.099

 Normal termination of Gaussian 16 at Sat Aug 23 01:08:35 2025.
