 Gaussian 16, Revision C.01,
 Gaussian 16:  ES64L-G16RevC.01  3-Jul-2019

 -----------------------------------------
 # sp b3lyp/6-311g** Force nosymm scf=(qc)
 -----------------------------------------

 -------------------
 Title Card Required
 -------------------
 Symbolic Z-matrix:
 Charge =  0 Multiplicity = 2

                          Input orientation:
 ---------------------------------------------------------------------
 Center     Atomic      Atomic             Coordinates (Angstroms)
 Number     Number       Type             X           Y           Z
 ---------------------------------------------------------------------
      1          1           0        0.000000    0.000000    0.000000
      2          1           0       -1.250000    0.000000    0.000000
      3          9           0        2.350000    0.000000    0.000000
 ---------------------------------------------------------------------

 SCF Done:  E(UB3LYP) =  -100.865113671     a.u. after   16 cycles

 Alpha  occ. eigenvalues --  -24.74186  -1.20260  -0.53472  -0.44795  -0.44795
 Alpha  occ. eigenvalues --   -0.37615
 Alpha virt. eigenvalues --   -0.05906   0.22598   0.33964   0.88670   0.91951
 Alpha virt. eigenvalues --    0.91951   1.07453   1.12255   1.12255   1.23704
 Alpha virt. eigenvalues --    1.50063   1.50063   2.01379   2.28460   2.53546

  Beta  occ. eigenvalues --  -24.71198  -1.11721  -0.41810  -0.41810  -0.37261
  Beta virt. eigenvalues --   -0.25480  -0.05032   0.23132   0.34444   0.93361
  Beta virt. eigenvalues --    0.93361   0.96274   1.10324   1.12829   1.12829
  Beta virt. eigenvalues --    1.26163   1.50531   1.50531   2.02063   2.29205

 Mulliken charges and spin densities:
               1          2
     1  H    0.008861  -0.078092
     2  H    0.035110   0.135005
     3  F   -0.043971   0.943087
 Sum of Mulliken charges =   0.00000   1.00000

 Dipole moment (field-independent basis, Debye):
    X=             -0.7251    Y=             -0.0000    Z=             -0.0000  Tot=              0.7251
 Quadrupole moment (field-independent basis, Debye-Ang):
   XX=             -6.4075   YY=             -7.4914   ZZ=             -7.4914
   XY=             -0.0000   XZ=             -0.0000   YZ=             -0.0000

  Exact polarizability:      42.582      -0.000       2.120      -0.000       0.000       2.120
 Approx polarizability:      56.871       0.000       2.116      -0.000       0.000       2.116

 ******    2 imaginary frequencies (negative Signs) ******

                      1                      2                      3
                      A                      A                      A
 Frequencies --  -1178.7644              -217.9553              1382.1127
 Red. masses --      1.0117                 1.1038                 1.0121
 Frc consts  --      0.8283                 0.0309                 1.1391
 IR Inten    --    556.1943                 5.0567                 0.0159

                      4
                      A
 Frequencies --   1382.1127
 Red. masses --      1.0121
 Frc consts  --      1.1391
 IR Inten    --      0.0159

 - Thermochemistry -
 -------------------
 Temperature   298.150 Kelvin.  Pressure   1.00000 Atm.
 Atom     1 has atomic number  1 and mass   1.00783

 Molecular mass:    21.01405 amu.
 Principal axes and moments of inertia in atomic units:
                           1         2         3
     Eigenvalues --     0.00000  60.40796  60.40796
           X            1.00000  -0.00000   0.00000
           Y            0.00000   1.00000   0.00000
           Z            0.00000   0.00000   1.00000
 This molecule is a prolate symmetric top.
 Rotational symmetry number  1.
 Rotational temperature (Kelvin)      1.43382
 Rotational constant (GHZ):          29.875884
    2 imaginary frequencies ignored.
 Zero-point vibrational energy      16533.7 (Joules/Mol)
                                    3.95166 (Kcal/Mol)
 Vibrational temperatures:   1988.55  1988.55
          (Kelvin)

 Zero-point correction=                           0.006297 (Hartree/Particle)
 Thermal correction to Energy=                    0.008674
 Thermal correction to Enthalpy=                  0.009618
 Thermal correction to Gibbs Free Energy=        -0.013700
 Sum of electronic and zero-point Energies=           -100.858816
 Sum of electronic and thermal Energies=              -100.856440
 Sum of electronic and thermal Enthalpies=            -100.855496
 Sum of electronic and thermal Free Energies=         -100.878814

                     E (Thermal)             CV                S
                      KCal/Mol        Cal/Mol-Kelvin    Cal/Mol-Kelvin
 Total                    5.443              5.193             49.078
 Electronic               0.000              0.000              1.377
 Translational            0.889              2.981             35.068
 Rotational               0.592              1.987             12.593
 Vibrational              3.962              0.225              0.039

 Normal termination of Gaussian 16 at Fri Aug 22 17:25:34 2025.
