 Gaussian 16, Revision C.01,
 Gaussian 16:  ES64L-G16RevC.01  3-Jul-2019

 -----------------------------------------
 # sp b3lyp/6-311g** Force nosymm scf=(qc)
 -----------------------------------------

 -------------------
 Title Card Required
 -------------------
 Symbolic Z-matrix:
 Charge =  0 Multiplicity = 2

                          Input orientation:
 ---------------------------------------------------------------------
 Center     Atomic      Atomic             Coordinates (Angstroms)
 Number     Number       Type             X           Y           Z
 ---------------------------------------------------------------------
      1          1           0        0.000000    0.000000    0.000000
      2          1           0       -2.750000    0.000000    0.000000
      3          9           0        2.600000    0.000000    0.000000
 ---------------------------------------------------------------------

 SCF Done:  E(UB3LYP) =  -100.767373205     a.u. after   19 cycles

 Alpha  occ. eigenvalues --  -24.72318  -1.18495  -0.51424  -0.43191  -0.43191
 Alpha  occ. eigenvalues --   -0.33306
 Alpha virt. eigenvalues --   -0.10966   0.24632   0.33921   0.90149   0.93308
 Alpha virt. eigenvalues --    0.93308   1.06231   1.24274   1.24274   1.26000
 Alpha virt. eigenvalues --    1.39716   1.39716   1.42588   2.15266   2.35395

  Beta  occ. eigenvalues --  -24.69426  -1.10248  -0.40305  -0.40305  -0.34965
  Beta virt. eigenvalues --   -0.23727  -0.08584   0.25270   0.35740   0.94708
  Beta virt. eigenvalues --    0.94708   0.97631   1.09263   1.22493   1.22493
  Beta virt. eigenvalues --    1.27676   1.43323   1.43323   1.43921   2.14868

 Mulliken charges and spin densities:
               1          2
     1  H    0.070582  -0.899975
     2  H    0.005300   0.985485
     3  F   -0.075881   0.914490
 Sum of Mulliken charges =  -0.00000   1.00000

 Dipole moment (field-independent basis, Debye):
    X=             -1.0765    Y=              0.0000    Z=             -0.0000  Tot=              1.0765
 Quadrupole moment (field-independent basis, Debye-Ang):
   XX=             -8.8513   YY=             -7.6056   ZZ=             -7.6056
   XY=              0.0000   XZ=             -0.0000   YZ=             -0.0000

  Exact polarizability:      38.565       0.000       2.018      -0.000       0.000       2.018
 Approx polarizability:      42.678       0.000       1.918      -0.000      -0.000       1.918

 ******    2 imaginary frequencies (negative Signs) ******

                      1                      2                      3
                      A                      A                      A
 Frequencies --   -655.6477              -269.0472               255.4887
 Red. masses --      1.0295                 1.0834                 1.0186
 Frc consts  --      0.2607                 0.0462                 0.0392
 IR Inten    --     59.5180                10.9247                 4.3533

                      4
                      A
 Frequencies --    255.4887
 Red. masses --      1.0186
 Frc consts  --      0.0392
 IR Inten    --      4.3533

 - Thermochemistry -
 -------------------
 Temperature   298.150 Kelvin.  Pressure   1.00000 Atm.
 Atom     1 has atomic number  1 and mass   1.00783

 Molecular mass:    21.01405 amu.
 Principal axes and moments of inertia in atomic units:
                           1         2         3
     Eigenvalues --     0.00000 116.43273 116.43273
           X            1.00000  -0.00000   0.00000
           Y            0.00000   1.00000   0.00000
           Z            0.00000   0.00000   1.00000
 This molecule is a prolate symmetric top.
 Rotational symmetry number  1.
 Rotational temperature (Kelvin)      0.74390
 Rotational constant (GHZ):          15.500291
    2 imaginary frequencies ignored.
 Zero-point vibrational energy       3056.3 (Joules/Mol)
                                    0.73048 (Kcal/Mol)
 Warning -- explicit consideration of   2 degrees of freedom as
           vibrations may cause significant error
 Vibrational temperatures:    367.59   367.59
          (Kelvin)

 Zero-point correction=                           0.001164 (Hartree/Particle)
 Thermal correction to Energy=                    0.004482
 Thermal correction to Enthalpy=                  0.005426
 Thermal correction to Gibbs Free Energy=        -0.020101
 Sum of electronic and zero-point Energies=           -100.766209
 Sum of electronic and thermal Energies=              -100.762891
 Sum of electronic and thermal Enthalpies=            -100.761947
 Sum of electronic and thermal Free Energies=         -100.787475

                     E (Thermal)             CV                S
                      KCal/Mol        Cal/Mol-Kelvin    Cal/Mol-Kelvin
 Total                    2.813              8.475             53.728
 Electronic               0.000              0.000              1.377
 Translational            0.889              2.981             35.068
 Rotational               0.592              1.987             13.897
 Vibrational              1.331              3.507              3.385
 Vibration     1          0.666              1.754              1.692
 Vibration     2          0.666              1.754              1.692

 Normal termination of Gaussian 16 at Fri Aug 22 18:04:28 2025.
