 Gaussian 16, Revision C.01,
 Gaussian 16:  ES64L-G16RevC.01  3-Jul-2019

 -----------------------------------------
 # sp b3lyp/6-311g** Force nosymm scf=(qc)
 -----------------------------------------

 -------------------
 Title Card Required
 -------------------
 Symbolic Z-matrix:
 Charge =  0 Multiplicity = 2

                          Input orientation:
 ---------------------------------------------------------------------
 Center     Atomic      Atomic             Coordinates (Angstroms)
 Number     Number       Type             X           Y           Z
 ---------------------------------------------------------------------
      1          1           0        0.000000    0.000000    0.000000
      2          1           0       -1.100000    0.000000    0.000000
      3          9           0        2.750000    0.000000    0.000000
 ---------------------------------------------------------------------

 SCF Done:  E(UB3LYP) =  -100.890446967     a.u. after  286 cycles

 Alpha  occ. eigenvalues --  -24.76885  -1.22676  -0.55856  -0.47175  -0.47004
 Alpha  occ. eigenvalues --   -0.37230
 Alpha virt. eigenvalues --   -0.01403   0.22503   0.37156   0.85632   0.90501
 Alpha virt. eigenvalues --    0.93407   1.06807   1.11014   1.11025   1.29991
 Alpha virt. eigenvalues --    1.60128   1.60139   2.17864   2.35155   2.56369

  Beta  occ. eigenvalues --  -24.73721  -1.13586  -0.44035  -0.43832  -0.37193
  Beta virt. eigenvalues --   -0.26471  -0.01367   0.22533   0.37257   0.91999
  Beta virt. eigenvalues --    0.95083   0.95236   1.10500   1.11015   1.11023
  Beta virt. eigenvalues --    1.29994   1.60126   1.60137   2.17871   2.35159

 Mulliken charges and spin densities:
               1          2
     1  H   -0.002613  -0.000582
     2  H   -0.008891  -0.001041
     3  F    0.011504   1.001623
 Sum of Mulliken charges =  -0.00000   1.00000

 Dipole moment (field-independent basis, Debye):
    X=              0.1449    Y=             -0.0000    Z=              0.0000  Tot=              0.1449
 Quadrupole moment (field-independent basis, Debye-Ang):
   XX=             -6.1035   YY=             -6.5359   ZZ=             -7.3983
   XY=             -0.0000   XZ=             -0.0000   YZ=              0.0197

  Exact polarizability:      14.748      -0.000       2.540       0.000       0.010       2.085
 Approx polarizability:      20.265      -0.000       2.701      -0.000       0.013       2.126

                      1                      2                      3
                      A                      A                      A
 Frequencies --     80.8249              1026.8525              1520.2961
 Red. masses --      1.1085                 1.0078                 1.0106
 Frc consts  --      0.0043                 0.6261                 1.3762
 IR Inten    --      0.9466                 2.4708                 0.0048

                      4
                      A
 Frequencies --   1526.8073
 Red. masses --      1.0106
 Frc consts  --      1.3880
 IR Inten    --      0.0025

 - Thermochemistry -
 -------------------
 Temperature   298.150 Kelvin.  Pressure   1.00000 Atm.
 Atom     1 has atomic number  1 and mass   1.00783

 Molecular mass:    21.01405 amu.
 Principal axes and moments of inertia in atomic units:
                           1         2         3
     Eigenvalues --     0.00000  73.04505  73.04505
           X            1.00000  -0.00000   0.00000
           Y            0.00000   1.00000   0.00000
           Z            0.00000   0.00000   1.00000
 This molecule is a prolate symmetric top.
 Rotational symmetry number  1.
 Rotational temperature (Kelvin)      1.18576
 Rotational constant (GHZ):          24.707235
 Zero-point vibrational energy      24851.1 (Joules/Mol)
                                    5.93956 (Kcal/Mol)
 Warning -- explicit consideration of   1 degrees of freedom as
           vibrations may cause significant error
 Vibrational temperatures:    116.29  1477.41  2187.37  2196.74
          (Kelvin)

 Zero-point correction=                           0.009465 (Hartree/Particle)
 Thermal correction to Energy=                    0.012640
 Thermal correction to Enthalpy=                  0.013584
 Thermal correction to Gibbs Free Energy=        -0.011784
 Sum of electronic and zero-point Energies=           -100.880982
 Sum of electronic and thermal Energies=              -100.877807
 Sum of electronic and thermal Enthalpies=            -100.876863
 Sum of electronic and thermal Free Energies=         -100.902231

                     E (Thermal)             CV                S
                      KCal/Mol        Cal/Mol-Kelvin    Cal/Mol-Kelvin
 Total                    7.932              7.417             53.392
 Electronic               0.000              0.000              1.377
 Translational            0.889              2.981             35.068
 Rotational               0.592              1.987             12.971
 Vibrational              6.450              2.449              3.976
 Vibration     1          0.600              1.962              3.871

 Normal termination of Gaussian 16 at Fri Aug 22 18:30:47 2025.
