 Gaussian 16, Revision C.01,
 Gaussian 16:  ES64L-G16RevC.01  3-Jul-2019

 -----------------------------------------
 # sp b3lyp/6-311g** Force nosymm scf=(qc)
 -----------------------------------------

 -------------------
 Title Card Required
 -------------------
 Symbolic Z-matrix:
 Charge =  0 Multiplicity = 2

                          Input orientation:
 ---------------------------------------------------------------------
 Center     Atomic      Atomic             Coordinates (Angstroms)
 Number     Number       Type             X           Y           Z
 ---------------------------------------------------------------------
      1          1           0        0.000000    0.000000    0.000000
      2          1           0       -0.700000    0.000000    0.000000
      3          9           0        3.750000    0.000000    0.000000
 ---------------------------------------------------------------------

 SCF Done:  E(UB3LYP) =  -100.932367722     a.u. after  436 cycles

 Alpha  occ. eigenvalues --  -24.76241  -1.22120  -0.55323  -0.46507  -0.46478
 Alpha  occ. eigenvalues --   -0.44233
 Alpha virt. eigenvalues --    0.06691   0.19486   0.48253   0.86064   0.90940
 Alpha virt. eigenvalues --    0.92198   1.01375   1.08919   1.08922   1.57427
 Alpha virt. eigenvalues --    1.85819   1.85822   1.89485   2.37766   3.56868

  Beta  occ. eigenvalues --  -24.73085  -1.13044  -0.44256  -0.43319  -0.43313
  Beta virt. eigenvalues --   -0.25968   0.06702   0.19492   0.48293   0.92440
  Beta virt. eigenvalues --    0.93693   0.95529   1.05479   1.08919   1.08922
  Beta virt. eigenvalues --    1.57431   1.85819   1.85822   1.89499   2.37766

 Mulliken charges and spin densities:
               1          2
     1  H   -0.000590  -0.000281
     2  H   -0.001796   0.000018
     3  F    0.002386   1.000263
 Sum of Mulliken charges =   0.00000   1.00000

 Dipole moment (field-independent basis, Debye):
    X=              0.0316    Y=             -0.0000    Z=             -0.0000  Tot=              0.0316
 Quadrupole moment (field-independent basis, Debye-Ang):
   XX=             -6.2416   YY=             -6.8817   ZZ=             -6.0175
   XY=              0.0000   XZ=              0.0000   YZ=              0.0092

  Exact polarizability:       7.495      -0.000       1.929       0.000       0.005       2.394
 Approx polarizability:       8.489       0.000       2.008       0.000       0.006       2.590

 ******    3 imaginary frequencies (negative Signs) ******

                      1                      2                      3
                      A                      A                      A
 Frequencies --  -1180.3113             -1179.1682               -57.1144
 Red. masses --      1.0086                 1.0086                 1.1085
 Frc consts  --      0.8278                 0.8262                 0.0021
 IR Inten    --      0.0001                 0.0001                 0.0828

                      4
                      A
 Frequencies --   5087.6187
 Red. masses --      1.0078
 Frc consts  --     15.3697
 IR Inten    --      0.0316

 - Thermochemistry -
 -------------------
 Temperature   298.150 Kelvin.  Pressure   1.00000 Atm.
 Atom     1 has atomic number  1 and mass   1.00783

 Molecular mass:    21.01405 amu.
 Principal axes and moments of inertia in atomic units:
                           1         2         3
     Eigenvalues --     0.00000 110.27434 110.27434
           X            1.00000  -0.00000   0.00000
           Y            0.00000   1.00000   0.00000
           Z            0.00000   0.00000   1.00000
 This molecule is a prolate symmetric top.
 Rotational symmetry number  1.
 Rotational temperature (Kelvin)      0.78544
 Rotational constant (GHZ):          16.365922
    3 imaginary frequencies ignored.
 Zero-point vibrational energy      30430.7 (Joules/Mol)
                                    7.27312 (Kcal/Mol)
 Vibrational temperatures:   7319.95
          (Kelvin)

 Zero-point correction=                           0.011590 (Hartree/Particle)
 Thermal correction to Energy=                    0.013951
 Thermal correction to Enthalpy=                  0.014895
 Thermal correction to Gibbs Free Energy=        -0.008973
 Sum of electronic and zero-point Energies=           -100.920777
 Sum of electronic and thermal Energies=              -100.918417
 Sum of electronic and thermal Enthalpies=            -100.917473
 Sum of electronic and thermal Free Energies=         -100.941341

                     E (Thermal)             CV                S
                      KCal/Mol        Cal/Mol-Kelvin    Cal/Mol-Kelvin
 Total                    8.754              4.968             50.235
 Electronic               0.000              0.000              1.377
 Translational            0.889              2.981             35.068
 Rotational               0.592              1.987             13.789
 Vibrational              7.273              0.000              0.000

 Normal termination of Gaussian 16 at Sat Aug 23 00:08:46 2025.
