 Gaussian 16, Revision C.01,
 Gaussian 16:  ES64L-G16RevC.01  3-Jul-2019

 -----------------------------------------
 # sp b3lyp/6-311g** Force nosymm scf=(qc)
 -----------------------------------------

 -------------------
 Title Card Required
 -------------------
 Symbolic Z-matrix:
 Charge =  0 Multiplicity = 2

                          Input orientation:
 ---------------------------------------------------------------------
 Center     Atomic      Atomic             Coordinates (Angstroms)
 Number     Number       Type             X           Y           Z
 ---------------------------------------------------------------------
      1          1           0        0.000000    0.000000    0.000000
      2          1           0       -2.800000    0.000000    0.000000
      3          9           0        0.900000    0.000000    0.000000
 ---------------------------------------------------------------------

 SCF Done:  E(UB3LYP) =  -100.971644422     a.u. after    5 cycles

 Alpha  occ. eigenvalues --  -24.63951  -1.19005  -0.53837  -0.39614  -0.39614
 Alpha  occ. eigenvalues --   -0.34353
 Alpha virt. eigenvalues --    0.03740   0.25286   0.39356   0.94374   0.94374
 Alpha virt. eigenvalues --    0.97752   1.21543   1.23186   1.23186   1.34436
 Alpha virt. eigenvalues --    1.37310   1.37310   2.01231   2.14501   2.37421

  Beta  occ. eigenvalues --  -24.63943  -1.18986  -0.53810  -0.39607  -0.39607
  Beta virt. eigenvalues --   -0.07861   0.05090   0.37845   0.39932   0.94375
  Beta virt. eigenvalues --    0.94375   0.97756   1.30140   1.37303   1.37303
  Beta virt. eigenvalues --    1.47605   1.47605   1.50613   2.01414   2.37127

 Mulliken charges and spin densities:
               1          2
     1  H    0.293297   0.002065
     2  H    0.003438   0.995268
     3  F   -0.296735   0.002667
 Sum of Mulliken charges =   0.00000   1.00000

 Dipole moment (field-independent basis, Debye):
    X=             -1.9309    Y=              0.0000    Z=             -0.0000  Tot=              1.9309
 Quadrupole moment (field-independent basis, Debye-Ang):
   XX=             -7.7760   YY=             -6.8664   ZZ=             -6.8664
   XY=              0.0000   XZ=             -0.0000   YZ=             -0.0000

  Exact polarizability:       6.712      -0.000       2.442      -0.000       0.000       2.442
 Approx polarizability:       7.478      -0.000       2.422       0.000       0.000       2.422

 ******    3 imaginary frequencies (negative Signs) ******

                      1                      2                      3
                      A                      A                      A
 Frequencies --   -624.0676              -624.0676               -60.4993
 Red. masses --      1.0352                 1.0352                 1.0532
 Frc consts  --      0.2375                 0.2375                 0.0023
 IR Inten    --    173.5883               173.5883                 0.3020

                      4
                      A
 Frequencies --   4429.0044
 Red. masses --      1.0584
 Frc consts  --     12.2321
 IR Inten    --    114.4108

 - Thermochemistry -
 -------------------
 Temperature   298.150 Kelvin.  Pressure   1.00000 Atm.
 Atom     1 has atomic number  1 and mass   1.00783

 Molecular mass:    21.01405 amu.
 Principal axes and moments of inertia in atomic units:
                           1         2         3
     Eigenvalues --     0.00000  48.53326  48.53326
           X            1.00000  -0.00000   0.00000
           Y            0.00000   1.00000   0.00000
           Z            0.00000   0.00000   1.00000
 This molecule is a prolate symmetric top.
 Rotational symmetry number  1.
 Rotational temperature (Kelvin)      1.78463
 Rotational constant (GHZ):          37.185657
    3 imaginary frequencies ignored.
 Zero-point vibrational energy      26491.3 (Joules/Mol)
                                    6.33158 (Kcal/Mol)
 Vibrational temperatures:   6372.35
          (Kelvin)

 Zero-point correction=                           0.010090 (Hartree/Particle)
 Thermal correction to Energy=                    0.012450
 Thermal correction to Enthalpy=                  0.013395
 Thermal correction to Gibbs Free Energy=        -0.009699
 Sum of electronic and zero-point Energies=           -100.961554
 Sum of electronic and thermal Energies=              -100.959194
 Sum of electronic and thermal Enthalpies=            -100.958250
 Sum of electronic and thermal Free Energies=         -100.981343

                     E (Thermal)             CV                S
                      KCal/Mol        Cal/Mol-Kelvin    Cal/Mol-Kelvin
 Total                    7.813              4.968             48.604
 Electronic               0.000              0.000              1.377
 Translational            0.889              2.981             35.068
 Rotational               0.592              1.987             12.158
 Vibrational              6.332              0.000              0.000

 Normal termination of Gaussian 16 at Fri Aug 22 15:56:20 2025.
