 Gaussian 16, Revision C.01,
 Gaussian 16:  ES64L-G16RevC.01  3-Jul-2019

 -----------------------------------------
 # sp b3lyp/6-311g** Force nosymm scf=(qc)
 -----------------------------------------

 -------------------
 Title Card Required
 -------------------
 Symbolic Z-matrix:
 Charge =  0 Multiplicity = 2

                          Input orientation:
 ---------------------------------------------------------------------
 Center     Atomic      Atomic             Coordinates (Angstroms)
 Number     Number       Type             X           Y           Z
 ---------------------------------------------------------------------
      1          1           0        0.000000    0.000000    0.000000
      2          1           0       -1.000000    0.000000    0.000000
      3          9           0        1.700000    0.000000    0.000000
 ---------------------------------------------------------------------

 SCF Done:  E(UB3LYP) =  -100.916295736     a.u. after    9 cycles

 Alpha  occ. eigenvalues --  -24.71128  -1.17703  -0.52545  -0.42439  -0.42439
 Alpha  occ. eigenvalues --   -0.41398
 Alpha virt. eigenvalues --    0.01812   0.20571   0.35707   0.90603   0.90603
 Alpha virt. eigenvalues --    0.95787   1.07389   1.07389   1.12176   1.60121
 Alpha virt. eigenvalues --    1.63570   1.63570   2.20719   2.31818   2.58961

  Beta  occ. eigenvalues --  -24.68492  -1.10349  -0.42605  -0.39847  -0.39847
  Beta virt. eigenvalues --   -0.24283   0.03742   0.21736   0.36836   0.91679
  Beta virt. eigenvalues --    0.91679   1.02668   1.09451   1.09451   1.14944
  Beta virt. eigenvalues --    1.63347   1.64802   1.64802   2.22645   2.34471

 Mulliken charges and spin densities:
               1          2
     1  H    0.088673  -0.088669
     2  H    0.049554   0.272880
     3  F   -0.138227   0.815788
 Sum of Mulliken charges =   0.00000   1.00000

 Dipole moment (field-independent basis, Debye):
    X=             -1.3622    Y=             -0.0000    Z=             -0.0000  Tot=              1.3622
 Quadrupole moment (field-independent basis, Debye-Ang):
   XX=             -7.0163   YY=             -7.1094   ZZ=             -7.1094
   XY=             -0.0000   XZ=             -0.0000   YZ=             -0.0000

  Exact polarizability:      30.403      -0.000       2.274      -0.000      -0.000       2.274
 Approx polarizability:      42.726      -0.000       2.280      -0.000       0.000       2.280

 ******    1 imaginary frequencies (negative Signs) ******

                      1                      2                      3
                      A                      A                      A
 Frequencies --  -1014.7490              1192.9938              1356.6121
 Red. masses --      1.0782                 1.0343                 1.0128
 Frc consts  --      0.6541                 0.8673                 1.0982
 IR Inten    --    601.2387               448.4615                 0.6998

                      4
                      A
 Frequencies --   1356.6121
 Red. masses --      1.0128
 Frc consts  --      1.0982
 IR Inten    --      0.6998

 - Thermochemistry -
 -------------------
 Temperature   298.150 Kelvin.  Pressure   1.00000 Atm.
 Atom     1 has atomic number  1 and mass   1.00783

 Molecular mass:    21.01405 amu.
 Principal axes and moments of inertia in atomic units:
                           1         2         3
     Eigenvalues --     0.00000  33.29624  33.29624
           X            1.00000  -0.00000   0.00000
           Y            0.00000   1.00000   0.00000
           Z            0.00000   0.00000   1.00000
 This molecule is a prolate symmetric top.
 Rotational symmetry number  1.
 Rotational temperature (Kelvin)      2.60131
 Rotational constant (GHZ):          54.202557
    1 imaginary frequencies ignored.
 Zero-point vibrational energy      23364.4 (Joules/Mol)
                                    5.58422 (Kcal/Mol)
 Vibrational temperatures:   1716.45  1951.86  1951.86
          (Kelvin)

 Zero-point correction=                           0.008899 (Hartree/Particle)
 Thermal correction to Energy=                    0.011294
 Thermal correction to Enthalpy=                  0.012239
 Thermal correction to Gibbs Free Energy=        -0.010540
 Sum of electronic and zero-point Energies=           -100.907397
 Sum of electronic and thermal Energies=              -100.905001
 Sum of electronic and thermal Enthalpies=            -100.904057
 Sum of electronic and thermal Free Energies=         -100.926835

                     E (Thermal)             CV                S
                      KCal/Mol        Cal/Mol-Kelvin    Cal/Mol-Kelvin
 Total                    7.087              5.423             47.941
 Electronic               0.000              0.000              1.377
 Translational            0.889              2.981             35.068
 Rotational               0.592              1.987             11.410
 Vibrational              5.606              0.455              0.086

 Normal termination of Gaussian 16 at Fri Aug 22 16:36:30 2025.
