 Gaussian 16, Revision C.01,
 Gaussian 16:  ES64L-G16RevC.01  3-Jul-2019

 -----------------------------------------
 # sp b3lyp/6-311g** Force nosymm scf=(qc)
 -----------------------------------------

 -------------------
 Title Card Required
 -------------------
 Symbolic Z-matrix:
 Charge =  0 Multiplicity = 2

                          Input orientation:
 ---------------------------------------------------------------------
 Center     Atomic      Atomic             Coordinates (Angstroms)
 Number     Number       Type             X           Y           Z
 ---------------------------------------------------------------------
      1          1           0        0.000000    0.000000    0.000000
      2          1           0       -3.550000    0.000000    0.000000
      3          9           0        2.750000    0.000000    0.000000
 ---------------------------------------------------------------------

 SCF Done:  E(UB3LYP) =  -100.763352221     a.u. after   20 cycles

 Alpha  occ. eigenvalues --  -24.73050  -1.19184  -0.52165  -0.43808  -0.43808
 Alpha  occ. eigenvalues --   -0.32685
 Alpha virt. eigenvalues --   -0.09042   0.23767   0.35808   0.89931   0.92886
 Alpha virt. eigenvalues --    0.92886   1.05333   1.24821   1.24821   1.24959
 Alpha virt. eigenvalues --    1.42653   1.42653   1.43776   2.14602   2.38679

  Beta  occ. eigenvalues --  -24.70098  -1.10748  -0.40858  -0.40858  -0.34444
  Beta virt. eigenvalues --   -0.24165  -0.06567   0.23956   0.37927   0.94319
  Beta virt. eigenvalues --    0.94319   0.97971   1.08581   1.22877   1.22877
  Beta virt. eigenvalues --    1.25019   1.45866   1.46128   1.46128   2.14058

 Mulliken charges and spin densities:
               1          2
     1  H    0.058814  -0.932515
     2  H    0.000568   0.998185
     3  F   -0.059382   0.934330
 Sum of Mulliken charges =  -0.00000   1.00000

 Dipole moment (field-independent basis, Debye):
    X=             -0.8460    Y=             -0.0000    Z=             -0.0000  Tot=              0.8460
 Quadrupole moment (field-independent basis, Debye-Ang):
   XX=             -8.8229   YY=             -7.5941   ZZ=             -7.5941
   XY=             -0.0000   XZ=             -0.0000   YZ=              0.0000

  Exact polarizability:      32.062      -0.000       2.024      -0.000      -0.000       2.024
 Approx polarizability:      36.781      -0.000       1.922      -0.000       0.000       1.922

 ******    2 imaginary frequencies (negative Signs) ******

                      1                      2                      3
                      A                      A                      A
 Frequencies --   -480.8855              -113.6328               177.2488
 Red. masses --      1.0520                 1.0596                 1.0213
 Frc consts  --      0.1433                 0.0081                 0.0189
 IR Inten    --     58.7445                 0.3351                 3.2940

                      4
                      A
 Frequencies --    177.2488
 Red. masses --      1.0213
 Frc consts  --      0.0189
 IR Inten    --      3.2940

 - Thermochemistry -
 -------------------
 Temperature   298.150 Kelvin.  Pressure   1.00000 Atm.
 Atom     1 has atomic number  1 and mass   1.00783

 Molecular mass:    21.01405 amu.
 Principal axes and moments of inertia in atomic units:
                           1         2         3
     Eigenvalues --     0.00000 155.92521 155.92521
           X            1.00000  -0.00000   0.00000
           Y            0.00000   1.00000   0.00000
           Z            0.00000   0.00000   1.00000
 This molecule is a prolate symmetric top.
 Rotational symmetry number  1.
 Rotational temperature (Kelvin)      0.55548
 Rotational constant (GHZ):          11.574403
    2 imaginary frequencies ignored.
 Zero-point vibrational energy       2120.4 (Joules/Mol)
                                    0.50678 (Kcal/Mol)
 Warning -- explicit consideration of   2 degrees of freedom as
           vibrations may cause significant error
 Vibrational temperatures:    255.02   255.02
          (Kelvin)

 Zero-point correction=                           0.000808 (Hartree/Particle)
 Thermal correction to Energy=                    0.004363
 Thermal correction to Enthalpy=                  0.005307
 Thermal correction to Gibbs Free Energy=        -0.021128
 Sum of electronic and zero-point Energies=           -100.762545
 Sum of electronic and thermal Energies=              -100.758990
 Sum of electronic and thermal Enthalpies=            -100.758045
 Sum of electronic and thermal Free Energies=         -100.784481

                     E (Thermal)             CV                S
                      KCal/Mol        Cal/Mol-Kelvin    Cal/Mol-Kelvin
 Total                    2.738              8.709             55.638
 Electronic               0.000              0.000              1.377
 Translational            0.889              2.981             35.068
 Rotational               0.592              1.987             14.478
 Vibrational              1.256              3.741              4.714
 Vibration     1          0.628              1.870              2.357
 Vibration     2          0.628              1.870              2.357

 Normal termination of Gaussian 16 at Fri Aug 22 18:35:13 2025.
