 Gaussian 16, Revision C.01,
 Gaussian 16:  ES64L-G16RevC.01  3-Jul-2019

 -----------------------------------------
 # sp b3lyp/6-311g** Force nosymm scf=(qc)
 -----------------------------------------

 -------------------
 Title Card Required
 -------------------
 Symbolic Z-matrix:
 Charge =  0 Multiplicity = 2

                          Input orientation:
 ---------------------------------------------------------------------
 Center     Atomic      Atomic             Coordinates (Angstroms)
 Number     Number       Type             X           Y           Z
 ---------------------------------------------------------------------
      1          1           0        0.000000    0.000000    0.000000
      2          1           0       -3.450000    0.000000    0.000000
      3          9           0        0.850000    0.000000    0.000000
 ---------------------------------------------------------------------

 SCF Done:  E(UB3LYP) =  -100.965506207     a.u. after    6 cycles

 Alpha  occ. eigenvalues --  -24.63855  -1.20904  -0.55012  -0.40135  -0.40135
 Alpha  occ. eigenvalues --   -0.33605
 Alpha virt. eigenvalues --    0.04210   0.24644   0.42599   0.94336   0.94336
 Alpha virt. eigenvalues --    0.97389   1.23651   1.23909   1.23909   1.29981
 Alpha virt. eigenvalues --    1.38356   1.38356   2.03034   2.14471   2.42894

  Beta  occ. eigenvalues --  -24.63854  -1.20901  -0.55009  -0.40135  -0.40135
  Beta virt. eigenvalues --   -0.05556   0.04791   0.39109   0.42647   0.94336
  Beta virt. eigenvalues --    0.94336   0.97382   1.29518   1.38356   1.38356
  Beta virt. eigenvalues --    1.50575   1.50922   1.50922   2.03090   2.42863

 Mulliken charges and spin densities:
               1          2
     1  H    0.283965   0.000677
     2  H    0.000935   0.998849
     3  F   -0.284900   0.000474
 Sum of Mulliken charges =   0.00000   1.00000

 Dipole moment (field-independent basis, Debye):
    X=             -1.8209    Y=             -0.0000    Z=              0.0000  Tot=              1.8209
 Quadrupole moment (field-independent basis, Debye-Ang):
   XX=             -7.7456   YY=             -6.8198   ZZ=             -6.8198
   XY=             -0.0000   XZ=             -0.0000   YZ=              0.0000

  Exact polarizability:       5.172       0.000       2.436      -0.000      -0.000       2.436
 Approx polarizability:       5.883       0.000       2.416      -0.000      -0.000       2.416

 ******    3 imaginary frequencies (negative Signs) ******

                      1                      2                      3
                      A                      A                      A
 Frequencies --  -1324.9846             -1324.9846               -45.6561
 Red. masses --      1.0391                 1.0391                 1.0532
 Frc consts  --      1.0748                 1.0748                 0.0013
 IR Inten    --    188.0446               188.0446                 0.0432

                      4
                      A
 Frequencies --   5311.4844
 Red. masses --      1.0583
 Frc consts  --     17.5913
 IR Inten    --    104.1666

 - Thermochemistry -
 -------------------
 Temperature   298.150 Kelvin.  Pressure   1.00000 Atm.
 Atom     1 has atomic number  1 and mass   1.00783

 Molecular mass:    21.01405 amu.
 Principal axes and moments of inertia in atomic units:
                           1         2         3
     Eigenvalues --     0.00000  64.56798  64.56798
           X            1.00000  -0.00000   0.00000
           Y            0.00000   1.00000   0.00000
           Z            0.00000   0.00000   1.00000
 This molecule is a prolate symmetric top.
 Rotational symmetry number  1.
 Rotational temperature (Kelvin)      1.34144
 Rotational constant (GHZ):          27.951023
    3 imaginary frequencies ignored.
 Zero-point vibrational energy      31769.7 (Joules/Mol)
                                    7.59315 (Kcal/Mol)
 Vibrational temperatures:   7642.04
          (Kelvin)

 Zero-point correction=                           0.012100 (Hartree/Particle)
 Thermal correction to Energy=                    0.014461
 Thermal correction to Enthalpy=                  0.015405
 Thermal correction to Gibbs Free Energy=        -0.007958
 Sum of electronic and zero-point Energies=           -100.953406
 Sum of electronic and thermal Energies=              -100.951045
 Sum of electronic and thermal Enthalpies=            -100.950101
 Sum of electronic and thermal Free Energies=         -100.973464

                     E (Thermal)             CV                S
                      KCal/Mol        Cal/Mol-Kelvin    Cal/Mol-Kelvin
 Total                    9.074              4.968             49.171
 Electronic               0.000              0.000              1.377
 Translational            0.889              2.981             35.068
 Rotational               0.592              1.987             12.726
 Vibrational              7.593              0.000              0.000

 Normal termination of Gaussian 16 at Fri Aug 22 15:54:24 2025.
