 Gaussian 16, Revision C.01,
 Gaussian 16:  ES64L-G16RevC.01  3-Jul-2019

 -----------------------------------------
 # sp b3lyp/6-311g** Force nosymm scf=(qc)
 -----------------------------------------

 -------------------
 Title Card Required
 -------------------
 Symbolic Z-matrix:
 Charge =  0 Multiplicity = 2

                          Input orientation:
 ---------------------------------------------------------------------
 Center     Atomic      Atomic             Coordinates (Angstroms)
 Number     Number       Type             X           Y           Z
 ---------------------------------------------------------------------
      1          1           0        0.000000    0.000000    0.000000
      2          1           0       -3.150000    0.000000    0.000000
      3          9           0        2.500000    0.000000    0.000000
 ---------------------------------------------------------------------

 SCF Done:  E(UB3LYP) =  -100.767957060     a.u. after   20 cycles

 Alpha  occ. eigenvalues --  -24.71743  -1.17958  -0.50844  -0.42713  -0.42713
 Alpha  occ. eigenvalues --   -0.33091
 Alpha virt. eigenvalues --   -0.10632   0.23855   0.34785   0.89769   0.93614
 Alpha virt. eigenvalues --    0.93614   1.06381   1.24438   1.24438   1.25020
 Alpha virt. eigenvalues --    1.40405   1.40405   1.44394   2.14905   2.35431

  Beta  occ. eigenvalues --  -24.68901  -1.09870  -0.39880  -0.39880  -0.35360
  Beta virt. eigenvalues --   -0.23347  -0.07483   0.24405   0.37170   0.94977
  Beta virt. eigenvalues --    0.94977   0.96244   1.08798   1.22119   1.22119
  Beta virt. eigenvalues --    1.29721   1.44927   1.45060   1.45060   2.13541

 Mulliken charges and spin densities:
               1          2
     1  H    0.087995  -0.892831
     2  H    0.002180   0.994938
     3  F   -0.090176   0.897893
 Sum of Mulliken charges =  -0.00000   1.00000

 Dipole moment (field-independent basis, Debye):
    X=             -1.1798    Y=             -0.0000    Z=              0.0000  Tot=              1.1798
 Quadrupole moment (field-independent basis, Debye-Ang):
   XX=             -9.2134   YY=             -7.5784   ZZ=             -7.5784
   XY=             -0.0000   XZ=              0.0000   YZ=              0.0000

  Exact polarizability:      32.934      -0.000       2.024       0.000       0.000       2.024
 Approx polarizability:      40.217      -0.000       1.920       0.000      -0.000       1.920

 ******    2 imaginary frequencies (negative Signs) ******

                      1                      2                      3
                      A                      A                      A
 Frequencies --   -637.5295              -180.5441               249.5901
 Red. masses --      1.0487                 1.0629                 1.0210
 Frc consts  --      0.2511                 0.0204                 0.0375
 IR Inten    --     78.2204                 1.5532                 7.1854

                      4
                      A
 Frequencies --    249.5901
 Red. masses --      1.0210
 Frc consts  --      0.0375
 IR Inten    --      7.1854

 - Thermochemistry -
 -------------------
 Temperature   298.150 Kelvin.  Pressure   1.00000 Atm.
 Atom     1 has atomic number  1 and mass   1.00783

 Molecular mass:    21.01405 amu.
 Principal axes and moments of inertia in atomic units:
                           1         2         3
     Eigenvalues --     0.00000 125.91817 125.91817
           X            1.00000  -0.00000   0.00000
           Y            0.00000   1.00000   0.00000
           Z            0.00000   0.00000   1.00000
 This molecule is a prolate symmetric top.
 Rotational symmetry number  1.
 Rotational temperature (Kelvin)      0.68786
 Rotational constant (GHZ):          14.332651
    2 imaginary frequencies ignored.
 Zero-point vibrational energy       2985.8 (Joules/Mol)
                                    0.71361 (Kcal/Mol)
 Warning -- explicit consideration of   2 degrees of freedom as
           vibrations may cause significant error
 Vibrational temperatures:    359.10   359.10
          (Kelvin)

 Zero-point correction=                           0.001137 (Hartree/Particle)
 Thermal correction to Energy=                    0.004472
 Thermal correction to Enthalpy=                  0.005416
 Thermal correction to Gibbs Free Energy=        -0.020225
 Sum of electronic and zero-point Energies=           -100.766820
 Sum of electronic and thermal Energies=              -100.763485
 Sum of electronic and thermal Enthalpies=            -100.762541
 Sum of electronic and thermal Free Energies=         -100.788182

                     E (Thermal)             CV                S
                      KCal/Mol        Cal/Mol-Kelvin    Cal/Mol-Kelvin
 Total                    2.806              8.495             53.965
 Electronic               0.000              0.000              1.377
 Translational            0.889              2.981             35.068
 Rotational               0.592              1.987             14.053
 Vibrational              1.325              3.527              3.467
 Vibration     1          0.662              1.763              1.733
 Vibration     2          0.662              1.763              1.733

 Normal termination of Gaussian 16 at Fri Aug 22 17:45:54 2025.
