 Gaussian 16, Revision C.01,
 Gaussian 16:  ES64L-G16RevC.01  3-Jul-2019

 -----------------------------------------
 # sp b3lyp/6-311g** Force nosymm scf=(qc)
 -----------------------------------------

 -------------------
 Title Card Required
 -------------------
 Symbolic Z-matrix:
 Charge =  0 Multiplicity = 2

                          Input orientation:
 ---------------------------------------------------------------------
 Center     Atomic      Atomic             Coordinates (Angstroms)
 Number     Number       Type             X           Y           Z
 ---------------------------------------------------------------------
      1          1           0        0.000000    0.000000    0.000000
      2          1           0       -1.000000    0.000000    0.000000
      3          9           0        3.850000    0.000000    0.000000
 ---------------------------------------------------------------------

 SCF Done:  E(UB3LYP) =  -100.906559075     a.u. after    6 cycles

 Alpha  occ. eigenvalues --  -24.76138  -1.22049  -0.55264  -0.46413  -0.46413
 Alpha  occ. eigenvalues --   -0.39077
 Alpha virt. eigenvalues --    0.00126   0.21254   0.38467   0.86848   0.90977
 Alpha virt. eigenvalues --    0.90977   1.01079   1.09026   1.09026   1.37380
 Alpha virt. eigenvalues --    1.65671   1.65671   2.21317   2.35829   2.58705

  Beta  occ. eigenvalues --  -24.72986  -1.12983  -0.43252  -0.43252  -0.39075
  Beta virt. eigenvalues --   -0.25960   0.00138   0.21264   0.38538   0.92477
  Beta virt. eigenvalues --    0.92477   0.96200   1.05221   1.09029   1.09029
  Beta virt. eigenvalues --    1.37388   1.65673   1.65673   2.21328   2.35833

 Mulliken charges and spin densities:
               1          2
     1  H   -0.003426  -0.000351
     2  H    0.003134   0.000872
     3  F    0.000292   0.999479
 Sum of Mulliken charges =   0.00000   1.00000

 Dipole moment (field-independent basis, Debye):
    X=             -0.0092    Y=             -0.0000    Z=              0.0000  Tot=              0.0092
 Quadrupole moment (field-independent basis, Debye-Ang):
   XX=             -5.5079   YY=             -7.2706   ZZ=             -7.2706
   XY=             -0.0000   XZ=              0.0000   YZ=             -0.0000

  Exact polarizability:      12.608      -0.000       2.057       0.000       0.000       2.057
 Approx polarizability:      16.506      -0.000       2.108       0.000       0.000       2.108

 ******    1 imaginary frequencies (negative Signs) ******

                      1                      2                      3
                      A                      A                      A
 Frequencies --    -16.4628              1541.0849              1541.0849
 Red. masses --      1.1085                 1.0091                 1.0091
 Frc consts  --      0.0002                 1.4121                 1.4121
 IR Inten    --      0.0036                 0.0128                 0.0128

                      4
                      A
 Frequencies --   1794.2690
 Red. masses --      1.0078
 Frc consts  --      1.9117
 IR Inten    --      0.1107

 - Thermochemistry -
 -------------------
 Temperature   298.150 Kelvin.  Pressure   1.00000 Atm.
 Atom     1 has atomic number  1 and mass   1.00783

 Molecular mass:    21.01405 amu.
 Principal axes and moments of inertia in atomic units:
                           1         2         3
     Eigenvalues --     0.00000 124.93937 124.93937
           X            1.00000  -0.00000   0.00000
           Y            0.00000   1.00000   0.00000
           Z            0.00000   0.00000   1.00000
 This molecule is a prolate symmetric top.
 Rotational symmetry number  1.
 Rotational temperature (Kelvin)      0.69325
 Rotational constant (GHZ):          14.444937
    1 imaginary frequencies ignored.
 Zero-point vibrational energy      29167.6 (Joules/Mol)
                                    6.97122 (Kcal/Mol)
 Vibrational temperatures:   2217.28  2217.28  2581.55
          (Kelvin)

 Zero-point correction=                           0.011109 (Hartree/Particle)
 Thermal correction to Energy=                    0.013480
 Thermal correction to Enthalpy=                  0.014424
 Thermal correction to Gibbs Free Energy=        -0.009573
 Sum of electronic and zero-point Energies=           -100.895450
 Sum of electronic and thermal Energies=              -100.893080
 Sum of electronic and thermal Enthalpies=            -100.892135
 Sum of electronic and thermal Free Energies=         -100.916132

                     E (Thermal)             CV                S
                      KCal/Mol        Cal/Mol-Kelvin    Cal/Mol-Kelvin
 Total                    8.459              5.124             50.506
 Electronic               0.000              0.000              1.377
 Translational            0.889              2.981             35.068
 Rotational               0.592              1.987             14.038
 Vibrational              6.977              0.156              0.023

 Normal termination of Gaussian 16 at Sat Aug 23 00:56:52 2025.
