 Gaussian 16, Revision C.01,
 Gaussian 16:  ES64L-G16RevC.01  3-Jul-2019

 -----------------------------------------
 # sp b3lyp/6-311g** Force nosymm scf=(qc)
 -----------------------------------------

 -------------------
 Title Card Required
 -------------------
 Symbolic Z-matrix:
 Charge =  0 Multiplicity = 2

                          Input orientation:
 ---------------------------------------------------------------------
 Center     Atomic      Atomic             Coordinates (Angstroms)
 Number     Number       Type             X           Y           Z
 ---------------------------------------------------------------------
      1          1           0        0.000000    0.000000    0.000000
      2          1           0       -2.800000    0.000000    0.000000
      3          9           0        1.500000    0.000000    0.000000
 ---------------------------------------------------------------------

 SCF Done:  E(UB3LYP) =  -100.855321606     a.u. after    8 cycles

 Alpha  occ. eigenvalues --  -24.64225  -1.09697  -0.43295  -0.36331  -0.36331
 Alpha  occ. eigenvalues --   -0.35010
 Alpha virt. eigenvalues --   -0.14004   0.21916   0.27206   0.93676   0.93676
 Alpha virt. eigenvalues --    1.03492   1.10324   1.22498   1.22498   1.23576
 Alpha virt. eigenvalues --    1.31623   1.31623   1.73998   2.13468   2.19713

  Beta  occ. eigenvalues --  -24.64064  -1.09273  -0.42872  -0.36179  -0.36179
  Beta virt. eigenvalues --   -0.15369  -0.07622   0.24485   0.36610   0.93615
  Beta virt. eigenvalues --    0.93615   1.03896   1.10435   1.30890   1.30890
  Beta virt. eigenvalues --    1.43962   1.43965   1.43965   1.73887   2.18553

 Mulliken charges and spin densities:
               1          2
     1  H    0.341903  -0.039649
     2  H    0.009996   0.988916
     3  F   -0.351898   0.050733
 Sum of Mulliken charges =  -0.00000   1.00000

 Dipole moment (field-independent basis, Debye):
    X=             -2.7267    Y=              0.0000    Z=              0.0000  Tot=              2.7267
 Quadrupole moment (field-independent basis, Debye-Ang):
   XX=             -9.5768   YY=             -7.3248   ZZ=             -7.3248
   XY=              0.0000   XZ=              0.0000   YZ=             -0.0000

  Exact polarizability:      19.294       0.000       2.195      -0.000       0.000       2.195
 Approx polarizability:      32.355       0.000       2.122       0.000       0.000       2.122

 ******    2 imaginary frequencies (negative Signs) ******

                      1                      2                      3
                      A                      A                      A
 Frequencies --  -1250.3654              -183.9836              1001.2284
 Red. masses --      1.0529                 1.0586                 1.0269
 Frc consts  --      0.9699                 0.0211                 0.6065
 IR Inten    --     76.8224                 1.7077               107.1501

                      4
                      A
 Frequencies --   1001.2284
 Red. masses --      1.0269
 Frc consts  --      0.6065
 IR Inten    --    107.1501

 - Thermochemistry -
 -------------------
 Temperature   298.150 Kelvin.  Pressure   1.00000 Atm.
 Atom     1 has atomic number  1 and mass   1.00783

 Molecular mass:    21.01405 amu.
 Principal axes and moments of inertia in atomic units:
                           1         2         3
     Eigenvalues --     0.00000  68.83694  68.83694
           X            1.00000  -0.00000   0.00000
           Y            0.00000   1.00000   0.00000
           Z            0.00000   0.00000   1.00000
 This molecule is a prolate symmetric top.
 Rotational symmetry number  1.
 Rotational temperature (Kelvin)      1.25825
 Rotational constant (GHZ):          26.217627
    2 imaginary frequencies ignored.
 Zero-point vibrational energy      11977.4 (Joules/Mol)
                                    2.86266 (Kcal/Mol)
 Vibrational temperatures:   1440.54  1440.54
          (Kelvin)

 Zero-point correction=                           0.004562 (Hartree/Particle)
 Thermal correction to Energy=                    0.006996
 Thermal correction to Enthalpy=                  0.007940
 Thermal correction to Gibbs Free Energy=        -0.015572
 Sum of electronic and zero-point Energies=           -100.850760
 Sum of electronic and thermal Energies=              -100.848326
 Sum of electronic and thermal Enthalpies=            -100.847382
 Sum of electronic and thermal Free Energies=         -100.870893

                     E (Thermal)             CV                S
                      KCal/Mol        Cal/Mol-Kelvin    Cal/Mol-Kelvin
 Total                    4.390              5.720             49.485
 Electronic               0.000              0.000              1.377
 Translational            0.889              2.981             35.068
 Rotational               0.592              1.987             12.853
 Vibrational              2.909              0.752              0.186

 Normal termination of Gaussian 16 at Fri Aug 22 16:26:08 2025.
