 Gaussian 16, Revision C.01,
 Gaussian 16:  ES64L-G16RevC.01  3-Jul-2019

 -----------------------------------------
 # sp b3lyp/6-311g** Force nosymm scf=(qc)
 -----------------------------------------

 -------------------
 Title Card Required
 -------------------
 Symbolic Z-matrix:
 Charge =  0 Multiplicity = 2

                          Input orientation:
 ---------------------------------------------------------------------
 Center     Atomic      Atomic             Coordinates (Angstroms)
 Number     Number       Type             X           Y           Z
 ---------------------------------------------------------------------
      1          1           0        0.000000    0.000000    0.000000
      2          1           0       -0.750000    0.000000    0.000000
      3          9           0        1.850000    0.000000    0.000000
 ---------------------------------------------------------------------

 SCF Done:  E(UB3LYP) =  -100.935492275     a.u. after    6 cycles

 Alpha  occ. eigenvalues --  -24.74043  -1.20289  -0.54745  -0.44773  -0.44773
 Alpha  occ. eigenvalues --   -0.44492
 Alpha virt. eigenvalues --    0.07552   0.20318   0.43761   0.90259   0.90259
 Alpha virt. eigenvalues --    0.93901   1.07434   1.07434   1.16372   1.66377
 Alpha virt. eigenvalues --    1.81007   1.81007   1.95696   2.40668   3.27638

  Beta  occ. eigenvalues --  -24.71083  -1.11907  -0.45416  -0.41834  -0.41834
  Beta virt. eigenvalues --   -0.25164   0.08492   0.20992   0.44598   0.91550
  Beta virt. eigenvalues --    0.91550   1.01448   1.08441   1.08441   1.19720
  Beta virt. eigenvalues --    1.68190   1.81535   1.81535   1.96437   2.41749

 Mulliken charges and spin densities:
               1          2
     1  H    0.028521  -0.033848
     2  H    0.029689   0.110925
     3  F   -0.058210   0.922923
 Sum of Mulliken charges =   0.00000   1.00000

 Dipole moment (field-independent basis, Debye):
    X=             -0.6132    Y=             -0.0000    Z=              0.0000  Tot=              0.6132
 Quadrupole moment (field-independent basis, Debye-Ang):
   XX=             -6.2722   YY=             -6.8870   ZZ=             -6.8870
   XY=             -0.0000   XZ=             -0.0000   YZ=             -0.0000

  Exact polarizability:      19.301       0.000       2.140       0.000      -0.000       2.140
 Approx polarizability:      22.384       0.000       2.195      -0.000      -0.000       2.195

 ******    3 imaginary frequencies (negative Signs) ******

                      1                      2                      3
                      A                      A                      A
 Frequencies --   -482.9194              -482.9194              -200.3534
 Red. masses --      1.0106                 1.0106                 1.1085
 Frc consts  --      0.1389                 0.1389                 0.0262
 IR Inten    --      0.0855                 0.0855                47.4453

                      4
                      A
 Frequencies --   4218.1635
 Red. masses --      1.0079
 Frc consts  --     10.5658
 IR Inten    --    397.6282

 - Thermochemistry -
 -------------------
 Temperature   298.150 Kelvin.  Pressure   1.00000 Atm.
 Atom     1 has atomic number  1 and mass   1.00783

 Molecular mass:    21.01405 amu.
 Principal axes and moments of inertia in atomic units:
                           1         2         3
     Eigenvalues --     0.00000  33.22886  33.22886
           X            1.00000  -0.00000   0.00000
           Y            0.00000   1.00000   0.00000
           Z            0.00000   0.00000   1.00000
 This molecule is a prolate symmetric top.
 Rotational symmetry number  1.
 Rotational temperature (Kelvin)      2.60659
 Rotational constant (GHZ):          54.312469
    3 imaginary frequencies ignored.
 Zero-point vibrational energy      25230.2 (Joules/Mol)
                                    6.03017 (Kcal/Mol)
 Vibrational temperatures:   6069.00
          (Kelvin)

 Zero-point correction=                           0.009610 (Hartree/Particle)
 Thermal correction to Energy=                    0.011970
 Thermal correction to Enthalpy=                  0.012914
 Thermal correction to Gibbs Free Energy=        -0.009821
 Sum of electronic and zero-point Energies=           -100.925883
 Sum of electronic and thermal Energies=              -100.923522
 Sum of electronic and thermal Enthalpies=            -100.922578
 Sum of electronic and thermal Free Energies=         -100.945314

                     E (Thermal)             CV                S
                      KCal/Mol        Cal/Mol-Kelvin    Cal/Mol-Kelvin
 Total                    7.511              4.968             47.851
 Electronic               0.000              0.000              1.377
 Translational            0.889              2.981             35.068
 Rotational               0.592              1.987             11.406
 Vibrational              6.030              0.000              0.000

 Normal termination of Gaussian 16 at Fri Aug 22 16:45:34 2025.
