 Gaussian 16, Revision C.01,
 Gaussian 16:  ES64L-G16RevC.01  3-Jul-2019

 -----------------------------------------
 # sp b3lyp/6-311g** Force nosymm scf=(qc)
 -----------------------------------------

 -------------------
 Title Card Required
 -------------------
 Symbolic Z-matrix:
 Charge =  0 Multiplicity = 2

                          Input orientation:
 ---------------------------------------------------------------------
 Center     Atomic      Atomic             Coordinates (Angstroms)
 Number     Number       Type             X           Y           Z
 ---------------------------------------------------------------------
      1          1           0        0.000000    0.000000    0.000000
      2          1           0       -3.750000    0.000000    0.000000
      3          9           0        2.450000    0.000000    0.000000
 ---------------------------------------------------------------------

 SCF Done:  E(UB3LYP) =  -100.768471045     a.u. after   18 cycles

 Alpha  occ. eigenvalues --  -24.71435  -1.17669  -0.50533  -0.42457  -0.42457
 Alpha  occ. eigenvalues --   -0.32846
 Alpha virt. eigenvalues --   -0.10512   0.23334   0.35006   0.89418   0.93771
 Alpha virt. eigenvalues --    0.93771   1.06242   1.24657   1.24657   1.24708
 Alpha virt. eigenvalues --    1.40019   1.40019   1.45416   2.14170   2.36322

  Beta  occ. eigenvalues --  -24.68621  -1.09672  -0.39655  -0.39655  -0.35568
  Beta virt. eigenvalues --   -0.23136  -0.06369   0.23682   0.38076   0.95108
  Beta virt. eigenvalues --    0.95108   0.95189   1.08437   1.21947   1.21947
  Beta virt. eigenvalues --    1.31262   1.46168   1.46397   1.46397   2.12242

 Mulliken charges and spin densities:
               1          2
     1  H    0.097672  -0.887368
     2  H    0.000502   0.998876
     3  F   -0.098174   0.888493
 Sum of Mulliken charges =  -0.00000   1.00000

 Dipole moment (field-independent basis, Debye):
    X=             -1.2298    Y=             -0.0000    Z=             -0.0000  Tot=              1.2298
 Quadrupole moment (field-independent basis, Debye-Ang):
   XX=             -9.4283   YY=             -7.5623   ZZ=             -7.5623
   XY=             -0.0000   XZ=             -0.0000   YZ=              0.0000

  Exact polarizability:      29.822      -0.000       2.028      -0.000      -0.000       2.028
 Approx polarizability:      38.596      -0.000       1.921      -0.000       0.000       1.921

 ******    2 imaginary frequencies (negative Signs) ******

                      1                      2                      3
                      A                      A                      A
 Frequencies --   -646.6872               -91.0899               256.9497
 Red. masses --      1.0562                 1.0553                 1.0238
 Frc consts  --      0.2602                 0.0052                 0.0398
 IR Inten    --     85.0382                 0.0919                 9.2386

                      4
                      A
 Frequencies --    256.9497
 Red. masses --      1.0238
 Frc consts  --      0.0398
 IR Inten    --      9.2386

 - Thermochemistry -
 -------------------
 Temperature   298.150 Kelvin.  Pressure   1.00000 Atm.
 Atom     1 has atomic number  1 and mass   1.00783

 Molecular mass:    21.01405 amu.
 Principal axes and moments of inertia in atomic units:
                           1         2         3
     Eigenvalues --     0.00000 147.03406 147.03406
           X            1.00000  -0.00000   0.00000
           Y            0.00000   1.00000   0.00000
           Z            0.00000   0.00000   1.00000
 This molecule is a prolate symmetric top.
 Rotational symmetry number  1.
 Rotational temperature (Kelvin)      0.58907
 Rotational constant (GHZ):          12.274307
    2 imaginary frequencies ignored.
 Zero-point vibrational energy       3073.8 (Joules/Mol)
                                    0.73466 (Kcal/Mol)
 Warning -- explicit consideration of   2 degrees of freedom as
           vibrations may cause significant error
 Vibrational temperatures:    369.69   369.69
          (Kelvin)

 Zero-point correction=                           0.001171 (Hartree/Particle)
 Thermal correction to Energy=                    0.004485
 Thermal correction to Enthalpy=                  0.005429
 Thermal correction to Gibbs Free Energy=        -0.020310
 Sum of electronic and zero-point Energies=           -100.767300
 Sum of electronic and thermal Energies=              -100.763986
 Sum of electronic and thermal Enthalpies=            -100.763042
 Sum of electronic and thermal Free Energies=         -100.788781

                     E (Thermal)             CV                S
                      KCal/Mol        Cal/Mol-Kelvin    Cal/Mol-Kelvin
 Total                    2.814              8.470             54.171
 Electronic               0.000              0.000              1.377
 Translational            0.889              2.981             35.068
 Rotational               0.592              1.987             14.361
 Vibrational              1.333              3.502              3.365
 Vibration     1          0.667              1.751              1.682
 Vibration     2          0.667              1.751              1.682

 Normal termination of Gaussian 16 at Fri Aug 22 17:39:58 2025.
