 Gaussian 16, Revision C.01,
 Gaussian 16:  ES64L-G16RevC.01  3-Jul-2019

 -----------------------------------------
 # sp b3lyp/6-311g** Force nosymm scf=(qc)
 -----------------------------------------

 -------------------
 Title Card Required
 -------------------
 Symbolic Z-matrix:
 Charge =  0 Multiplicity = 2

                          Input orientation:
 ---------------------------------------------------------------------
 Center     Atomic      Atomic             Coordinates (Angstroms)
 Number     Number       Type             X           Y           Z
 ---------------------------------------------------------------------
      1          1           0        0.000000    0.000000    0.000000
      2          1           0       -1.600000    0.000000    0.000000
      3          9           0        2.350000    0.000000    0.000000
 ---------------------------------------------------------------------

 SCF Done:  E(UB3LYP) =  -100.813639563     a.u. after   19 cycles

 Alpha  occ. eigenvalues --  -24.71931  -1.18139  -0.51120  -0.42879  -0.42879
 Alpha  occ. eigenvalues --   -0.36215
 Alpha virt. eigenvalues --   -0.11692   0.23645   0.31180   0.87551   0.93386
 Alpha virt. eigenvalues --    0.93386   1.02809   1.17692   1.19443   1.19443
 Alpha virt. eigenvalues --    1.37013   1.37013   1.72308   2.16770   2.42726

  Beta  occ. eigenvalues --  -24.69100  -1.10088  -0.40059  -0.40059  -0.35756
  Beta virt. eigenvalues --   -0.24103  -0.10818   0.25424   0.30822   0.92904
  Beta virt. eigenvalues --    0.94716   0.94716   1.06232   1.20325   1.20325
  Beta virt. eigenvalues --    1.21610   1.37668   1.37668   1.73086   2.17787

 Mulliken charges and spin densities:
               1          2
     1  H    0.042324  -0.459901
     2  H    0.046181   0.566454
     3  F   -0.088505   0.893447
 Sum of Mulliken charges =  -0.00000   1.00000

 Dipole moment (field-independent basis, Debye):
    X=             -1.4045    Y=              0.0000    Z=             -0.0000  Tot=              1.4045
 Quadrupole moment (field-independent basis, Debye-Ang):
   XX=             -7.4510   YY=             -7.6506   ZZ=             -7.6506
   XY=             -0.0000   XZ=              0.0000   YZ=              0.0000

  Exact polarizability:      59.967      -0.000       2.046       0.000       0.000       2.046
 Approx polarizability:      82.782       0.000       2.003      -0.000      -0.000       2.003

 ******    2 imaginary frequencies (negative Signs) ******

                      1                      2                      3
                      A                      A                      A
 Frequencies --  -2049.4230              -391.8861               994.3009
 Red. masses --      1.0089                 1.1073                 1.0140
 Frc consts  --      2.4966                 0.1002                 0.5906
 IR Inten    --    456.7848                41.3898                 0.3346

                      4
                      A
 Frequencies --    994.3009
 Red. masses --      1.0140
 Frc consts  --      0.5906
 IR Inten    --      0.3346

 - Thermochemistry -
 -------------------
 Temperature   298.150 Kelvin.  Pressure   1.00000 Atm.
 Atom     1 has atomic number  1 and mass   1.00783

 Molecular mass:    21.01405 amu.
 Principal axes and moments of inertia in atomic units:
                           1         2         3
     Eigenvalues --     0.00000  69.17829  69.17829
           X            1.00000  -0.00000   0.00000
           Y            0.00000   1.00000   0.00000
           Z            0.00000   0.00000   1.00000
 This molecule is a prolate symmetric top.
 Rotational symmetry number  1.
 Rotational temperature (Kelvin)      1.25204
 Rotational constant (GHZ):          26.088261
    2 imaginary frequencies ignored.
 Zero-point vibrational energy      11894.5 (Joules/Mol)
                                    2.84285 (Kcal/Mol)
 Vibrational temperatures:   1430.58  1430.58
          (Kelvin)

 Zero-point correction=                           0.004530 (Hartree/Particle)
 Thermal correction to Energy=                    0.006966
 Thermal correction to Enthalpy=                  0.007910
 Thermal correction to Gibbs Free Energy=        -0.015609
 Sum of electronic and zero-point Energies=           -100.809109
 Sum of electronic and thermal Energies=              -100.806673
 Sum of electronic and thermal Enthalpies=            -100.805729
 Sum of electronic and thermal Free Energies=         -100.829248

                     E (Thermal)             CV                S
                      KCal/Mol        Cal/Mol-Kelvin    Cal/Mol-Kelvin
 Total                    4.371              5.735             49.500
 Electronic               0.000              0.000              1.377
 Translational            0.889              2.981             35.068
 Rotational               0.592              1.987             12.863
 Vibrational              2.890              0.767              0.191

 Normal termination of Gaussian 16 at Fri Aug 22 17:25:55 2025.
