 Gaussian 16, Revision C.01,
 Gaussian 16:  ES64L-G16RevC.01  3-Jul-2019

 -----------------------------------------
 # sp b3lyp/6-311g** Force nosymm scf=(qc)
 -----------------------------------------

 -------------------
 Title Card Required
 -------------------
 Symbolic Z-matrix:
 Charge =  0 Multiplicity = 2

                          Input orientation:
 ---------------------------------------------------------------------
 Center     Atomic      Atomic             Coordinates (Angstroms)
 Number     Number       Type             X           Y           Z
 ---------------------------------------------------------------------
      1          1           0        0.000000    0.000000    0.000000
      2          1           0       -2.150000    0.000000    0.000000
      3          9           0        0.700000    0.000000    0.000000
 ---------------------------------------------------------------------

 SCF Done:  E(UB3LYP) =  -100.874771775     a.u. after    6 cycles

 Alpha  occ. eigenvalues --  -24.63101  -1.28145  -0.58607  -0.41670  -0.41670
 Alpha  occ. eigenvalues --   -0.35051
 Alpha virt. eigenvalues --    0.09321   0.24879   0.50818   0.93566   0.93566
 Alpha virt. eigenvalues --    0.95903   1.15788   1.22464   1.22464   1.44168
 Alpha virt. eigenvalues --    1.44168   1.51794   1.96802   2.16885   2.86707

  Beta  occ. eigenvalues --  -24.63079  -1.28080  -0.58507  -0.41654  -0.41654
  Beta virt. eigenvalues --   -0.09797   0.10867   0.36532   0.50821   0.93563
  Beta virt. eigenvalues --    0.93563   0.96125   1.26328   1.42671   1.42671
  Beta virt. eigenvalues --    1.44620   1.44620   1.62053   1.98893   2.43007

 Mulliken charges and spin densities:
               1          2
     1  H    0.251471   0.007124
     2  H    0.008114   0.987617
     3  F   -0.259584   0.005259
 Sum of Mulliken charges =   0.00000   1.00000

 Dipole moment (field-independent basis, Debye):
    X=             -1.6659    Y=             -0.0000    Z=              0.0000  Tot=              1.6659
 Quadrupole moment (field-independent basis, Debye-Ang):
   XX=             -7.0436   YY=             -6.6412   ZZ=             -6.6412
   XY=             -0.0000   XZ=              0.0000   YZ=             -0.0000

  Exact polarizability:       6.216       0.000       2.490       0.000       0.000       2.490
 Approx polarizability:       6.215       0.000       2.480      -0.000       0.000       2.480

 ******    2 imaginary frequencies (negative Signs) ******

                      1                      2                      3
                      A                      A                      A
 Frequencies --  -3510.2062             -3510.2062               249.5809
 Red. masses --      1.0350                 1.0350                 1.0533
 Frc consts  --      7.5134                 7.5134                 0.0387
 IR Inten    --    187.1682               187.1682                 0.2333

                      4
                      A
 Frequencies --   9070.5989
 Red. masses --      1.0583
 Frc consts  --     51.3015
 IR Inten    --    134.0058

 - Thermochemistry -
 -------------------
 Temperature   298.150 Kelvin.  Pressure   1.00000 Atm.
 Atom     1 has atomic number  1 and mass   1.00783

 Molecular mass:    21.01405 amu.
 Principal axes and moments of inertia in atomic units:
                           1         2         3
     Eigenvalues --     0.00000  28.82118  28.82118
           X            1.00000  -0.00000   0.00000
           Y            0.00000   1.00000   0.00000
           Z            0.00000   0.00000   1.00000
 This molecule is a prolate symmetric top.
 Rotational symmetry number  1.
 Rotational temperature (Kelvin)      3.00522
 Rotational constant (GHZ):          62.618569
    2 imaginary frequencies ignored.
 Zero-point vibrational energy      55747.1 (Joules/Mol)
                                   13.32387 (Kcal/Mol)
 Warning -- explicit consideration of   1 degrees of freedom as
           vibrations may cause significant error
 Vibrational temperatures:    359.09 13050.57
          (Kelvin)

 Zero-point correction=                           0.021233 (Hartree/Particle)
 Thermal correction to Energy=                    0.024080
 Thermal correction to Enthalpy=                  0.025025
 Thermal correction to Gibbs Free Energy=         0.001600
 Sum of electronic and zero-point Energies=           -100.853539
 Sum of electronic and thermal Energies=              -100.850691
 Sum of electronic and thermal Enthalpies=            -100.849747
 Sum of electronic and thermal Free Energies=         -100.873172

                     E (Thermal)             CV                S
                      KCal/Mol        Cal/Mol-Kelvin    Cal/Mol-Kelvin
 Total                   15.111              6.731             49.302
 Electronic               0.000              0.000              1.377
 Translational            0.889              2.981             35.068
 Rotational               0.592              1.987             11.123
 Vibrational             13.630              1.763              1.734
 Vibration     1          0.662              1.763              1.734

 Normal termination of Gaussian 16 at Fri Aug 22 15:46:31 2025.
