 Gaussian 16, Revision C.01,
 Gaussian 16:  ES64L-G16RevC.01  3-Jul-2019

 -----------------------------------------
 # sp b3lyp/6-311g** Force nosymm scf=(qc)
 -----------------------------------------

 -------------------
 Title Card Required
 -------------------
 Symbolic Z-matrix:
 Charge =  0 Multiplicity = 2

                          Input orientation:
 ---------------------------------------------------------------------
 Center     Atomic      Atomic             Coordinates (Angstroms)
 Number     Number       Type             X           Y           Z
 ---------------------------------------------------------------------
      1          1           0        0.000000    0.000000    0.000000
      2          1           0       -3.000000    0.000000    0.000000
      3          9           0        3.000000    0.000000    0.000000
 ---------------------------------------------------------------------

 SCF Done:  E(UB3LYP) =  -100.761920526     a.u. after   21 cycles

 Alpha  occ. eigenvalues --  -24.74105  -1.20163  -0.53224  -0.44690  -0.44690
 Alpha  occ. eigenvalues --   -0.32717
 Alpha virt. eigenvalues --   -0.09045   0.24665   0.35090   0.89451   0.92264
 Alpha virt. eigenvalues --    0.92264   1.03937   1.24822   1.24822   1.25621
 Alpha virt. eigenvalues --    1.42484   1.42484   1.42928   2.15485   2.38895

  Beta  occ. eigenvalues --  -24.71077  -1.11485  -0.41660  -0.41660  -0.33761
  Beta virt. eigenvalues --   -0.24790  -0.07639   0.24676   0.36696   0.93726
  Beta virt. eigenvalues --    0.93726   0.98172   1.07732   1.23610   1.23610
  Beta virt. eigenvalues --    1.24557   1.44619   1.44652   1.44652   2.15937

 Mulliken charges and spin densities:
               1          2
     1  H    0.035105  -0.952118
     2  H    0.001616   0.992617
     3  F   -0.036721   0.959501
 Sum of Mulliken charges =  -0.00000   1.00000

 Dipole moment (field-independent basis, Debye):
    X=             -0.5889    Y=             -0.0000    Z=              0.0000  Tot=              0.5889
 Quadrupole moment (field-independent basis, Debye-Ang):
   XX=             -8.1958   YY=             -7.6220   ZZ=             -7.6220
   XY=              0.0000   XZ=             -0.0000   YZ=              0.0000

  Exact polarizability:      35.056       0.000       2.022      -0.000       0.000       2.022
 Approx polarizability:      34.251       0.000       1.924      -0.000      -0.000       1.924

 ******    2 imaginary frequencies (negative Signs) ******

                      1                      2                      3
                      A                      A                      A
 Frequencies --   -444.7166              -187.0275               163.6329
 Red. masses --      1.0258                 1.0876                 1.0179
 Frc consts  --      0.1195                 0.0224                 0.0161
 IR Inten    --     34.4415                 5.7452                 1.0957

                      4
                      A
 Frequencies --    163.6329
 Red. masses --      1.0179
 Frc consts  --      0.0161
 IR Inten    --      1.0957

 - Thermochemistry -
 -------------------
 Temperature   298.150 Kelvin.  Pressure   1.00000 Atm.
 Atom     1 has atomic number  1 and mass   1.00783

 Molecular mass:    21.01405 amu.
 Principal axes and moments of inertia in atomic units:
                           1         2         3
     Eigenvalues --     0.00000 147.97422 147.97422
           X            1.00000  -0.00000   0.00000
           Y            0.00000   1.00000   0.00000
           Z            0.00000   0.00000   1.00000
 This molecule is a prolate symmetric top.
 Rotational symmetry number  1.
 Rotational temperature (Kelvin)      0.58533
 Rotational constant (GHZ):          12.196321
    2 imaginary frequencies ignored.
 Zero-point vibrational energy       1957.5 (Joules/Mol)
                                    0.46785 (Kcal/Mol)
 Warning -- explicit consideration of   2 degrees of freedom as
           vibrations may cause significant error
 Vibrational temperatures:    235.43   235.43
          (Kelvin)

 Zero-point correction=                           0.000746 (Hartree/Particle)
 Thermal correction to Energy=                    0.004346
 Thermal correction to Enthalpy=                  0.005290
 Thermal correction to Gibbs Free Energy=        -0.021238
 Sum of electronic and zero-point Energies=           -100.761175
 Sum of electronic and thermal Energies=              -100.757575
 Sum of electronic and thermal Enthalpies=            -100.756630
 Sum of electronic and thermal Free Energies=         -100.783159

                     E (Thermal)             CV                S
                      KCal/Mol        Cal/Mol-Kelvin    Cal/Mol-Kelvin
 Total                    2.727              8.742             55.834
 Electronic               0.000              0.000              1.377
 Translational            0.889              2.981             35.068
 Rotational               0.592              1.987             14.374
 Vibrational              1.246              3.774              5.015
 Vibration     1          0.623              1.887              2.507
 Vibration     2          0.623              1.887              2.507

 Normal termination of Gaussian 16 at Fri Aug 22 19:32:37 2025.
