 Gaussian 16, Revision C.01,
 Gaussian 16:  ES64L-G16RevC.01  3-Jul-2019

 -----------------------------------------
 # sp b3lyp/6-311g** Force nosymm scf=(qc)
 -----------------------------------------

 -------------------
 Title Card Required
 -------------------
 Symbolic Z-matrix:
 Charge =  0 Multiplicity = 2

                          Input orientation:
 ---------------------------------------------------------------------
 Center     Atomic      Atomic             Coordinates (Angstroms)
 Number     Number       Type             X           Y           Z
 ---------------------------------------------------------------------
      1          1           0        0.000000    0.000000    0.000000
      2          1           0       -0.550000    0.000000    0.000000
      3          9           0        2.600000    0.000000    0.000000
 ---------------------------------------------------------------------

 SCF Done:  E(UB3LYP) =  -100.894740248     a.u. after  184 cycles

 Alpha  occ. eigenvalues --  -24.76761  -1.22538  -0.55721  -0.48244  -0.46868
 Alpha  occ. eigenvalues --   -0.46302
 Alpha virt. eigenvalues --    0.10305   0.19291   0.55118   0.85755   0.90621
 Alpha virt. eigenvalues --    0.93729   1.11364   1.11383   1.12222   1.61765
 Alpha virt. eigenvalues --    1.82996   1.96495   1.96515   2.38606   3.64548

  Beta  occ. eigenvalues --  -24.73597  -1.13446  -0.47815  -0.43696  -0.43555
  Beta virt. eigenvalues --   -0.26334   0.10403   0.19361   0.55229   0.92117
  Beta virt. eigenvalues --    0.95200   0.95643   1.11371   1.11382   1.15751
  Beta virt. eigenvalues --    1.61776   1.83007   1.96494   1.96513   2.38621

 Mulliken charges and spin densities:
               1          2
     1  H   -0.011610  -0.002589
     2  H   -0.003092   0.000348
     3  F    0.014702   1.002242
 Sum of Mulliken charges =   0.00000   1.00000

 Dipole moment (field-independent basis, Debye):
    X=              0.1275    Y=              0.0000    Z=              0.0000  Tot=              0.1275
 Quadrupole moment (field-independent basis, Debye-Ang):
   XX=             -5.9605   YY=             -6.5289   ZZ=             -5.9568
   XY=              0.0000   XZ=              0.0000   YZ=              0.3232

  Exact polarizability:       6.460       0.000       1.939       0.000       0.167       2.235
 Approx polarizability:       6.808       0.000       2.043       0.000       0.211       2.416

 ******    2 imaginary frequencies (negative Signs) ******

                      1                      2                      3
                      A                      A                      A
 Frequencies --  -3684.9926             -3682.2164               176.8184
 Red. masses --      1.0087                 1.0087                 1.1085
 Frc consts  --      8.0706                 8.0584                 0.0204
 IR Inten    --      0.1088                 0.1178                 0.2760

                      4
                      A
 Frequencies --   8343.0972
 Red. masses --      1.0078
 Frc consts  --     41.3323
 IR Inten    --      1.3706

 - Thermochemistry -
 -------------------
 Temperature   298.150 Kelvin.  Pressure   1.00000 Atm.
 Atom     1 has atomic number  1 and mass   1.00783

 Molecular mass:    21.01405 amu.
 Principal axes and moments of inertia in atomic units:
                           1         2         3
     Eigenvalues --     0.00000  54.33364  54.33364
           X            1.00000  -0.00000   0.00000
           Y            0.00000   1.00000   0.00000
           Z            0.00000   0.00000   1.00000
 This molecule is a prolate symmetric top.
 Rotational symmetry number  1.
 Rotational temperature (Kelvin)      1.59411
 Rotational constant (GHZ):          33.215906
    2 imaginary frequencies ignored.
 Zero-point vibrational energy      50960.4 (Joules/Mol)
                                   12.17983 (Kcal/Mol)
 Warning -- explicit consideration of   1 degrees of freedom as
           vibrations may cause significant error
 Vibrational temperatures:    254.40 12003.86
          (Kelvin)

 Zero-point correction=                           0.019410 (Hartree/Particle)
 Thermal correction to Energy=                    0.022368
 Thermal correction to Enthalpy=                  0.023312
 Thermal correction to Gibbs Free Energy=        -0.001010
 Sum of electronic and zero-point Energies=           -100.875330
 Sum of electronic and thermal Energies=              -100.872372
 Sum of electronic and thermal Enthalpies=            -100.871428
 Sum of electronic and thermal Free Energies=         -100.895750

                     E (Thermal)             CV                S
                      KCal/Mol        Cal/Mol-Kelvin    Cal/Mol-Kelvin
 Total                   14.036              6.839             51.190
 Electronic               0.000              0.000              1.377
 Translational            0.889              2.981             35.068
 Rotational               0.592              1.987             12.383
 Vibrational             12.555              1.871              2.362
 Vibration     1          0.628              1.871              2.362

 Normal termination of Gaussian 16 at Fri Aug 22 17:57:49 2025.
