 Gaussian 16, Revision C.01,
 Gaussian 16:  ES64L-G16RevC.01  3-Jul-2019

 -----------------------------------------
 # sp b3lyp/6-311g** Force nosymm scf=(qc)
 -----------------------------------------

 -------------------
 Title Card Required
 -------------------
 Symbolic Z-matrix:
 Charge =  0 Multiplicity = 2

                          Input orientation:
 ---------------------------------------------------------------------
 Center     Atomic      Atomic             Coordinates (Angstroms)
 Number     Number       Type             X           Y           Z
 ---------------------------------------------------------------------
      1          1           0        0.000000    0.000000    0.000000
      2          1           0       -2.850000    0.000000    0.000000
      3          9           0        3.700000    0.000000    0.000000
 ---------------------------------------------------------------------

 SCF Done:  E(UB3LYP) =  -100.760247165     a.u. after   29 cycles

 Alpha  occ. eigenvalues --  -24.75680  -1.21621  -0.54804  -0.46014  -0.46014
 Alpha  occ. eigenvalues --   -0.32433
 Alpha virt. eigenvalues --   -0.08247   0.25262   0.35750   0.87061   0.91296
 Alpha virt. eigenvalues --    0.91296   1.01390   1.25123   1.25123   1.26138
 Alpha virt. eigenvalues --    1.43538   1.43538   1.43754   2.15943   2.38924

  Beta  occ. eigenvalues --  -24.72548  -1.12617  -0.42875  -0.42875  -0.32706
  Beta virt. eigenvalues --   -0.25638  -0.07888   0.25061   0.36283   0.92790
  Beta virt. eigenvalues --    0.92790   0.96331   1.05473   1.24813   1.24813
  Beta virt. eigenvalues --    1.25795   1.44091   1.44091   1.44307   2.16135

 Mulliken charges and spin densities:
               1          2
     1  H    0.005540  -0.981757
     2  H    0.000650   0.988665
     3  F   -0.006189   0.993092
 Sum of Mulliken charges =   0.00000   1.00000

 Dipole moment (field-independent basis, Debye):
    X=             -0.1267    Y=             -0.0000    Z=             -0.0000  Tot=              0.1267
 Quadrupole moment (field-independent basis, Debye-Ang):
   XX=             -7.0273   YY=             -7.6425   ZZ=             -7.6425
   XY=             -0.0000   XZ=             -0.0000   YZ=             -0.0000

  Exact polarizability:      21.884       0.000       2.023       0.000       0.000       2.023
 Approx polarizability:      16.199      -0.000       1.932      -0.000       0.000       1.932

 ******    2 imaginary frequencies (negative Signs) ******

                      1                      2                      3
                      A                      A                      A
 Frequencies --   -415.0280              -107.5566               148.2961
 Red. masses --      1.0084                 1.1079                 1.0151
 Frc consts  --      0.1023                 0.0076                 0.0132
 IR Inten    --      2.8372                 2.4262                 0.0270

                      4
                      A
 Frequencies --    148.2961
 Red. masses --      1.0151
 Frc consts  --      0.0132
 IR Inten    --      0.0270

 - Thermochemistry -
 -------------------
 Temperature   298.150 Kelvin.  Pressure   1.00000 Atm.
 Atom     1 has atomic number  1 and mass   1.00783

 Molecular mass:    21.01405 amu.
 Principal axes and moments of inertia in atomic units:
                           1         2         3
     Eigenvalues --     0.00000 185.54238 185.54238
           X            1.00000  -0.00000   0.00000
           Y            0.00000   1.00000   0.00000
           Z            0.00000   0.00000   1.00000
 This molecule is a prolate symmetric top.
 Rotational symmetry number  1.
 Rotational temperature (Kelvin)      0.46681
 Rotational constant (GHZ):           9.726841
    2 imaginary frequencies ignored.
 Zero-point vibrational energy       1774.0 (Joules/Mol)
                                    0.42400 (Kcal/Mol)
 Warning -- explicit consideration of   2 degrees of freedom as
           vibrations may cause significant error
 Vibrational temperatures:    213.37   213.37
          (Kelvin)

 Zero-point correction=                           0.000676 (Hartree/Particle)
 Thermal correction to Energy=                    0.004329
 Thermal correction to Enthalpy=                  0.005273
 Thermal correction to Gibbs Free Energy=        -0.021647
 Sum of electronic and zero-point Energies=           -100.759571
 Sum of electronic and thermal Energies=              -100.755918
 Sum of electronic and thermal Enthalpies=            -100.754974
 Sum of electronic and thermal Free Energies=         -100.781894

                     E (Thermal)             CV                S
                      KCal/Mol        Cal/Mol-Kelvin    Cal/Mol-Kelvin
 Total                    2.716              8.777             56.657
 Electronic               0.000              0.000              1.377
 Translational            0.889              2.981             35.068
 Rotational               0.592              1.987             14.823
 Vibrational              1.235              3.809              5.388
 Vibration     1          0.618              1.905              2.694
 Vibration     2          0.618              1.905              2.694

 Normal termination of Gaussian 16 at Sat Aug 23 00:03:54 2025.
