 Gaussian 16, Revision C.01,
 Gaussian 16:  ES64L-G16RevC.01  3-Jul-2019

 -----------------------------------------
 # sp b3lyp/6-311g** Force nosymm scf=(qc)
 -----------------------------------------

 -------------------
 Title Card Required
 -------------------
 Symbolic Z-matrix:
 Charge =  0 Multiplicity = 2

                          Input orientation:
 ---------------------------------------------------------------------
 Center     Atomic      Atomic             Coordinates (Angstroms)
 Number     Number       Type             X           Y           Z
 ---------------------------------------------------------------------
      1          1           0        0.000000    0.000000    0.000000
      2          1           0       -1.100000    0.000000    0.000000
      3          9           0        1.600000    0.000000    0.000000
 ---------------------------------------------------------------------

 SCF Done:  E(UB3LYP) =  -100.907078579     a.u. after   12 cycles

 Alpha  occ. eigenvalues --  -24.69180  -1.15973  -0.51442  -0.40884  -0.40884
 Alpha  occ. eigenvalues --   -0.40461
 Alpha virt. eigenvalues --   -0.00123   0.20390   0.33184   0.90926   0.90926
 Alpha virt. eigenvalues --    0.97653   1.08442   1.08442   1.10726   1.57385
 Alpha virt. eigenvalues --    1.57385   1.58165   2.15941   2.28167   2.52482

  Beta  occ. eigenvalues --  -24.66825  -1.09485  -0.42391  -0.38587  -0.38587
  Beta virt. eigenvalues --   -0.23676   0.02399   0.22029   0.34517   0.91801
  Beta virt. eigenvalues --    0.91801   1.03861   1.11398   1.11398   1.13568
  Beta virt. eigenvalues --    1.59009   1.59009   1.61987   2.18562   2.32105

 Mulliken charges and spin densities:
               1          2
     1  H    0.136106  -0.128632
     2  H    0.058784   0.403655
     3  F   -0.194890   0.724977
 Sum of Mulliken charges =   0.00000   1.00000

 Dipole moment (field-independent basis, Debye):
    X=             -1.8156    Y=              0.0000    Z=             -0.0000  Tot=              1.8156
 Quadrupole moment (field-independent basis, Debye-Ang):
   XX=             -7.3819   YY=             -7.1397   ZZ=             -7.1397
   XY=              0.0000   XZ=             -0.0000   YZ=              0.0000

  Exact polarizability:      32.801       0.000       2.324      -0.000      -0.000       2.324
 Approx polarizability:      49.042      -0.000       2.306       0.000      -0.000       2.306

 ******    1 imaginary frequencies (negative Signs) ******

                      1                      2                      3
                      A                      A                      A
 Frequencies --  -1954.2141               597.0844              1309.3669
 Red. masses --      1.0301                 1.0828                 1.0140
 Frc consts  --      2.3177                 0.2274                 1.0243
 IR Inten    --   1115.6017                56.9014                 3.5121

                      4
                      A
 Frequencies --   1309.3669
 Red. masses --      1.0140
 Frc consts  --      1.0243
 IR Inten    --      3.5121

 - Thermochemistry -
 -------------------
 Temperature   298.150 Kelvin.  Pressure   1.00000 Atm.
 Atom     1 has atomic number  1 and mass   1.00783

 Molecular mass:    21.01405 amu.
 Principal axes and moments of inertia in atomic units:
                           1         2         3
     Eigenvalues --     0.00000  32.25873  32.25873
           X            1.00000  -0.00000   0.00000
           Y            0.00000   1.00000   0.00000
           Z            0.00000   0.00000   1.00000
 This molecule is a prolate symmetric top.
 Rotational symmetry number  1.
 Rotational temperature (Kelvin)      2.68498
 Rotational constant (GHZ):          55.945819
    1 imaginary frequencies ignored.
 Zero-point vibrational energy      19234.9 (Joules/Mol)
                                    4.59724 (Kcal/Mol)
 Warning -- explicit consideration of   1 degrees of freedom as
           vibrations may cause significant error
 Vibrational temperatures:    859.07  1883.89  1883.89
          (Kelvin)

 Zero-point correction=                           0.007326 (Hartree/Particle)
 Thermal correction to Energy=                    0.009870
 Thermal correction to Enthalpy=                  0.010814
 Thermal correction to Gibbs Free Energy=        -0.012135
 Sum of electronic and zero-point Energies=           -100.899752
 Sum of electronic and thermal Energies=              -100.897209
 Sum of electronic and thermal Enthalpies=            -100.896265
 Sum of electronic and thermal Free Energies=         -100.919213

                     E (Thermal)             CV                S
                      KCal/Mol        Cal/Mol-Kelvin    Cal/Mol-Kelvin
 Total                    6.193              6.293             48.299
 Electronic               0.000              0.000              1.377
 Translational            0.889              2.981             35.068
 Rotational               0.592              1.987             11.347
 Vibrational              4.712              1.325              0.507
 Vibration     1          0.955              1.038              0.455

 Normal termination of Gaussian 16 at Fri Aug 22 16:30:19 2025.
