 Gaussian 16, Revision C.01,
 Gaussian 16:  ES64L-G16RevC.01  3-Jul-2019

 -----------------------------------------
 # sp b3lyp/6-311g** Force nosymm scf=(qc)
 -----------------------------------------

 -------------------
 Title Card Required
 -------------------
 Symbolic Z-matrix:
 Charge =  0 Multiplicity = 2

                          Input orientation:
 ---------------------------------------------------------------------
 Center     Atomic      Atomic             Coordinates (Angstroms)
 Number     Number       Type             X           Y           Z
 ---------------------------------------------------------------------
      1          1           0        0.000000    0.000000    0.000000
      2          1           0       -0.550000    0.000000    0.000000
      3          9           0        2.050000    0.000000    0.000000
 ---------------------------------------------------------------------

 SCF Done:  E(UB3LYP) =  -100.893787381     a.u. after   98 cycles

 Alpha  occ. eigenvalues --  -24.75535  -1.21553  -0.55703  -0.48407  -0.45938
 Alpha  occ. eigenvalues --   -0.45938
 Alpha virt. eigenvalues --    0.10839   0.19642   0.51512   0.90553   0.90553
 Alpha virt. eigenvalues --    0.92549   1.10262   1.10262   1.17430   1.64079
 Alpha virt. eigenvalues --    1.81489   1.95371   1.95371   2.42972   3.67656

  Beta  occ. eigenvalues --  -24.72438  -1.12698  -0.49158  -0.42844  -0.42844
  Beta virt. eigenvalues --   -0.25768   0.11366   0.20206   0.52044   0.91969
  Beta virt. eigenvalues --    0.91969   1.00352   1.10646   1.10646   1.21381
  Beta virt. eigenvalues --    1.64864   1.81892   1.95503   1.95503   2.43477

 Mulliken charges and spin densities:
               1          2
     1  H   -0.008665  -0.015506
     2  H    0.024083   0.041957
     3  F   -0.015417   0.973549
 Sum of Mulliken charges =  -0.00000   1.00000

 Dipole moment (field-independent basis, Debye):
    X=             -0.2060    Y=              0.0000    Z=             -0.0000  Tot=              0.2060
 Quadrupole moment (field-independent basis, Debye-Ang):
   XX=             -5.7058   YY=             -6.6425   ZZ=             -6.6425
   XY=              0.0000   XZ=             -0.0000   YZ=             -0.0000

  Exact polarizability:      10.488       0.000       1.969      -0.000       0.000       1.969
 Approx polarizability:      10.847       0.000       2.047      -0.000      -0.000       2.047

 ******    2 imaginary frequencies (negative Signs) ******

                      1                      2                      3
                      A                      A                      A
 Frequencies --  -3724.3338             -3724.3338               164.1820
 Red. masses --      1.0092                 1.0092                 1.1085
 Frc consts  --      8.2477                 8.2477                 0.0176
 IR Inten    --      0.6257                 0.6257                 8.9792

                      4
                      A
 Frequencies --   8317.8847
 Red. masses --      1.0078
 Frc consts  --     41.0829
 IR Inten    --     78.4316

 - Thermochemistry -
 -------------------
 Temperature   298.150 Kelvin.  Pressure   1.00000 Atm.
 Atom     1 has atomic number  1 and mass   1.00783

 Molecular mass:    21.01405 amu.
 Principal axes and moments of inertia in atomic units:
                           1         2         3
     Eigenvalues --     0.00000  35.72194  35.72194
           X            1.00000  -0.00000   0.00000
           Y            0.00000   1.00000   0.00000
           Z            0.00000   0.00000   1.00000
 This molecule is a prolate symmetric top.
 Rotational symmetry number  1.
 Rotational temperature (Kelvin)      2.42467
 Rotational constant (GHZ):          50.521929
    2 imaginary frequencies ignored.
 Zero-point vibrational energy      50734.0 (Joules/Mol)
                                   12.12572 (Kcal/Mol)
 Warning -- explicit consideration of   1 degrees of freedom as
           vibrations may cause significant error
 Vibrational temperatures:    236.22 11967.58
          (Kelvin)

 Zero-point correction=                           0.019324 (Hartree/Particle)
 Thermal correction to Energy=                    0.022303
 Thermal correction to Enthalpy=                  0.023247
 Thermal correction to Gibbs Free Energy=        -0.000745
 Sum of electronic and zero-point Energies=           -100.874464
 Sum of electronic and thermal Energies=              -100.871484
 Sum of electronic and thermal Enthalpies=            -100.870540
 Sum of electronic and thermal Free Energies=         -100.894532

                     E (Thermal)             CV                S
                      KCal/Mol        Cal/Mol-Kelvin    Cal/Mol-Kelvin
 Total                   13.995              6.854             50.496
 Electronic               0.000              0.000              1.377
 Translational            0.889              2.981             35.068
 Rotational               0.592              1.987             11.549
 Vibrational             12.514              1.886              2.501
 Vibration     1          0.623              1.886              2.501

 Normal termination of Gaussian 16 at Fri Aug 22 16:58:52 2025.
