 Gaussian 16, Revision C.01,
 Gaussian 16:  ES64L-G16RevC.01  3-Jul-2019

 -----------------------------------------
 # sp b3lyp/6-311g** Force nosymm scf=(qc)
 -----------------------------------------

 -------------------
 Title Card Required
 -------------------
 Symbolic Z-matrix:
 Charge =  0 Multiplicity = 2

                          Input orientation:
 ---------------------------------------------------------------------
 Center     Atomic      Atomic             Coordinates (Angstroms)
 Number     Number       Type             X           Y           Z
 ---------------------------------------------------------------------
      1          1           0        0.000000    0.000000    0.000000
      2          1           0       -2.400000    0.000000    0.000000
      3          9           0        3.950000    0.000000    0.000000
 ---------------------------------------------------------------------

 SCF Done:  E(UB3LYP) =  -100.763755067     a.u. after   60 cycles

 Alpha  occ. eigenvalues --  -24.75898  -1.21825  -0.55023  -0.46201  -0.46201
 Alpha  occ. eigenvalues --   -0.32587
 Alpha virt. eigenvalues --   -0.09525   0.25894   0.34462   0.86601   0.91153
 Alpha virt. eigenvalues --    0.91153   1.01084   1.25115   1.25115   1.26319
 Alpha virt. eigenvalues --    1.41129   1.41129   1.43608   2.15522   2.36082

  Beta  occ. eigenvalues --  -24.72753  -1.12781  -0.43048  -0.43048  -0.32706
  Beta virt. eigenvalues --   -0.25754  -0.09336   0.25746   0.34716   0.92652
  Beta virt. eigenvalues --    0.92652   0.95979   1.05213   1.24985   1.24985
  Beta virt. eigenvalues --    1.26182   1.41394   1.41394   1.43857   2.15636

 Mulliken charges and spin densities:
               1          2
     1  H    0.001275  -0.956232
     2  H    0.001185   0.959061
     3  F   -0.002460   0.997171
 Sum of Mulliken charges =   0.00000   1.00000

 Dipole moment (field-independent basis, Debye):
    X=             -0.0634    Y=              0.0000    Z=             -0.0000  Tot=              0.0634
 Quadrupole moment (field-independent basis, Debye-Ang):
   XX=             -6.6426   YY=             -7.6769   ZZ=             -7.6769
   XY=              0.0000   XZ=             -0.0000   YZ=              0.0000

  Exact polarizability:      21.924      -0.000       2.019      -0.000      -0.000       2.019
 Approx polarizability:      17.173       0.000       1.931      -0.000      -0.000       1.931

 ******    2 imaginary frequencies (negative Signs) ******

                      1                      2                      3
                      A                      A                      A
 Frequencies --   -762.2646               -76.4411               286.7844
 Red. masses --      1.0078                 1.1085                 1.0130
 Frc consts  --      0.3450                 0.0038                 0.0491
 IR Inten    --      0.6231                 0.7842                 0.0007

                      4
                      A
 Frequencies --    286.7844
 Red. masses --      1.0130
 Frc consts  --      0.0491
 IR Inten    --      0.0007

 - Thermochemistry -
 -------------------
 Temperature   298.150 Kelvin.  Pressure   1.00000 Atm.
 Atom     1 has atomic number  1 and mass   1.00783

 Molecular mass:    21.01405 amu.
 Principal axes and moments of inertia in atomic units:
                           1         2         3
     Eigenvalues --     0.00000 182.96269 182.96269
           X            1.00000  -0.00000   0.00000
           Y            0.00000   1.00000   0.00000
           Z            0.00000   0.00000   1.00000
 This molecule is a prolate symmetric top.
 Rotational symmetry number  1.
 Rotational temperature (Kelvin)      0.47340
 Rotational constant (GHZ):           9.863985
    2 imaginary frequencies ignored.
 Zero-point vibrational energy       3430.7 (Joules/Mol)
                                    0.81996 (Kcal/Mol)
 Warning -- explicit consideration of   2 degrees of freedom as
           vibrations may cause significant error
 Vibrational temperatures:    412.62   412.62
          (Kelvin)

 Zero-point correction=                           0.001307 (Hartree/Particle)
 Thermal correction to Energy=                    0.004541
 Thermal correction to Enthalpy=                  0.005485
 Thermal correction to Gibbs Free Energy=        -0.020280
 Sum of electronic and zero-point Energies=           -100.762448
 Sum of electronic and thermal Energies=              -100.759214
 Sum of electronic and thermal Enthalpies=            -100.758270
 Sum of electronic and thermal Free Energies=         -100.784035

                     E (Thermal)             CV                S
                      KCal/Mol        Cal/Mol-Kelvin    Cal/Mol-Kelvin
 Total                    2.850              8.365             54.227
 Electronic               0.000              0.000              1.377
 Translational            0.889              2.981             35.068
 Rotational               0.592              1.987             14.796
 Vibrational              1.368              3.396              2.986
 Vibration     1          0.684              1.698              1.493
 Vibration     2          0.684              1.698              1.493

 Normal termination of Gaussian 16 at Sat Aug 23 01:39:16 2025.
