 Gaussian 16, Revision C.01,
 Gaussian 16:  ES64L-G16RevC.01  3-Jul-2019

 -----------------------------------------
 # sp b3lyp/6-311g** Force nosymm scf=(qc)
 -----------------------------------------

 -------------------
 Title Card Required
 -------------------
 Symbolic Z-matrix:
 Charge =  0 Multiplicity = 2

                          Input orientation:
 ---------------------------------------------------------------------
 Center     Atomic      Atomic             Coordinates (Angstroms)
 Number     Number       Type             X           Y           Z
 ---------------------------------------------------------------------
      1          1           0        0.000000    0.000000    0.000000
      2          1           0       -2.400000    0.000000    0.000000
      3          9           0        1.900000    0.000000    0.000000
 ---------------------------------------------------------------------

 SCF Done:  E(UB3LYP) =  -100.799172207     a.u. after   14 cycles

 Alpha  occ. eigenvalues --  -24.67239  -1.13529  -0.46193  -0.38896  -0.38896
 Alpha  occ. eigenvalues --   -0.35402
 Alpha virt. eigenvalues --   -0.14162   0.23870   0.30065   0.91111   0.95034
 Alpha virt. eigenvalues --    0.95034   1.06186   1.22279   1.22279   1.25983
 Alpha virt. eigenvalues --    1.34229   1.34229   1.65121   2.12913   2.27582

  Beta  occ. eigenvalues --  -24.65059  -1.07474  -0.38295  -0.36756  -0.36756
  Beta virt. eigenvalues --   -0.20221  -0.10248   0.24828   0.34159   0.92813
  Beta virt. eigenvalues --    0.95404   0.95404   1.08694   1.23194   1.23194
  Beta virt. eigenvalues --    1.40261   1.40261   1.42447   1.59845   2.13091

 Mulliken charges and spin densities:
               1          2
     1  H    0.198648  -0.646658
     2  H    0.023667   0.961284
     3  F   -0.222315   0.685374
 Sum of Mulliken charges =   0.00000   1.00000

 Dipole moment (field-independent basis, Debye):
    X=             -2.3482    Y=             -0.0000    Z=             -0.0000  Tot=              2.3482
 Quadrupole moment (field-independent basis, Debye-Ang):
   XX=             -9.3524   YY=             -7.5001   ZZ=             -7.5001
   XY=             -0.0000   XZ=             -0.0000   YZ=              0.0000

  Exact polarizability:      37.876      -0.000       2.077      -0.000       0.000       2.077
 Approx polarizability:      46.620      -0.000       1.972      -0.000       0.000       1.972

 ******    2 imaginary frequencies (negative Signs) ******

                      1                      2                      3
                      A                      A                      A
 Frequencies --  -1400.5456              -433.8559               588.7879
 Red. masses --      1.0432                 1.0686                 1.0210
 Frc consts  --      1.2057                 0.1185                 0.2085
 IR Inten    --     93.8985                17.2628                31.4588

                      4
                      A
 Frequencies --    588.7879
 Red. masses --      1.0210
 Frc consts  --      0.2085
 IR Inten    --     31.4588

 - Thermochemistry -
 -------------------
 Temperature   298.150 Kelvin.  Pressure   1.00000 Atm.
 Atom     1 has atomic number  1 and mass   1.00783

 Molecular mass:    21.01405 amu.
 Principal axes and moments of inertia in atomic units:
                           1         2         3
     Eigenvalues --     0.00000  72.90308  72.90308
           X            1.00000  -0.00000   0.00000
           Y            0.00000   1.00000   0.00000
           Z            0.00000   0.00000   1.00000
 This molecule is a prolate symmetric top.
 Rotational symmetry number  1.
 Rotational temperature (Kelvin)      1.18807
 Rotational constant (GHZ):          24.755350
    2 imaginary frequencies ignored.
 Zero-point vibrational energy       7043.5 (Joules/Mol)
                                    1.68343 (Kcal/Mol)
 Warning -- explicit consideration of   2 degrees of freedom as
           vibrations may cause significant error
 Vibrational temperatures:    847.13   847.13
          (Kelvin)

 Zero-point correction=                           0.002683 (Hartree/Particle)
 Thermal correction to Energy=                    0.005376
 Thermal correction to Enthalpy=                  0.006320
 Thermal correction to Gibbs Free Energy=        -0.017604
 Sum of electronic and zero-point Energies=           -100.796489
 Sum of electronic and thermal Energies=              -100.793797
 Sum of electronic and thermal Enthalpies=            -100.792852
 Sum of electronic and thermal Free Energies=         -100.816776

                     E (Thermal)             CV                S
                      KCal/Mol        Cal/Mol-Kelvin    Cal/Mol-Kelvin
 Total                    3.373              7.079             50.351
 Electronic               0.000              0.000              1.377
 Translational            0.889              2.981             35.068
 Rotational               0.592              1.987             12.967
 Vibrational              1.892              2.111              0.939
 Vibration     1          0.946              1.056              0.469
 Vibration     2          0.946              1.056              0.469

 Normal termination of Gaussian 16 at Fri Aug 22 16:50:22 2025.
