 Gaussian 16, Revision C.01,
 Gaussian 16:  ES64L-G16RevC.01  3-Jul-2019

 -----------------------------------------
 # sp b3lyp/6-311g** Force nosymm scf=(qc)
 -----------------------------------------

 -------------------
 Title Card Required
 -------------------
 Symbolic Z-matrix:
 Charge =  0 Multiplicity = 2

                          Input orientation:
 ---------------------------------------------------------------------
 Center     Atomic      Atomic             Coordinates (Angstroms)
 Number     Number       Type             X           Y           Z
 ---------------------------------------------------------------------
      1          1           0        0.000000    0.000000    0.000000
      2          1           0       -1.800000    0.000000    0.000000
      3          9           0        1.600000    0.000000    0.000000
 ---------------------------------------------------------------------

 SCF Done:  E(UB3LYP) =  -100.847958426     a.u. after   13 cycles

 Alpha  occ. eigenvalues --  -24.64759  -1.11035  -0.44978  -0.37978  -0.36854
 Alpha  occ. eigenvalues --   -0.36854
 Alpha virt. eigenvalues --   -0.11232   0.22450   0.28525   0.94099   0.94489
 Alpha virt. eigenvalues --    0.94489   1.04264   1.18931   1.18931   1.34921
 Alpha virt. eigenvalues --    1.34921   1.36483   1.75000   2.12576   2.32177

  Beta  occ. eigenvalues --  -24.63365  -1.07273  -0.40337  -0.35513  -0.35513
  Beta virt. eigenvalues --   -0.20401  -0.08064   0.25472   0.30477   0.94355
  Beta virt. eigenvalues --    0.94355   0.97653   1.07221   1.26826   1.26826
  Beta virt. eigenvalues --    1.36237   1.36237   1.45110   1.76078   2.15490

 Mulliken charges and spin densities:
               1          2
     1  H    0.250219  -0.304441
     2  H    0.061654   0.868214
     3  F   -0.311873   0.436227
 Sum of Mulliken charges =   0.00000   1.00000

 Dipole moment (field-independent basis, Debye):
    X=             -2.9777    Y=              0.0000    Z=              0.0000  Tot=              2.9777
 Quadrupole moment (field-independent basis, Debye-Ang):
   XX=             -8.6144   YY=             -7.3502   ZZ=             -7.3502
   XY=              0.0000   XZ=              0.0000   YZ=              0.0000

  Exact polarizability:      37.857      -0.000       2.203      -0.000       0.000       2.203
 Approx polarizability:      51.651      -0.000       2.127      -0.000      -0.000       2.127

 ******    2 imaginary frequencies (negative Signs) ******

                      1                      2                      3
                      A                      A                      A
 Frequencies --  -2239.1420              -549.9780               926.6261
 Red. masses --      1.0293                 1.0836                 1.0194
 Frc consts  --      3.0407                 0.1931                 0.5157
 IR Inten    --    105.2760                 1.1007                38.0764

                      4
                      A
 Frequencies --    926.6261
 Red. masses --      1.0194
 Frc consts  --      0.5157
 IR Inten    --     38.0764

 - Thermochemistry -
 -------------------
 Temperature   298.150 Kelvin.  Pressure   1.00000 Atm.
 Atom     1 has atomic number  1 and mass   1.00783

 Molecular mass:    21.01405 amu.
 Principal axes and moments of inertia in atomic units:
                           1         2         3
     Eigenvalues --     0.00000  46.50283  46.50283
           X            1.00000  -0.00000   0.00000
           Y            0.00000   1.00000   0.00000
           Z            0.00000   0.00000   1.00000
 This molecule is a prolate symmetric top.
 Rotational symmetry number  1.
 Rotational temperature (Kelvin)      1.86255
 Rotational constant (GHZ):          38.809279
    2 imaginary frequencies ignored.
 Zero-point vibrational energy      11084.9 (Joules/Mol)
                                    2.64936 (Kcal/Mol)
 Vibrational temperatures:   1333.21  1333.21
          (Kelvin)

 Zero-point correction=                           0.004222 (Hartree/Particle)
 Thermal correction to Energy=                    0.006680
 Thermal correction to Enthalpy=                  0.007624
 Thermal correction to Gibbs Free Energy=        -0.015548
 Sum of electronic and zero-point Energies=           -100.843736
 Sum of electronic and thermal Energies=              -100.841278
 Sum of electronic and thermal Enthalpies=            -100.840334
 Sum of electronic and thermal Free Energies=         -100.863506

                     E (Thermal)             CV                S
                      KCal/Mol        Cal/Mol-Kelvin    Cal/Mol-Kelvin
 Total                    4.192              5.897             48.770
 Electronic               0.000              0.000              1.377
 Translational            0.889              2.981             35.068
 Rotational               0.592              1.987             12.074
 Vibrational              2.711              0.929              0.251

 Normal termination of Gaussian 16 at Fri Aug 22 16:30:59 2025.
