 Gaussian 16, Revision C.01,
 Gaussian 16:  ES64L-G16RevC.01  3-Jul-2019

 -----------------------------------------
 # sp b3lyp/6-311g** Force nosymm scf=(qc)
 -----------------------------------------

 -------------------
 Title Card Required
 -------------------
 Symbolic Z-matrix:
 Charge =  0 Multiplicity = 2

                          Input orientation:
 ---------------------------------------------------------------------
 Center     Atomic      Atomic             Coordinates (Angstroms)
 Number     Number       Type             X           Y           Z
 ---------------------------------------------------------------------
      1          1           0        0.000000    0.000000    0.000000
      2          1           0       -3.100000    0.000000    0.000000
      3          9           0        2.650000    0.000000    0.000000
 ---------------------------------------------------------------------

 SCF Done:  E(UB3LYP) =  -100.765335822     a.u. after   21 cycles

 Alpha  occ. eigenvalues --  -24.72572  -1.18736  -0.51682  -0.43406  -0.43406
 Alpha  occ. eigenvalues --   -0.32966
 Alpha virt. eigenvalues --   -0.10047   0.24144   0.34955   0.90058   0.93161
 Alpha virt. eigenvalues --    0.93161   1.05928   1.24566   1.24566   1.25238
 Alpha virt. eigenvalues --    1.41347   1.41347   1.43145   2.15104   2.36673

  Beta  occ. eigenvalues --  -24.69659  -1.10421  -0.40497  -0.40497  -0.34791
  Beta virt. eigenvalues --   -0.23876  -0.07530   0.24563   0.37007   0.94574
  Beta virt. eigenvalues --    0.94574   0.97692   1.08945   1.22584   1.22584
  Beta virt. eigenvalues --    1.26448   1.44818   1.44937   1.44937   2.14453

 Mulliken charges and spin densities:
               1          2
     1  H    0.068161  -0.915893
     2  H    0.002055   0.994302
     3  F   -0.070217   0.921591
 Sum of Mulliken charges =  -0.00000   1.00000

 Dipole moment (field-independent basis, Debye):
    X=             -0.9815    Y=             -0.0000    Z=             -0.0000  Tot=              0.9815
 Quadrupole moment (field-independent basis, Debye-Ang):
   XX=             -8.9192   YY=             -7.5954   ZZ=             -7.5954
   XY=             -0.0000   XZ=             -0.0000   YZ=              0.0000

  Exact polarizability:      34.247      -0.000       2.021      -0.000      -0.000       2.021
 Approx polarizability:      39.476      -0.000       1.920      -0.000       0.000       1.920

 ******    2 imaginary frequencies (negative Signs) ******

                      1                      2                      3
                      A                      A                      A
 Frequencies --   -559.1776              -187.9105               212.8738
 Red. masses --      1.0436                 1.0683                 1.0200
 Frc consts  --      0.1923                 0.0222                 0.0272
 IR Inten    --     64.6478                 2.4177                 4.2740

                      4
                      A
 Frequencies --    212.8738
 Red. masses --      1.0200
 Frc consts  --      0.0272
 IR Inten    --      4.2740

 - Thermochemistry -
 -------------------
 Temperature   298.150 Kelvin.  Pressure   1.00000 Atm.
 Atom     1 has atomic number  1 and mass   1.00783

 Molecular mass:    21.01405 amu.
 Principal axes and moments of inertia in atomic units:
                           1         2         3
     Eigenvalues --     0.00000 132.08711 132.08711
           X            1.00000  -0.00000   0.00000
           Y            0.00000   1.00000   0.00000
           Z            0.00000   0.00000   1.00000
 This molecule is a prolate symmetric top.
 Rotational symmetry number  1.
 Rotational temperature (Kelvin)      0.65573
 Rotational constant (GHZ):          13.663265
    2 imaginary frequencies ignored.
 Zero-point vibrational energy       2546.5 (Joules/Mol)
                                    0.60864 (Kcal/Mol)
 Warning -- explicit consideration of   2 degrees of freedom as
           vibrations may cause significant error
 Vibrational temperatures:    306.28   306.28
          (Kelvin)

 Zero-point correction=                           0.000970 (Hartree/Particle)
 Thermal correction to Energy=                    0.004412
 Thermal correction to Enthalpy=                  0.005356
 Thermal correction to Gibbs Free Energy=        -0.020601
 Sum of electronic and zero-point Energies=           -100.764366
 Sum of electronic and thermal Energies=              -100.760924
 Sum of electronic and thermal Enthalpies=            -100.759980
 Sum of electronic and thermal Free Energies=         -100.785937

                     E (Thermal)             CV                S
                      KCal/Mol        Cal/Mol-Kelvin    Cal/Mol-Kelvin
 Total                    2.769              8.611             54.631
 Electronic               0.000              0.000              1.377
 Translational            0.889              2.981             35.068
 Rotational               0.592              1.987             14.148
 Vibrational              1.287              3.643              4.038
 Vibration     1          0.644              1.821              2.019
 Vibration     2          0.644              1.821              2.019

 Normal termination of Gaussian 16 at Fri Aug 22 18:15:27 2025.
