 Gaussian 16, Revision C.01,
 Gaussian 16:  ES64L-G16RevC.01  3-Jul-2019

 -----------------------------------------
 # sp b3lyp/6-311g** Force nosymm scf=(qc)
 -----------------------------------------

 -------------------
 Title Card Required
 -------------------
 Symbolic Z-matrix:
 Charge =  0 Multiplicity = 2

                          Input orientation:
 ---------------------------------------------------------------------
 Center     Atomic      Atomic             Coordinates (Angstroms)
 Number     Number       Type             X           Y           Z
 ---------------------------------------------------------------------
      1          1           0        0.000000    0.000000    0.000000
      2          1           0       -2.050000    0.000000    0.000000
      3          9           0        1.000000    0.000000    0.000000
 ---------------------------------------------------------------------

 SCF Done:  E(UB3LYP) =  -100.967010341     a.u. after    6 cycles

 Alpha  occ. eigenvalues --  -24.63832  -1.15800  -0.51669  -0.38513  -0.38513
 Alpha  occ. eigenvalues --   -0.36004
 Alpha virt. eigenvalues --    0.03557   0.24277   0.33988   0.94300   0.94300
 Alpha virt. eigenvalues --    0.98450   1.14878   1.21377   1.21377   1.36348
 Alpha virt. eigenvalues --    1.36348   1.48197   1.87372   2.16863   2.34803

  Beta  occ. eigenvalues --  -24.63761  -1.15624  -0.51286  -0.38452  -0.38452
  Beta virt. eigenvalues --   -0.12305   0.05858   0.33717   0.35115   0.94309
  Beta virt. eigenvalues --    0.94309   0.98846   1.24308   1.35718   1.35718
  Beta virt. eigenvalues --    1.41679   1.41679   1.57112   1.89343   2.34090

 Mulliken charges and spin densities:
               1          2
     1  H    0.306819   0.004555
     2  H    0.015908   0.975866
     3  F   -0.322727   0.019578
 Sum of Mulliken charges =   0.00000   1.00000

 Dipole moment (field-independent basis, Debye):
    X=             -2.2049    Y=              0.0000    Z=              0.0000  Tot=              2.2049
 Quadrupole moment (field-independent basis, Debye-Ang):
   XX=             -7.7985   YY=             -6.9273   ZZ=             -6.9273
   XY=              0.0000   XZ=              0.0000   YZ=             -0.0000

  Exact polarizability:      10.505      -0.000       2.455      -0.000      -0.000       2.455
 Approx polarizability:      11.580      -0.000       2.435      -0.000      -0.000       2.435

                      1                      2                      3
                      A                      A                      A
 Frequencies --     72.1343               942.2731               942.2731
 Red. masses --      1.0520                 1.0285                 1.0285
 Frc consts  --      0.0032                 0.5380                 0.5380
 IR Inten    --      2.9852               137.0948               137.0948

                      4
                      A
 Frequencies --   2980.0216
 Red. masses --      1.0595
 Frc consts  --      5.5437
 IR Inten    --    178.5082

 - Thermochemistry -
 -------------------
 Temperature   298.150 Kelvin.  Pressure   1.00000 Atm.
 Atom     1 has atomic number  1 and mass   1.00783

 Molecular mass:    21.01405 amu.
 Principal axes and moments of inertia in atomic units:
                           1         2         3
     Eigenvalues --     0.00000  34.24760  34.24760
           X            1.00000  -0.00000   0.00000
           Y            0.00000   1.00000   0.00000
           Z            0.00000   0.00000   1.00000
 This molecule is a prolate symmetric top.
 Rotational symmetry number  1.
 Rotational temperature (Kelvin)      2.52905
 Rotational constant (GHZ):          52.696866
 Zero-point vibrational energy      29528.0 (Joules/Mol)
                                    7.05737 (Kcal/Mol)
 Warning -- explicit consideration of   1 degrees of freedom as
           vibrations may cause significant error
 Vibrational temperatures:    103.79  1355.72  1355.72  4287.59
          (Kelvin)

 Zero-point correction=                           0.011247 (Hartree/Particle)
 Thermal correction to Energy=                    0.014488
 Thermal correction to Enthalpy=                  0.015433
 Thermal correction to Gibbs Free Energy=        -0.009389
 Sum of electronic and zero-point Energies=           -100.955764
 Sum of electronic and thermal Energies=              -100.952522
 Sum of electronic and thermal Enthalpies=            -100.951578
 Sum of electronic and thermal Free Energies=         -100.976399

                     E (Thermal)             CV                S
                      KCal/Mol        Cal/Mol-Kelvin    Cal/Mol-Kelvin
 Total                    9.092              7.825             52.241
 Electronic               0.000              0.000              1.377
 Translational            0.889              2.981             35.068
 Rotational               0.592              1.987             11.466
 Vibrational              7.610              2.857              4.330
 Vibration     1          0.598              1.967              4.094

 Normal termination of Gaussian 16 at Fri Aug 22 16:00:35 2025.
