 Gaussian 16, Revision C.01,
 Gaussian 16:  ES64L-G16RevC.01  3-Jul-2019

 -----------------------------------------
 # sp b3lyp/6-311g** Force nosymm scf=(qc)
 -----------------------------------------

 -------------------
 Title Card Required
 -------------------
 Symbolic Z-matrix:
 Charge =  0 Multiplicity = 2

                          Input orientation:
 ---------------------------------------------------------------------
 Center     Atomic      Atomic             Coordinates (Angstroms)
 Number     Number       Type             X           Y           Z
 ---------------------------------------------------------------------
      1          1           0        0.000000    0.000000    0.000000
      2          1           0       -4.000000    0.000000    0.000000
      3          9           0        1.650000    0.000000    0.000000
 ---------------------------------------------------------------------

 SCF Done:  E(UB3LYP) =  -100.823801334     a.u. after    8 cycles

 Alpha  occ. eigenvalues --  -24.64295  -1.09037  -0.41491  -0.36114  -0.36114
 Alpha  occ. eigenvalues --   -0.33615
 Alpha virt. eigenvalues --   -0.17873   0.20200   0.26602   0.94454   0.94454
 Alpha virt. eigenvalues --    0.98554   1.07051   1.23850   1.23890   1.23890
 Alpha virt. eigenvalues --    1.28466   1.28466   1.71640   2.12232   2.17097

  Beta  occ. eigenvalues --  -24.64304  -1.09060  -0.41507  -0.36122  -0.36122
  Beta virt. eigenvalues --   -0.17897  -0.06173   0.22577   0.38156   0.94458
  Beta virt. eigenvalues --    0.94458   0.98560   1.07049   1.28523   1.28523
  Beta virt. eigenvalues --    1.46418   1.46699   1.46699   1.71687   2.15648

 Mulliken charges and spin densities:
               1          2
     1  H    0.333379   0.003262
     2  H    0.000639   0.999330
     3  F   -0.334018  -0.002591
 Sum of Mulliken charges =   0.00000   1.00000

 Dipole moment (field-independent basis, Debye):
    X=             -2.7192    Y=             -0.0000    Z=              0.0000  Tot=              2.7192
 Quadrupole moment (field-independent basis, Debye-Ang):
   XX=            -10.5314   YY=             -7.3955   ZZ=             -7.3955
   XY=             -0.0000   XZ=              0.0000   YZ=              0.0000

  Exact polarizability:      17.845      -0.000       2.122       0.000      -0.000       2.122
 Approx polarizability:      40.708       0.000       2.036      -0.000       0.000       2.036

 ******    2 imaginary frequencies (negative Signs) ******

                      1                      2                      3
                      A                      A                      A
 Frequencies --  -1185.2166               -47.6322               909.4665
 Red. masses --      1.0581                 1.0535                 1.0312
 Frc consts  --      0.8757                 0.0014                 0.5025
 IR Inten    --     30.7814                 0.0487               108.0071

                      4
                      A
 Frequencies --    909.4665
 Red. masses --      1.0312
 Frc consts  --      0.5025
 IR Inten    --    108.0071

 - Thermochemistry -
 -------------------
 Temperature   298.150 Kelvin.  Pressure   1.00000 Atm.
 Atom     1 has atomic number  1 and mass   1.00783

 Molecular mass:    21.01405 amu.
 Principal axes and moments of inertia in atomic units:
                           1         2         3
     Eigenvalues --     0.00000 115.48943 115.48943
           X            1.00000  -0.00000   0.00000
           Y            0.00000   1.00000   0.00000
           Z            0.00000   0.00000   1.00000
 This molecule is a prolate symmetric top.
 Rotational symmetry number  1.
 Rotational temperature (Kelvin)      0.74997
 Rotational constant (GHZ):          15.626895
    2 imaginary frequencies ignored.
 Zero-point vibrational energy      10879.6 (Joules/Mol)
                                    2.60030 (Kcal/Mol)
 Vibrational temperatures:   1308.52  1308.52
          (Kelvin)

 Zero-point correction=                           0.004144 (Hartree/Particle)
 Thermal correction to Energy=                    0.006608
 Thermal correction to Enthalpy=                  0.007553
 Thermal correction to Gibbs Free Energy=        -0.016487
 Sum of electronic and zero-point Energies=           -100.819657
 Sum of electronic and thermal Energies=              -100.817193
 Sum of electronic and thermal Enthalpies=            -100.816249
 Sum of electronic and thermal Free Energies=         -100.840288

                     E (Thermal)             CV                S
                      KCal/Mol        Cal/Mol-Kelvin    Cal/Mol-Kelvin
 Total                    4.147              5.943             50.596
 Electronic               0.000              0.000              1.377
 Translational            0.889              2.981             35.068
 Rotational               0.592              1.987             13.881
 Vibrational              2.666              0.975              0.269

 Normal termination of Gaussian 16 at Fri Aug 22 16:36:06 2025.
