 Gaussian 16, Revision C.01,
 Gaussian 16:  ES64L-G16RevC.01  3-Jul-2019

 -----------------------------------------
 # sp b3lyp/6-311g** Force nosymm scf=(qc)
 -----------------------------------------

 -------------------
 Title Card Required
 -------------------
 Symbolic Z-matrix:
 Charge =  0 Multiplicity = 2

                          Input orientation:
 ---------------------------------------------------------------------
 Center     Atomic      Atomic             Coordinates (Angstroms)
 Number     Number       Type             X           Y           Z
 ---------------------------------------------------------------------
      1          1           0        0.000000    0.000000    0.000000
      2          1           0       -3.500000    0.000000    0.000000
      3          9           0        1.800000    0.000000    0.000000
 ---------------------------------------------------------------------

 SCF Done:  E(UB3LYP) =  -100.804316372     a.u. after   17 cycles

 Alpha  occ. eigenvalues --  -24.64643  -1.07505  -0.39365  -0.36444  -0.36444
 Alpha  occ. eigenvalues --   -0.33650
 Alpha virt. eigenvalues --   -0.19214   0.19570   0.27278   0.93393   0.94806
 Alpha virt. eigenvalues --    0.94806   1.07921   1.23737   1.23737   1.23830
 Alpha virt. eigenvalues --    1.23830   1.23880   1.64770   2.11434   2.14807

  Beta  occ. eigenvalues --  -24.66532  -1.12708  -0.45304  -0.38288  -0.38288
  Beta virt. eigenvalues --   -0.15245  -0.05395   0.26681   0.39175   0.92858
  Beta virt. eigenvalues --    0.94804   0.94804   1.05874   1.33685   1.33685
  Beta virt. eigenvalues --    1.46747   1.46747   1.46860   1.69769   2.25595

 Mulliken charges and spin densities:
               1          2
     1  H    0.257162   0.595962
     2  H    0.001643   0.998412
     3  F   -0.258805  -0.594375
 Sum of Mulliken charges =   0.00000   1.00000

 Dipole moment (field-independent basis, Debye):
    X=             -2.3031    Y=              0.0000    Z=              0.0000  Tot=              2.3031
 Quadrupole moment (field-independent basis, Debye-Ang):
   XX=            -10.2225   YY=             -7.4314   ZZ=             -7.4314
   XY=              0.0000   XZ=              0.0000   YZ=              0.0000

  Exact polarizability:      23.535      -0.000       2.097       0.000      -0.000       2.097
 Approx polarizability:      36.893      -0.000       1.988       0.000      -0.000       1.988

 ******    1 imaginary frequencies (negative Signs) ******

                      1                      2                      3
                      A                      A                      A
 Frequencies --  -1509.9963                28.1893               655.8587
 Red. masses --      1.0587                 1.0529                 1.0276
 Frc consts  --      1.4222                 0.0005                 0.2604
 IR Inten    --    127.2052                 0.3535                61.4992

                      4
                      A
 Frequencies --    655.8587
 Red. masses --      1.0276
 Frc consts  --      0.2604
 IR Inten    --     61.4992

 - Thermochemistry -
 -------------------
 Temperature   298.150 Kelvin.  Pressure   1.00000 Atm.
 Atom     1 has atomic number  1 and mass   1.00783

 Molecular mass:    21.01405 amu.
 Principal axes and moments of inertia in atomic units:
                           1         2         3
     Eigenvalues --     0.00000 104.05582 104.05582
           X            1.00000  -0.00000   0.00000
           Y            0.00000   1.00000   0.00000
           Z            0.00000   0.00000   1.00000
 This molecule is a prolate symmetric top.
 Rotational symmetry number  1.
 Rotational temperature (Kelvin)      0.83238
 Rotational constant (GHZ):          17.343971
    1 imaginary frequencies ignored.
 Zero-point vibrational energy       8014.4 (Joules/Mol)
                                    1.91549 (Kcal/Mol)
 Warning -- explicit consideration of   1 degrees of freedom as
           vibrations may cause significant error
 Vibrational temperatures:     40.56   943.63   943.63
          (Kelvin)

 Zero-point correction=                           0.003053 (Hartree/Particle)
 Thermal correction to Energy=                    0.006558
 Thermal correction to Enthalpy=                  0.007502
 Thermal correction to Gibbs Free Energy=        -0.019485
 Sum of electronic and zero-point Energies=           -100.801264
 Sum of electronic and thermal Energies=              -100.797759
 Sum of electronic and thermal Enthalpies=            -100.796814
 Sum of electronic and thermal Free Energies=         -100.823801

                     E (Thermal)             CV                S
                      KCal/Mol        Cal/Mol-Kelvin    Cal/Mol-Kelvin
 Total                    4.115              8.784             56.798
 Electronic               0.000              0.000              1.377
 Translational            0.889              2.981             35.068
 Rotational               0.592              1.987             13.674
 Vibrational              2.634              3.816              6.679
 Vibration     1          0.593              1.984              5.953

 Normal termination of Gaussian 16 at Fri Aug 22 16:45:00 2025.
