 Gaussian 16, Revision C.01,
 Gaussian 16:  ES64L-G16RevC.01  3-Jul-2019

 -----------------------------------------
 # sp b3lyp/6-311g** Force nosymm scf=(qc)
 -----------------------------------------

 -------------------
 Title Card Required
 -------------------
 Symbolic Z-matrix:
 Charge =  0 Multiplicity = 2

                          Input orientation:
 ---------------------------------------------------------------------
 Center     Atomic      Atomic             Coordinates (Angstroms)
 Number     Number       Type             X           Y           Z
 ---------------------------------------------------------------------
      1          1           0        0.000000    0.000000    0.000000
      2          1           0       -3.400000    0.000000    0.000000
      3          9           0        0.700000    0.000000    0.000000
 ---------------------------------------------------------------------

 SCF Done:  E(UB3LYP) =  -100.874790314     a.u. after    6 cycles

 Alpha  occ. eigenvalues --  -24.63195  -1.28227  -0.58587  -0.41760  -0.41760
 Alpha  occ. eigenvalues --   -0.33495
 Alpha virt. eigenvalues --    0.06488   0.25035   0.52396   0.93484   0.93484
 Alpha virt. eigenvalues --    0.95788   1.23646   1.24018   1.24018   1.31948
 Alpha virt. eigenvalues --    1.44065   1.44065   1.97962   2.14696   2.86578

  Beta  occ. eigenvalues --  -24.63194  -1.28225  -0.58585  -0.41760  -0.41760
  Beta virt. eigenvalues --   -0.05432   0.07070   0.39477   0.52416   0.93484
  Beta virt. eigenvalues --    0.93484   0.95779   1.31133   1.44066   1.44066
  Beta virt. eigenvalues --    1.50874   1.50874   1.51147   1.97966   2.44733

 Mulliken charges and spin densities:
               1          2
     1  H    0.261878   0.000683
     2  H    0.000920   0.998845
     3  F   -0.262797   0.000472
 Sum of Mulliken charges =   0.00000   1.00000

 Dipole moment (field-independent basis, Debye):
    X=             -1.5936    Y=              0.0000    Z=             -0.0000  Tot=              1.5936
 Quadrupole moment (field-independent basis, Debye-Ang):
   XX=             -7.2724   YY=             -6.6629   ZZ=             -6.6629
   XY=              0.0000   XZ=             -0.0000   YZ=              0.0000

  Exact polarizability:       4.080      -0.000       2.449       0.000       0.000       2.449
 Approx polarizability:       4.420      -0.000       2.430       0.000      -0.000       2.430

 ******    3 imaginary frequencies (negative Signs) ******

                      1                      2                      3
                      A                      A                      A
 Frequencies --  -3558.9651             -3558.9651               -40.5260
 Red. masses --      1.0416                 1.0416                 1.0532
 Frc consts  --      7.7731                 7.7731                 0.0010
 IR Inten    --    213.6216               213.6216                 0.0368

                      4
                      A
 Frequencies --   9073.2540
 Red. masses --      1.0583
 Frc consts  --     51.3322
 IR Inten    --    106.7305

 - Thermochemistry -
 -------------------
 Temperature   298.150 Kelvin.  Pressure   1.00000 Atm.
 Atom     1 has atomic number  1 and mass   1.00783

 Molecular mass:    21.01405 amu.
 Principal axes and moments of inertia in atomic units:
                           1         2         3
     Eigenvalues --     0.00000  58.28598  58.28598
           X            1.00000  -0.00000   0.00000
           Y            0.00000   1.00000   0.00000
           Z            0.00000   0.00000   1.00000
 This molecule is a prolate symmetric top.
 Rotational symmetry number  1.
 Rotational temperature (Kelvin)      1.48602
 Rotational constant (GHZ):          30.963554
    3 imaginary frequencies ignored.
 Zero-point vibrational energy      54270.1 (Joules/Mol)
                                   12.97087 (Kcal/Mol)
 Vibrational temperatures:  13054.39
          (Kelvin)

 Zero-point correction=                           0.020670 (Hartree/Particle)
 Thermal correction to Energy=                    0.023031
 Thermal correction to Enthalpy=                  0.023975
 Thermal correction to Gibbs Free Energy=         0.000709
 Sum of electronic and zero-point Energies=           -100.854120
 Sum of electronic and thermal Energies=              -100.851759
 Sum of electronic and thermal Enthalpies=            -100.850815
 Sum of electronic and thermal Free Energies=         -100.874081

                     E (Thermal)             CV                S
                      KCal/Mol        Cal/Mol-Kelvin    Cal/Mol-Kelvin
 Total                   14.452              4.968             48.968
 Electronic               0.000              0.000              1.377
 Translational            0.889              2.981             35.068
 Rotational               0.592              1.987             12.522
 Vibrational             12.971              0.000              0.000

 Normal termination of Gaussian 16 at Fri Aug 22 15:47:19 2025.
