 Gaussian 16, Revision C.01,
 Gaussian 16:  ES64L-G16RevC.01  3-Jul-2019

 -----------------------------------------
 # sp b3lyp/6-311g** Force nosymm scf=(qc)
 -----------------------------------------

 -------------------
 Title Card Required
 -------------------
 Symbolic Z-matrix:
 Charge =  0 Multiplicity = 2

                          Input orientation:
 ---------------------------------------------------------------------
 Center     Atomic      Atomic             Coordinates (Angstroms)
 Number     Number       Type             X           Y           Z
 ---------------------------------------------------------------------
      1          1           0        0.000000    0.000000    0.000000
      2          1           0       -3.150000    0.000000    0.000000
      3          9           0        1.800000    0.000000    0.000000
 ---------------------------------------------------------------------

 SCF Done:  E(UB3LYP) =  -100.805069538     a.u. after   22 cycles

 Alpha  occ. eigenvalues --  -24.66567  -1.12752  -0.45367  -0.38318  -0.38318
 Alpha  occ. eigenvalues --   -0.34092
 Alpha virt. eigenvalues --   -0.14869   0.22018   0.30082   0.92961   0.94792
 Alpha virt. eigenvalues --    0.94792   1.05959   1.23440   1.23440   1.23842
 Alpha virt. eigenvalues --    1.33705   1.33705   1.69796   2.13941   2.25995

  Beta  occ. eigenvalues --  -24.64664  -1.07508  -0.39316  -0.36460  -0.36460
  Beta virt. eigenvalues --   -0.19288  -0.07842   0.22532   0.37191   0.93718
  Beta virt. eigenvalues --    0.94806   0.94806   1.08033   1.23805   1.23805
  Beta virt. eigenvalues --    1.44376   1.44814   1.44814   1.65076   2.12680

 Mulliken charges and spin densities:
               1          2
     1  H    0.252440  -0.592995
     2  H    0.004674   0.993958
     3  F   -0.257114   0.599038
 Sum of Mulliken charges =   0.00000   1.00000

 Dipole moment (field-independent basis, Debye):
    X=             -2.3306    Y=             -0.0000    Z=              0.0000  Tot=              2.3306
 Quadrupole moment (field-independent basis, Debye-Ang):
   XX=            -10.0196   YY=             -7.4446   ZZ=             -7.4446
   XY=             -0.0000   XZ=              0.0000   YZ=             -0.0000

  Exact polarizability:      25.585       0.000       2.097      -0.000      -0.000       2.097
 Approx polarizability:      37.762      -0.000       1.988       0.000       0.000       1.988

 ******    2 imaginary frequencies (negative Signs) ******

                      1                      2                      3
                      A                      A                      A
 Frequencies --  -1519.8697              -176.6061               653.0571
 Red. masses --      1.0565                 1.0550                 1.0259
 Frc consts  --      1.4380                 0.0194                 0.2578
 IR Inten    --    123.7124                 1.3494                57.7936

                      4
                      A
 Frequencies --    653.0571
 Red. masses --      1.0259
 Frc consts  --      0.2578
 IR Inten    --     57.7936

 - Thermochemistry -
 -------------------
 Temperature   298.150 Kelvin.  Pressure   1.00000 Atm.
 Atom     1 has atomic number  1 and mass   1.00783

 Molecular mass:    21.01405 amu.
 Principal axes and moments of inertia in atomic units:
                           1         2         3
     Eigenvalues --     0.00000  91.98109  91.98109
           X            1.00000  -0.00000   0.00000
           Y            0.00000   1.00000   0.00000
           Z            0.00000   0.00000   1.00000
 This molecule is a prolate symmetric top.
 Rotational symmetry number  1.
 Rotational temperature (Kelvin)      0.94165
 Rotational constant (GHZ):          19.620785
    2 imaginary frequencies ignored.
 Zero-point vibrational energy       7812.3 (Joules/Mol)
                                    1.86718 (Kcal/Mol)
 Vibrational temperatures:    939.60   939.60
          (Kelvin)

 Zero-point correction=                           0.002976 (Hartree/Particle)
 Thermal correction to Energy=                    0.005602
 Thermal correction to Enthalpy=                  0.006546
 Thermal correction to Gibbs Free Energy=        -0.017499
 Sum of electronic and zero-point Energies=           -100.802094
 Sum of electronic and thermal Energies=              -100.799467
 Sum of electronic and thermal Enthalpies=            -100.798523
 Sum of electronic and thermal Free Energies=         -100.822569

                     E (Thermal)             CV                S
                      KCal/Mol        Cal/Mol-Kelvin    Cal/Mol-Kelvin
 Total                    3.515              6.811             50.608
 Electronic               0.000              0.000              1.377
 Translational            0.889              2.981             35.068
 Rotational               0.592              1.987             13.429
 Vibrational              2.034              1.843              0.734

 Normal termination of Gaussian 16 at Fri Aug 22 16:44:39 2025.
