 Gaussian 16, Revision C.01,
 Gaussian 16:  ES64L-G16RevC.01  3-Jul-2019

 -----------------------------------------
 # sp b3lyp/6-311g** Force nosymm scf=(qc)
 -----------------------------------------

 -------------------
 Title Card Required
 -------------------
 Symbolic Z-matrix:
 Charge =  0 Multiplicity = 2

                          Input orientation:
 ---------------------------------------------------------------------
 Center     Atomic      Atomic             Coordinates (Angstroms)
 Number     Number       Type             X           Y           Z
 ---------------------------------------------------------------------
      1          1           0        0.000000    0.000000    0.000000
      2          1           0       -2.550000    0.000000    0.000000
      3          9           0        3.050000    0.000000    0.000000
 ---------------------------------------------------------------------

 SCF Done:  E(UB3LYP) =  -100.764038776     a.u. after   22 cycles

 Alpha  occ. eigenvalues --  -24.74324  -1.20364  -0.53442  -0.44873  -0.44873
 Alpha  occ. eigenvalues --   -0.32975
 Alpha virt. eigenvalues --   -0.10174   0.25354   0.33782   0.89335   0.92133
 Alpha virt. eigenvalues --    0.92133   1.03654   1.24658   1.24658   1.26475
 Alpha virt. eigenvalues --    1.40432   1.40432   1.41872   2.15546   2.36904

  Beta  occ. eigenvalues --  -24.71282  -1.11641  -0.41827  -0.41827  -0.33684
  Beta virt. eigenvalues --   -0.24924  -0.09043   0.25426   0.35063   0.93599
  Beta virt. eigenvalues --    0.93599   0.98158   1.07561   1.23804   1.23804
  Beta virt. eigenvalues --    1.25456   1.42259   1.42259   1.43609   2.16465

 Mulliken charges and spin densities:
               1          2
     1  H    0.027676  -0.938582
     2  H    0.004601   0.974479
     3  F   -0.032276   0.964103
 Sum of Mulliken charges =  -0.00000   1.00000

 Dipole moment (field-independent basis, Debye):
    X=             -0.5612    Y=              0.0000    Z=              0.0000  Tot=              0.5612
 Quadrupole moment (field-independent basis, Debye-Ang):
   XX=             -7.8775   YY=             -7.6500   ZZ=             -7.6500
   XY=             -0.0000   XZ=             -0.0000   YZ=             -0.0000

  Exact polarizability:      42.095      -0.000       2.016      -0.000       0.000       2.016
 Approx polarizability:      37.362      -0.000       1.923      -0.000       0.000       1.923

 ******    2 imaginary frequencies (negative Signs) ******

                      1                      2                      3
                      A                      A                      A
 Frequencies --   -657.6367              -222.4419               245.1439
 Red. masses --      1.0101                 1.1058                 1.0159
 Frc consts  --      0.2574                 0.0322                 0.0360
 IR Inten    --     21.4677                16.8546                 0.6015

                      4
                      A
 Frequencies --    245.1439
 Red. masses --      1.0159
 Frc consts  --      0.0360
 IR Inten    --      0.6015

 - Thermochemistry -
 -------------------
 Temperature   298.150 Kelvin.  Pressure   1.00000 Atm.
 Atom     1 has atomic number  1 and mass   1.00783

 Molecular mass:    21.01405 amu.
 Principal axes and moments of inertia in atomic units:
                           1         2         3
     Eigenvalues --     0.00000 133.42980 133.42980
           X            1.00000  -0.00000   0.00000
           Y            0.00000   1.00000   0.00000
           Z            0.00000   0.00000   1.00000
 This molecule is a prolate symmetric top.
 Rotational symmetry number  1.
 Rotational temperature (Kelvin)      0.64913
 Rotational constant (GHZ):          13.525773
    2 imaginary frequencies ignored.
 Zero-point vibrational energy       2932.6 (Joules/Mol)
                                    0.70090 (Kcal/Mol)
 Warning -- explicit consideration of   2 degrees of freedom as
           vibrations may cause significant error
 Vibrational temperatures:    352.71   352.71
          (Kelvin)

 Zero-point correction=                           0.001117 (Hartree/Particle)
 Thermal correction to Energy=                    0.004464
 Thermal correction to Enthalpy=                  0.005408
 Thermal correction to Gibbs Free Energy=        -0.020317
 Sum of electronic and zero-point Energies=           -100.762922
 Sum of electronic and thermal Energies=              -100.759575
 Sum of electronic and thermal Enthalpies=            -100.758631
 Sum of electronic and thermal Free Energies=         -100.784356

                     E (Thermal)             CV                S
                      KCal/Mol        Cal/Mol-Kelvin    Cal/Mol-Kelvin
 Total                    2.801              8.510             54.144
 Electronic               0.000              0.000              1.377
 Translational            0.889              2.981             35.068
 Rotational               0.592              1.987             14.168
 Vibrational              1.320              3.542              3.530
 Vibration     1          0.660              1.771              1.765
 Vibration     2          0.660              1.771              1.765

 Normal termination of Gaussian 16 at Fri Aug 22 19:44:16 2025.
