 Gaussian 16, Revision C.01,
 Gaussian 16:  ES64L-G16RevC.01  3-Jul-2019

 -----------------------------------------
 # sp b3lyp/6-311g** Force nosymm scf=(qc)
 -----------------------------------------

 -------------------
 Title Card Required
 -------------------
 Symbolic Z-matrix:
 Charge =  0 Multiplicity = 2

                          Input orientation:
 ---------------------------------------------------------------------
 Center     Atomic      Atomic             Coordinates (Angstroms)
 Number     Number       Type             X           Y           Z
 ---------------------------------------------------------------------
      1          1           0        0.000000    0.000000    0.000000
      2          1           0       -3.500000    0.000000    0.000000
      3          9           0        2.050000    0.000000    0.000000
 ---------------------------------------------------------------------

 SCF Done:  E(UB3LYP) =  -100.784131025     a.u. after   14 cycles

 Alpha  occ. eigenvalues --  -24.68639  -1.14962  -0.47644  -0.40110  -0.40110
 Alpha  occ. eigenvalues --   -0.33380
 Alpha virt. eigenvalues --   -0.13355   0.22502   0.32370   0.88554   0.94791
 Alpha virt. eigenvalues --    0.94791   1.05753   1.24134   1.24134   1.24248
 Alpha virt. eigenvalues --    1.35944   1.35944   1.58077   2.14031   2.30357

  Beta  occ. eigenvalues --  -24.66190  -1.08099  -0.37692  -0.37692  -0.37627
  Beta virt. eigenvalues --   -0.21077  -0.06971   0.22796   0.37874   0.90264
  Beta virt. eigenvalues --    0.95562   0.95562   1.08156   1.21747   1.21747
  Beta virt. eigenvalues --    1.45319   1.45856   1.45856   1.50576   2.11852

 Mulliken charges and spin densities:
               1          2
     1  H    0.178525  -0.768008
     2  H    0.001535   0.997687
     3  F   -0.180060   0.770321
 Sum of Mulliken charges =  -0.00000   1.00000

 Dipole moment (field-independent basis, Debye):
    X=             -1.8561    Y=              0.0000    Z=             -0.0000  Tot=              1.8561
 Quadrupole moment (field-independent basis, Debye-Ang):
   XX=             -9.9707   YY=             -7.5001   ZZ=             -7.5001
   XY=             -0.0000   XZ=              0.0000   YZ=             -0.0000

  Exact polarizability:      26.575      -0.000       2.055       0.000      -0.000       2.055
 Approx polarizability:      37.712      -0.000       1.941       0.000      -0.000       1.941

 ******    2 imaginary frequencies (negative Signs) ******

                      1                      2                      3
                      A                      A                      A
 Frequencies --  -1054.5113              -120.3414               445.8276
 Red. masses --      1.0569                 1.0547                 1.0255
 Frc consts  --      0.6924                 0.0090                 0.1201
 IR Inten    --    117.1850                 0.2625                29.9215

                      4
                      A
 Frequencies --    445.8276
 Red. masses --      1.0255
 Frc consts  --      0.1201
 IR Inten    --     29.9215

 - Thermochemistry -
 -------------------
 Temperature   298.150 Kelvin.  Pressure   1.00000 Atm.
 Atom     1 has atomic number  1 and mass   1.00783

 Molecular mass:    21.01405 amu.
 Principal axes and moments of inertia in atomic units:
                           1         2         3
     Eigenvalues --     0.00000 116.01352 116.01352
           X            1.00000  -0.00000   0.00000
           Y            0.00000   1.00000   0.00000
           Z            0.00000   0.00000   1.00000
 This molecule is a prolate symmetric top.
 Rotational symmetry number  1.
 Rotational temperature (Kelvin)      0.74658
 Rotational constant (GHZ):          15.556301
    2 imaginary frequencies ignored.
 Zero-point vibrational energy       5333.3 (Joules/Mol)
                                    1.27469 (Kcal/Mol)
 Warning -- explicit consideration of   2 degrees of freedom as
           vibrations may cause significant error
 Vibrational temperatures:    641.45   641.45
          (Kelvin)

 Zero-point correction=                           0.002031 (Hartree/Particle)
 Thermal correction to Energy=                    0.004927
 Thermal correction to Enthalpy=                  0.005871
 Thermal correction to Gibbs Free Energy=        -0.018814
 Sum of electronic and zero-point Energies=           -100.782100
 Sum of electronic and thermal Energies=              -100.779204
 Sum of electronic and thermal Enthalpies=            -100.778260
 Sum of electronic and thermal Free Energies=         -100.802945

                     E (Thermal)             CV                S
                      KCal/Mol        Cal/Mol-Kelvin    Cal/Mol-Kelvin
 Total                    3.091              7.708             51.953
 Electronic               0.000              0.000              1.377
 Translational            0.889              2.981             35.068
 Rotational               0.592              1.987             13.890
 Vibrational              1.610              2.740              1.617
 Vibration     1          0.805              1.370              0.808
 Vibration     2          0.805              1.370              0.808

 Normal termination of Gaussian 16 at Fri Aug 22 17:01:37 2025.
