 Gaussian 16, Revision C.01,
 Gaussian 16:  ES64L-G16RevC.01  3-Jul-2019

 -----------------------------------------
 # sp b3lyp/6-311g** Force nosymm scf=(qc)
 -----------------------------------------

 -------------------
 Title Card Required
 -------------------
 Symbolic Z-matrix:
 Charge =  0 Multiplicity = 2

                          Input orientation:
 ---------------------------------------------------------------------
 Center     Atomic      Atomic             Coordinates (Angstroms)
 Number     Number       Type             X           Y           Z
 ---------------------------------------------------------------------
      1          1           0        0.000000    0.000000    0.000000
      2          1           0       -2.350000    0.000000    0.000000
      3          9           0        2.650000    0.000000    0.000000
 ---------------------------------------------------------------------

 SCF Done:  E(UB3LYP) =  -100.770353499     a.u. after   19 cycles

 Alpha  occ. eigenvalues --  -24.72613  -1.18767  -0.51721  -0.43433  -0.43433
 Alpha  occ. eigenvalues --   -0.33775
 Alpha virt. eigenvalues --   -0.11820   0.25107   0.32965   0.90334   0.93151
 Alpha virt. eigenvalues --    0.93151   1.06066   1.23953   1.23953   1.26318
 Alpha virt. eigenvalues --    1.37664   1.37664   1.41909   2.14081   2.34180

  Beta  occ. eigenvalues --  -24.69697  -1.10444  -0.40521  -0.40521  -0.34750
  Beta virt. eigenvalues --   -0.23938  -0.10106   0.26023   0.34063   0.94565
  Beta virt. eigenvalues --    0.94565   0.98237   1.09526   1.22867   1.22867
  Beta virt. eigenvalues --    1.26803   1.40462   1.40462   1.43559   2.14604

 Mulliken charges and spin densities:
               1          2
     1  H    0.055598  -0.876936
     2  H    0.012886   0.954506
     3  F   -0.068483   0.922430
 Sum of Mulliken charges =  -0.00000   1.00000

 Dipole moment (field-independent basis, Debye):
    X=             -1.0719    Y=             -0.0000    Z=              0.0000  Tot=              1.0719
 Quadrupole moment (field-independent basis, Debye-Ang):
   XX=             -8.4241   YY=             -7.6409   ZZ=             -7.6409
   XY=              0.0000   XZ=             -0.0000   YZ=             -0.0000

  Exact polarizability:      49.097       0.000       2.010      -0.000      -0.000       2.010
 Approx polarizability:      49.135       0.000       1.918      -0.000      -0.000       1.918

 ******    2 imaginary frequencies (negative Signs) ******

                      1                      2                      3
                      A                      A                      A
 Frequencies --   -897.3661              -328.2398               348.1412
 Red. masses --      1.0118                 1.1038                 1.0166
 Frc consts  --      0.4800                 0.0701                 0.0726
 IR Inten    --     38.1086                33.3316                 2.3063

                      4
                      A
 Frequencies --    348.1412
 Red. masses --      1.0166
 Frc consts  --      0.0726
 IR Inten    --      2.3063

 - Thermochemistry -
 -------------------
 Temperature   298.150 Kelvin.  Pressure   1.00000 Atm.
 Atom     1 has atomic number  1 and mass   1.00783

 Molecular mass:    21.01405 amu.
 Principal axes and moments of inertia in atomic units:
                           1         2         3
     Eigenvalues --     0.00000 105.14786 105.14786
           X            1.00000  -0.00000   0.00000
           Y            0.00000   1.00000   0.00000
           Z            0.00000   0.00000   1.00000
 This molecule is a prolate symmetric top.
 Rotational symmetry number  1.
 Rotational temperature (Kelvin)      0.82373
 Rotational constant (GHZ):          17.163841
    2 imaginary frequencies ignored.
 Zero-point vibrational energy       4164.7 (Joules/Mol)
                                    0.99539 (Kcal/Mol)
 Warning -- explicit consideration of   2 degrees of freedom as
           vibrations may cause significant error
 Vibrational temperatures:    500.90   500.90
          (Kelvin)

 Zero-point correction=                           0.001586 (Hartree/Particle)
 Thermal correction to Energy=                    0.004673
 Thermal correction to Enthalpy=                  0.005618
 Thermal correction to Gibbs Free Energy=        -0.019322
 Sum of electronic and zero-point Energies=           -100.768767
 Sum of electronic and thermal Energies=              -100.765680
 Sum of electronic and thermal Enthalpies=            -100.764736
 Sum of electronic and thermal Free Energies=         -100.789675

                     E (Thermal)             CV                S
                      KCal/Mol        Cal/Mol-Kelvin    Cal/Mol-Kelvin
 Total                    2.933              8.126             52.489
 Electronic               0.000              0.000              1.377
 Translational            0.889              2.981             35.068
 Rotational               0.592              1.987             13.695
 Vibrational              1.451              3.158              2.349
 Vibration     1          0.726              1.579              1.175
 Vibration     2          0.726              1.579              1.175

 Normal termination of Gaussian 16 at Fri Aug 22 18:14:41 2025.
