 Gaussian 16, Revision C.01,
 Gaussian 16:  ES64L-G16RevC.01  3-Jul-2019

 -----------------------------------------
 # sp b3lyp/6-311g** Force nosymm scf=(qc)
 -----------------------------------------

 -------------------
 Title Card Required
 -------------------
 Symbolic Z-matrix:
 Charge =  0 Multiplicity = 2

                          Input orientation:
 ---------------------------------------------------------------------
 Center     Atomic      Atomic             Coordinates (Angstroms)
 Number     Number       Type             X           Y           Z
 ---------------------------------------------------------------------
      1          1           0        0.000000    0.000000    0.000000
      2          1           0       -3.900000    0.000000    0.000000
      3          9           0        2.650000    0.000000    0.000000
 ---------------------------------------------------------------------

 SCF Done:  E(UB3LYP) =  -100.764540998     a.u. after   19 cycles

 Alpha  occ. eigenvalues --  -24.72554  -1.18721  -0.51666  -0.43393  -0.43393
 Alpha  occ. eigenvalues --   -0.32656
 Alpha virt. eigenvalues --   -0.09293   0.23604   0.35670   0.89891   0.93169
 Alpha virt. eigenvalues --    0.93169   1.05755   1.24843   1.24843   1.24868
 Alpha virt. eigenvalues --    1.41759   1.41759   1.44320   2.14206   2.38870

  Beta  occ. eigenvalues --  -24.69641  -1.10409  -0.40485  -0.40485  -0.34778
  Beta virt. eigenvalues --   -0.23859  -0.06096   0.23785   0.38112   0.94582
  Beta virt. eigenvalues --    0.94582   0.97376   1.08609   1.22559   1.22559
  Beta virt. eigenvalues --    1.26294   1.46462   1.46628   1.46628   2.13102

 Mulliken charges and spin densities:
               1          2
     1  H    0.070498  -0.920581
     2  H    0.000262   0.999233
     3  F   -0.070760   0.921348
 Sum of Mulliken charges =  -0.00000   1.00000

 Dipole moment (field-independent basis, Debye):
    X=             -0.9629    Y=             -0.0000    Z=              0.0000  Tot=              0.9629
 Quadrupole moment (field-independent basis, Debye-Ang):
   XX=             -9.0625   YY=             -7.5824   ZZ=             -7.5824
   XY=             -0.0000   XZ=             -0.0000   YZ=             -0.0000

  Exact polarizability:      30.851      -0.000       2.025      -0.000      -0.000       2.025
 Approx polarizability:      37.360      -0.000       1.922      -0.000       0.000       1.922

 ******    2 imaginary frequencies (negative Signs) ******

                      1                      2                      3
                      A                      A                      A
 Frequencies --   -522.5645               -76.7186               197.4421
 Red. masses --      1.0560                 1.0555                 1.0232
 Frc consts  --      0.1699                 0.0037                 0.0235
 IR Inten    --     67.5381                 0.0576                 4.8462

                      4
                      A
 Frequencies --    197.4422
 Red. masses --      1.0232
 Frc consts  --      0.0235
 IR Inten    --      4.8462

 - Thermochemistry -
 -------------------
 Temperature   298.150 Kelvin.  Pressure   1.00000 Atm.
 Atom     1 has atomic number  1 and mass   1.00783

 Molecular mass:    21.01405 amu.
 Principal axes and moments of inertia in atomic units:
                           1         2         3
     Eigenvalues --     0.00000 165.07105 165.07105
           X            1.00000  -0.00000   0.00000
           Y            0.00000   1.00000   0.00000
           Z            0.00000   0.00000   1.00000
 This molecule is a prolate symmetric top.
 Rotational symmetry number  1.
 Rotational temperature (Kelvin)      0.52471
 Rotational constant (GHZ):          10.933117
    2 imaginary frequencies ignored.
 Zero-point vibrational energy       2361.9 (Joules/Mol)
                                    0.56452 (Kcal/Mol)
 Warning -- explicit consideration of   2 degrees of freedom as
           vibrations may cause significant error
 Vibrational temperatures:    284.08   284.08
          (Kelvin)

 Zero-point correction=                           0.000900 (Hartree/Particle)
 Thermal correction to Energy=                    0.004390
 Thermal correction to Enthalpy=                  0.005334
 Thermal correction to Gibbs Free Energy=        -0.020965
 Sum of electronic and zero-point Energies=           -100.763641
 Sum of electronic and thermal Energies=              -100.760151
 Sum of electronic and thermal Enthalpies=            -100.759207
 Sum of electronic and thermal Free Energies=         -100.785506

                     E (Thermal)             CV                S
                      KCal/Mol        Cal/Mol-Kelvin    Cal/Mol-Kelvin
 Total                    2.754              8.655             55.350
 Electronic               0.000              0.000              1.377
 Translational            0.889              2.981             35.068
 Rotational               0.592              1.987             14.591
 Vibrational              1.273              3.687              4.314
 Vibration     1          0.637              1.843              2.157
 Vibration     2          0.637              1.843              2.157

 Normal termination of Gaussian 16 at Fri Aug 22 18:16:13 2025.
