 Gaussian 16, Revision C.01,
 Gaussian 16:  ES64L-G16RevC.01  3-Jul-2019

 -----------------------------------------
 # sp b3lyp/6-311g** Force nosymm scf=(qc)
 -----------------------------------------

 -------------------
 Title Card Required
 -------------------
 Symbolic Z-matrix:
 Charge =  0 Multiplicity = 2

                          Input orientation:
 ---------------------------------------------------------------------
 Center     Atomic      Atomic             Coordinates (Angstroms)
 Number     Number       Type             X           Y           Z
 ---------------------------------------------------------------------
      1          1           0        0.000000    0.000000    0.000000
      2          1           0       -1.950000    0.000000    0.000000
      3          9           0        1.200000    0.000000    0.000000
 ---------------------------------------------------------------------

 SCF Done:  E(UB3LYP) =  -100.928106981     a.u. after    6 cycles

 Alpha  occ. eigenvalues --  -24.63689  -1.11851  -0.47922  -0.37001  -0.37001
 Alpha  occ. eigenvalues --   -0.36745
 Alpha virt. eigenvalues --   -0.02747   0.23526   0.28814   0.93683   0.93683
 Alpha virt. eigenvalues --    1.00989   1.11194   1.20338   1.20338   1.35595
 Alpha virt. eigenvalues --    1.35595   1.46453   1.71889   2.13970   2.32449

  Beta  occ. eigenvalues --  -24.63509  -1.11398  -0.46963  -0.36837  -0.36837
  Beta virt. eigenvalues --   -0.14906   0.00501   0.28384   0.33535   0.93682
  Beta virt. eigenvalues --    0.93682   1.01528   1.19458   1.33993   1.33993
  Beta virt. eigenvalues --    1.40185   1.40185   1.55105   1.73530   2.27241

 Mulliken charges and spin densities:
               1          2
     1  H    0.330946  -0.010674
     2  H    0.029151   0.957370
     3  F   -0.360096   0.053304
 Sum of Mulliken charges =  -0.00000   1.00000

 Dipole moment (field-independent basis, Debye):
    X=             -2.6001    Y=             -0.0000    Z=             -0.0000  Tot=              2.6001
 Quadrupole moment (field-independent basis, Debye-Ang):
   XX=             -8.2128   YY=             -7.0811   ZZ=             -7.0811
   XY=             -0.0000   XZ=             -0.0000   YZ=             -0.0000

  Exact polarizability:      16.010       0.000       2.384       0.000       0.000       2.384
 Approx polarizability:      19.713      -0.000       2.348       0.000       0.000       2.348

 ******    1 imaginary frequencies (negative Signs) ******

                      1                      2                      3
                      A                      A                      A
 Frequencies --   -493.5549               733.8475              1155.5622
 Red. masses --      1.0165                 1.0982                 1.0248
 Frc consts  --      0.1459                 0.3485                 0.8062
 IR Inten    --     77.5827               146.6847               105.5102

                      4
                      A
 Frequencies --   1155.5622
 Red. masses --      1.0248
 Frc consts  --      0.8062
 IR Inten    --    105.5102

 - Thermochemistry -
 -------------------
 Temperature   298.150 Kelvin.  Pressure   1.00000 Atm.
 Atom     1 has atomic number  1 and mass   1.00783

 Molecular mass:    21.01405 amu.
 Principal axes and moments of inertia in atomic units:
                           1         2         3
     Eigenvalues --     0.00000  37.62758  37.62758
           X            1.00000  -0.00000   0.00000
           Y            0.00000   1.00000   0.00000
           Z            0.00000   0.00000   1.00000
 This molecule is a prolate symmetric top.
 Rotational symmetry number  1.
 Rotational temperature (Kelvin)      2.30187
 Rotational constant (GHZ):          47.963254
    1 imaginary frequencies ignored.
 Zero-point vibrational energy      18213.0 (Joules/Mol)
                                    4.35301 (Kcal/Mol)
 Vibrational temperatures:   1055.84  1662.60  1662.60
          (Kelvin)

 Zero-point correction=                           0.006937 (Hartree/Particle)
 Thermal correction to Energy=                    0.009437
 Thermal correction to Enthalpy=                  0.010381
 Thermal correction to Gibbs Free Energy=        -0.012646
 Sum of electronic and zero-point Energies=           -100.921170
 Sum of electronic and thermal Energies=              -100.918670
 Sum of electronic and thermal Enthalpies=            -100.917726
 Sum of electronic and thermal Free Energies=         -100.940753

                     E (Thermal)             CV                S
                      KCal/Mol        Cal/Mol-Kelvin    Cal/Mol-Kelvin
 Total                    5.922              6.205             48.466
 Electronic               0.000              0.000              1.377
 Translational            0.889              2.981             35.068
 Rotational               0.592              1.987             11.653
 Vibrational              4.441              1.237              0.368

 Normal termination of Gaussian 16 at Fri Aug 22 16:10:07 2025.
