 Gaussian 16, Revision C.01,
 Gaussian 16:  ES64L-G16RevC.01  3-Jul-2019

 -----------------------------------------
 # sp b3lyp/6-311g** Force nosymm scf=(qc)
 -----------------------------------------

 -------------------
 Title Card Required
 -------------------
 Symbolic Z-matrix:
 Charge =  0 Multiplicity = 2

                          Input orientation:
 ---------------------------------------------------------------------
 Center     Atomic      Atomic             Coordinates (Angstroms)
 Number     Number       Type             X           Y           Z
 ---------------------------------------------------------------------
      1          1           0        0.000000    0.000000    0.000000
      2          1           0       -2.500000    0.000000    0.000000
      3          9           0        0.850000    0.000000    0.000000
 ---------------------------------------------------------------------

 SCF Done:  E(UB3LYP) =  -100.965770907     a.u. after    6 cycles

 Alpha  occ. eigenvalues --  -24.63770  -1.20828  -0.54983  -0.40058  -0.40058
 Alpha  occ. eigenvalues --   -0.34739
 Alpha virt. eigenvalues --    0.05545   0.25325   0.42516   0.94409   0.94409
 Alpha virt. eigenvalues --    0.97256   1.18674   1.22811   1.22811   1.38435
 Alpha virt. eigenvalues --    1.38435   1.40212   2.03429   2.13952   2.43053

  Beta  occ. eigenvalues --  -24.63757  -1.20792  -0.54925  -0.40046  -0.40046
  Beta virt. eigenvalues --   -0.09049   0.07110   0.37305   0.42795   0.94411
  Beta virt. eigenvalues --    0.94411   0.97373   1.28521   1.38412   1.38412
  Beta virt. eigenvalues --    1.45019   1.45019   1.53769   2.03345   2.40572

 Mulliken charges and spin densities:
               1          2
     1  H    0.279632   0.003574
     2  H    0.005510   0.991948
     3  F   -0.285142   0.004478
 Sum of Mulliken charges =   0.00000   1.00000

 Dipole moment (field-independent basis, Debye):
    X=             -1.8803    Y=             -0.0000    Z=             -0.0000  Tot=              1.8803
 Quadrupole moment (field-independent basis, Debye-Ang):
   XX=             -7.5517   YY=             -6.8123   ZZ=             -6.8123
   XY=             -0.0000   XZ=             -0.0000   YZ=             -0.0000

  Exact polarizability:       6.860       0.000       2.464      -0.000       0.000       2.464
 Approx polarizability:       7.329       0.000       2.448       0.000       0.000       2.448

 ******    2 imaginary frequencies (negative Signs) ******

                      1                      2                      3
                      A                      A                      A
 Frequencies --  -1313.3508             -1313.3508                56.7719
 Red. masses --      1.0343                 1.0343                 1.0532
 Frc consts  --      1.0511                 1.0511                 0.0020
 IR Inten    --    174.0964               174.0964                 0.4800

                      4
                      A
 Frequencies --   5306.7754
 Red. masses --      1.0584
 Frc consts  --     17.5610
 IR Inten    --    128.5860

 - Thermochemistry -
 -------------------
 Temperature   298.150 Kelvin.  Pressure   1.00000 Atm.
 Atom     1 has atomic number  1 and mass   1.00783

 Molecular mass:    21.01405 amu.
 Principal axes and moments of inertia in atomic units:
                           1         2         3
     Eigenvalues --     0.00000  39.94537  39.94537
           X            1.00000  -0.00000   0.00000
           Y            0.00000   1.00000   0.00000
           Z            0.00000   0.00000   1.00000
 This molecule is a prolate symmetric top.
 Rotational symmetry number  1.
 Rotational temperature (Kelvin)      2.16831
 Rotational constant (GHZ):          45.180234
    2 imaginary frequencies ignored.
 Zero-point vibrational energy      32081.1 (Joules/Mol)
                                    7.66758 (Kcal/Mol)
 Warning -- explicit consideration of   1 degrees of freedom as
           vibrations may cause significant error
 Vibrational temperatures:     81.68  7635.27
          (Kelvin)

 Zero-point correction=                           0.012219 (Hartree/Particle)
 Thermal correction to Energy=                    0.015400
 Thermal correction to Enthalpy=                  0.016344
 Thermal correction to Gibbs Free Energy=        -0.008735
 Sum of electronic and zero-point Energies=           -100.953552
 Sum of electronic and thermal Energies=              -100.950371
 Sum of electronic and thermal Enthalpies=            -100.949426
 Sum of electronic and thermal Free Energies=         -100.974506

                     E (Thermal)             CV                S
                      KCal/Mol        Cal/Mol-Kelvin    Cal/Mol-Kelvin
 Total                    9.664              6.943             52.783
 Electronic               0.000              0.000              1.377
 Translational            0.889              2.981             35.068
 Rotational               0.592              1.987             11.771
 Vibrational              8.183              1.975              4.566
 Vibration     1          0.596              1.975              4.566

 Normal termination of Gaussian 16 at Fri Aug 22 15:53:47 2025.
