 Gaussian 16, Revision C.01,
 Gaussian 16:  ES64L-G16RevC.01  3-Jul-2019

 -----------------------------------------
 # sp b3lyp/6-311g** Force nosymm scf=(qc)
 -----------------------------------------

 -------------------
 Title Card Required
 -------------------
 Symbolic Z-matrix:
 Charge =  0 Multiplicity = 2

                          Input orientation:
 ---------------------------------------------------------------------
 Center     Atomic      Atomic             Coordinates (Angstroms)
 Number     Number       Type             X           Y           Z
 ---------------------------------------------------------------------
      1          1           0        0.000000    0.000000    0.000000
      2          1           0       -1.800000    0.000000    0.000000
      3          9           0        1.100000    0.000000    0.000000
 ---------------------------------------------------------------------

 SCF Done:  E(UB3LYP) =  -100.950627439     a.u. after    6 cycles

 Alpha  occ. eigenvalues --  -24.63606  -1.13429  -0.49938  -0.37558  -0.37558
 Alpha  occ. eigenvalues --   -0.36891
 Alpha virt. eigenvalues --    0.01798   0.22870   0.30652   0.94042   0.94042
 Alpha virt. eigenvalues --    0.99865   1.10966   1.19572   1.19572   1.36767
 Alpha virt. eigenvalues --    1.36767   1.51301   1.80276   2.20942   2.34745

  Beta  occ. eigenvalues --  -24.63422  -1.12969  -0.48845  -0.37393  -0.37393
  Beta virt. eigenvalues --   -0.14910   0.04718   0.29157   0.33689   0.94071
  Beta virt. eigenvalues --    0.94071   1.00431   1.20035   1.32821   1.32821
  Beta virt. eigenvalues --    1.41270   1.41270   1.56477   1.85765   2.32519

 Mulliken charges and spin densities:
               1          2
     1  H    0.316582  -0.003817
     2  H    0.029972   0.951435
     3  F   -0.346554   0.052381
 Sum of Mulliken charges =   0.00000   1.00000

 Dipole moment (field-independent basis, Debye):
    X=             -2.4631    Y=             -0.0000    Z=              0.0000  Tot=              2.4631
 Quadrupole moment (field-independent basis, Debye-Ang):
   XX=             -7.9152   YY=             -6.9776   ZZ=             -6.9776
   XY=             -0.0000   XZ=              0.0000   YZ=             -0.0000

  Exact polarizability:      14.055       0.000       2.442       0.000      -0.000       2.442
 Approx polarizability:      16.189      -0.000       2.419      -0.000      -0.000       2.419

 ******    1 imaginary frequencies (negative Signs) ******

                      1                      2                      3
                      A                      A                      A
 Frequencies --   -293.1265              1119.8016              1119.8016
 Red. masses --      1.0427                 1.0249                 1.0249
 Frc consts  --      0.0528                 0.7572                 0.7572
 IR Inten    --     12.9083               108.5984               108.5984

                      4
                      A
 Frequencies --   1746.0338
 Red. masses --      1.0691
 Frc consts  --      1.9204
 IR Inten    --    216.9280

 - Thermochemistry -
 -------------------
 Temperature   298.150 Kelvin.  Pressure   1.00000 Atm.
 Atom     1 has atomic number  1 and mass   1.00783

 Molecular mass:    21.01405 amu.
 Principal axes and moments of inertia in atomic units:
                           1         2         3
     Eigenvalues --     0.00000  31.86075  31.86075
           X            1.00000  -0.00000   0.00000
           Y            0.00000   1.00000   0.00000
           Z            0.00000   0.00000   1.00000
 This molecule is a prolate symmetric top.
 Rotational symmetry number  1.
 Rotational temperature (Kelvin)      2.71851
 Rotational constant (GHZ):          56.644653
    1 imaginary frequencies ignored.
 Zero-point vibrational energy      23839.4 (Joules/Mol)
                                    5.69775 (Kcal/Mol)
 Vibrational temperatures:   1611.14  1611.14  2512.15
          (Kelvin)

 Zero-point correction=                           0.009080 (Hartree/Particle)
 Thermal correction to Energy=                    0.011488
 Thermal correction to Enthalpy=                  0.012432
 Thermal correction to Gibbs Free Energy=        -0.010320
 Sum of electronic and zero-point Energies=           -100.941547
 Sum of electronic and thermal Energies=              -100.939139
 Sum of electronic and thermal Enthalpies=            -100.938195
 Sum of electronic and thermal Free Energies=         -100.960947

                     E (Thermal)             CV                S
                      KCal/Mol        Cal/Mol-Kelvin    Cal/Mol-Kelvin
 Total                    7.209              5.526             47.887
 Electronic               0.000              0.000              1.377
 Translational            0.889              2.981             35.068
 Rotational               0.592              1.987             11.322
 Vibrational              5.728              0.558              0.119

 Normal termination of Gaussian 16 at Fri Aug 22 16:05:11 2025.
