 Gaussian 16, Revision C.01,
 Gaussian 16:  ES64L-G16RevC.01  3-Jul-2019

 -----------------------------------------
 # sp b3lyp/6-311g** Force nosymm scf=(qc)
 -----------------------------------------

 -------------------
 Title Card Required
 -------------------
 Symbolic Z-matrix:
 Charge =  0 Multiplicity = 2

                          Input orientation:
 ---------------------------------------------------------------------
 Center     Atomic      Atomic             Coordinates (Angstroms)
 Number     Number       Type             X           Y           Z
 ---------------------------------------------------------------------
      1          1           0        0.000000    0.000000    0.000000
      2          1           0       -2.300000    0.000000    0.000000
      3          9           0        2.600000    0.000000    0.000000
 ---------------------------------------------------------------------

 SCF Done:  E(UB3LYP) =  -100.771969455     a.u. after   19 cycles

 Alpha  occ. eigenvalues --  -24.72347  -1.18517  -0.51452  -0.43208  -0.43208
 Alpha  occ. eigenvalues --   -0.33959
 Alpha virt. eigenvalues --   -0.12083   0.25064   0.32820   0.90319   0.93304
 Alpha virt. eigenvalues --    0.93304   1.06265   1.23800   1.23800   1.26106
 Alpha virt. eigenvalues --    1.37151   1.37151   1.42404   2.13591   2.33748

  Beta  occ. eigenvalues --  -24.69453  -1.10262  -0.40319  -0.40319  -0.34905
  Beta virt. eigenvalues --   -0.23783  -0.10363   0.26141   0.33797   0.94705
  Beta virt. eigenvalues --    0.94705   0.97976   1.09576   1.22779   1.22779
  Beta virt. eigenvalues --    1.27298   1.39968   1.39968   1.43746   2.14058

 Mulliken charges and spin densities:
               1          2
     1  H    0.059206  -0.862470
     2  H    0.015240   0.947244
     3  F   -0.074446   0.915226
 Sum of Mulliken charges =  -0.00000   1.00000

 Dipole moment (field-independent basis, Debye):
    X=             -1.1554    Y=             -0.0000    Z=              0.0000  Tot=              1.1554
 Quadrupole moment (field-independent basis, Debye-Ang):
   XX=             -8.4487   YY=             -7.6406   ZZ=             -7.6406
   XY=              0.0000   XZ=             -0.0000   YZ=             -0.0000

  Exact polarizability:      50.487       0.000       2.010      -0.000       0.000       2.010
 Approx polarizability:      51.026       0.000       1.919      -0.000      -0.000       1.919

 ******    2 imaginary frequencies (negative Signs) ******

                      1                      2                      3
                      A                      A                      A
 Frequencies --   -959.9082              -346.2779               374.9887
 Red. masses --      1.0116                 1.1040                 1.0165
 Frc consts  --      0.5492                 0.0780                 0.0842
 IR Inten    --     40.5169                36.8702                 2.5454

                      4
                      A
 Frequencies --    374.9887
 Red. masses --      1.0165
 Frc consts  --      0.0842
 IR Inten    --      2.5454

 - Thermochemistry -
 -------------------
 Temperature   298.150 Kelvin.  Pressure   1.00000 Atm.
 Atom     1 has atomic number  1 and mass   1.00783

 Molecular mass:    21.01405 amu.
 Principal axes and moments of inertia in atomic units:
                           1         2         3
     Eigenvalues --     0.00000 101.03235 101.03235
           X            1.00000  -0.00000   0.00000
           Y            0.00000   1.00000   0.00000
           Z            0.00000   0.00000   1.00000
 This molecule is a prolate symmetric top.
 Rotational symmetry number  1.
 Rotational temperature (Kelvin)      0.85729
 Rotational constant (GHZ):          17.863003
    2 imaginary frequencies ignored.
 Zero-point vibrational energy       4485.9 (Joules/Mol)
                                    1.07215 (Kcal/Mol)
 Warning -- explicit consideration of   2 degrees of freedom as
           vibrations may cause significant error
 Vibrational temperatures:    539.53   539.53
          (Kelvin)

 Zero-point correction=                           0.001709 (Hartree/Particle)
 Thermal correction to Energy=                    0.004738
 Thermal correction to Enthalpy=                  0.005682
 Thermal correction to Gibbs Free Energy=        -0.019110
 Sum of electronic and zero-point Energies=           -100.770261
 Sum of electronic and thermal Energies=              -100.767231
 Sum of electronic and thermal Enthalpies=            -100.766287
 Sum of electronic and thermal Free Energies=         -100.791079

                     E (Thermal)             CV                S
                      KCal/Mol        Cal/Mol-Kelvin    Cal/Mol-Kelvin
 Total                    2.973              8.015             52.180
 Electronic               0.000              0.000              1.377
 Translational            0.889              2.981             35.068
 Rotational               0.592              1.987             13.615
 Vibrational              1.492              3.047              2.119
 Vibration     1          0.746              1.523              1.059
 Vibration     2          0.746              1.523              1.059

 Normal termination of Gaussian 16 at Fri Aug 22 18:04:02 2025.
