 Gaussian 16, Revision C.01,
 Gaussian 16:  ES64L-G16RevC.01  3-Jul-2019

 -----------------------------------------
 # sp b3lyp/6-311g** Force nosymm scf=(qc)
 -----------------------------------------

 -------------------
 Title Card Required
 -------------------
 Symbolic Z-matrix:
 Charge =  0 Multiplicity = 2

                          Input orientation:
 ---------------------------------------------------------------------
 Center     Atomic      Atomic             Coordinates (Angstroms)
 Number     Number       Type             X           Y           Z
 ---------------------------------------------------------------------
      1          1           0        0.000000    0.000000    0.000000
      2          1           0       -2.350000    0.000000    0.000000
      3          9           0        1.300000    0.000000    0.000000
 ---------------------------------------------------------------------

 SCF Done:  E(UB3LYP) =  -100.902600086     a.u. after    7 cycles

 Alpha  occ. eigenvalues --  -24.64011  -1.10882  -0.46032  -0.36775  -0.36775
 Alpha  occ. eigenvalues --   -0.35828
 Alpha virt. eigenvalues --   -0.07729   0.24142   0.27289   0.93304   0.93304
 Alpha virt. eigenvalues --    1.02238   1.17410   1.21658   1.21658   1.30879
 Alpha virt. eigenvalues --    1.34219   1.34219   1.72053   2.12269   2.26247

  Beta  occ. eigenvalues --  -24.63909  -1.10621  -0.45606  -0.36681  -0.36681
  Beta virt. eigenvalues --   -0.13471  -0.04233   0.27053   0.35557   0.93290
  Beta virt. eigenvalues --    0.93290   1.02480   1.22060   1.33921   1.33921
  Beta virt. eigenvalues --    1.42069   1.42069   1.45560   1.72311   2.24583

 Mulliken charges and spin densities:
               1          2
     1  H    0.345602  -0.009748
     2  H    0.017283   0.978433
     3  F   -0.362884   0.031316
 Sum of Mulliken charges =  -0.00000   1.00000

 Dipole moment (field-independent basis, Debye):
    X=             -2.6087    Y=             -0.0000    Z=             -0.0000  Tot=              2.6087
 Quadrupole moment (field-independent basis, Debye-Ang):
   XX=             -8.7199   YY=             -7.1906   ZZ=             -7.1906
   XY=             -0.0000   XZ=             -0.0000   YZ=             -0.0000

  Exact polarizability:      16.277       0.000       2.307      -0.000      -0.000       2.307
 Approx polarizability:      22.096       0.000       2.256      -0.000      -0.000       2.256

 ******    2 imaginary frequencies (negative Signs) ******

                      1                      2                      3
                      A                      A                      A
 Frequencies --   -805.2093              -167.8104              1131.8439
 Red. masses --      1.0365                 1.0757                 1.0264
 Frc consts  --      0.3960                 0.0178                 0.7747
 IR Inten    --    156.4598                 0.1824               114.1718

                      4
                      A
 Frequencies --   1131.8439
 Red. masses --      1.0264
 Frc consts  --      0.7747
 IR Inten    --    114.1718

 - Thermochemistry -
 -------------------
 Temperature   298.150 Kelvin.  Pressure   1.00000 Atm.
 Atom     1 has atomic number  1 and mass   1.00783

 Molecular mass:    21.01405 amu.
 Principal axes and moments of inertia in atomic units:
                           1         2         3
     Eigenvalues --     0.00000  49.80081  49.80081
           X            1.00000  -0.00000   0.00000
           Y            0.00000   1.00000   0.00000
           Z            0.00000   0.00000   1.00000
 This molecule is a prolate symmetric top.
 Rotational symmetry number  1.
 Rotational temperature (Kelvin)      1.73921
 Rotational constant (GHZ):          36.239190
    2 imaginary frequencies ignored.
 Zero-point vibrational energy      13539.9 (Joules/Mol)
                                    3.23610 (Kcal/Mol)
 Vibrational temperatures:   1628.47  1628.47
          (Kelvin)

 Zero-point correction=                           0.005157 (Hartree/Particle)
 Thermal correction to Energy=                    0.007561
 Thermal correction to Enthalpy=                  0.008506
 Thermal correction to Gibbs Free Energy=        -0.014664
 Sum of electronic and zero-point Energies=           -100.897443
 Sum of electronic and thermal Energies=              -100.895039
 Sum of electronic and thermal Enthalpies=            -100.894094
 Sum of electronic and thermal Free Energies=         -100.917264

                     E (Thermal)             CV                S
                      KCal/Mol        Cal/Mol-Kelvin    Cal/Mol-Kelvin
 Total                    4.745              5.476             48.765
 Electronic               0.000              0.000              1.377
 Translational            0.889              2.981             35.068
 Rotational               0.592              1.987             12.210
 Vibrational              3.264              0.508              0.109

 Normal termination of Gaussian 16 at Fri Aug 22 16:15:18 2025.
