 Gaussian 16, Revision C.01,
 Gaussian 16:  ES64L-G16RevC.01  3-Jul-2019

 -----------------------------------------
 # sp b3lyp/6-311g** Force nosymm scf=(qc)
 -----------------------------------------

 -------------------
 Title Card Required
 -------------------
 Symbolic Z-matrix:
 Charge =  0 Multiplicity = 2

                          Input orientation:
 ---------------------------------------------------------------------
 Center     Atomic      Atomic             Coordinates (Angstroms)
 Number     Number       Type             X           Y           Z
 ---------------------------------------------------------------------
      1          1           0        0.000000    0.000000    0.000000
      2          1           0       -1.100000    0.000000    0.000000
      3          9           0        3.850000    0.000000    0.000000
 ---------------------------------------------------------------------

 SCF Done:  E(UB3LYP) =  -100.889597540     a.u. after  173 cycles

 Alpha  occ. eigenvalues --  -24.76232  -1.22127  -0.55330  -0.46508  -0.46486
 Alpha  occ. eigenvalues --   -0.37522
 Alpha virt. eigenvalues --   -0.01889   0.22134   0.36280   0.86043   0.90920
 Alpha virt. eigenvalues --    0.91546   1.00988   1.10785   1.10787   1.29658
 Alpha virt. eigenvalues --    1.59898   1.59900   2.16120   2.34103   2.55196

  Beta  occ. eigenvalues --  -24.73076  -1.13053  -0.43344  -0.43322  -0.37521
  Beta virt. eigenvalues --   -0.25979  -0.01886   0.22138   0.36296   0.92421
  Beta virt. eigenvalues --    0.93039   0.95509   1.05131   1.10785   1.10787
  Beta virt. eigenvalues --    1.29660   1.59897   1.59900   2.16123   2.34104

 Mulliken charges and spin densities:
               1          2
     1  H    0.000768  -0.000099
     2  H   -0.002074  -0.000044
     3  F    0.001306   1.000144
 Sum of Mulliken charges =   0.00000   1.00000

 Dipole moment (field-independent basis, Debye):
    X=              0.0250    Y=             -0.0000    Z=             -0.0000  Tot=              0.0250
 Quadrupole moment (field-independent basis, Debye-Ang):
   XX=             -6.3295   YY=             -6.6664   ZZ=             -7.2436
   XY=             -0.0000   XZ=             -0.0000   YZ=              0.3218

  Exact polarizability:      13.817      -0.000       2.464      -0.000       0.174       2.152
 Approx polarizability:      19.481      -0.000       2.598      -0.000       0.217       2.209

 ******    1 imaginary frequencies (negative Signs) ******

                      1                      2                      3
                      A                      A                      A
 Frequencies --    -51.3182              1027.0090              1527.5434
 Red. masses --      1.1085                 1.0078                 1.0094
 Frc consts  --      0.0017                 0.6263                 1.3877
 IR Inten    --      0.0525                 0.0619                 0.0028

                      4
                      A
 Frequencies --   1530.1016
 Red. masses --      1.0094
 Frc consts  --      1.3923
 IR Inten    --      0.0008

 - Thermochemistry -
 -------------------
 Temperature   298.150 Kelvin.  Pressure   1.00000 Atm.
 Atom     1 has atomic number  1 and mass   1.00783

 Molecular mass:    21.01405 amu.
 Principal axes and moments of inertia in atomic units:
                           1         2         3
     Eigenvalues --     0.00000 128.16433 128.16433
           X            1.00000  -0.00000   0.00000
           Y            0.00000   1.00000   0.00000
           Z            0.00000   0.00000   1.00000
 This molecule is a prolate symmetric top.
 Rotational symmetry number  1.
 Rotational temperature (Kelvin)      0.67580
 Rotational constant (GHZ):          14.081462
    1 imaginary frequencies ignored.
 Zero-point vibrational energy      24431.7 (Joules/Mol)
                                    5.83931 (Kcal/Mol)
 Vibrational temperatures:   1477.64  2197.79  2201.47
          (Kelvin)

 Zero-point correction=                           0.009306 (Hartree/Particle)
 Thermal correction to Energy=                    0.011708
 Thermal correction to Enthalpy=                  0.012652
 Thermal correction to Gibbs Free Energy=        -0.011408
 Sum of electronic and zero-point Energies=           -100.880292
 Sum of electronic and thermal Energies=              -100.877890
 Sum of electronic and thermal Enthalpies=            -100.876945
 Sum of electronic and thermal Free Energies=         -100.901005

                     E (Thermal)             CV                S
                      KCal/Mol        Cal/Mol-Kelvin    Cal/Mol-Kelvin
 Total                    7.347              5.452             50.638
 Electronic               0.000              0.000              1.377
 Translational            0.889              2.981             35.068
 Rotational               0.592              1.987             14.088
 Vibrational              5.866              0.484              0.105

 Normal termination of Gaussian 16 at Sat Aug 23 00:57:39 2025.
