 Gaussian 16, Revision C.01,
 Gaussian 16:  ES64L-G16RevC.01  3-Jul-2019

 -----------------------------------------
 # sp b3lyp/6-311g** Force nosymm scf=(qc)
 -----------------------------------------

 -------------------
 Title Card Required
 -------------------
 Symbolic Z-matrix:
 Charge =  0 Multiplicity = 2

                          Input orientation:
 ---------------------------------------------------------------------
 Center     Atomic      Atomic             Coordinates (Angstroms)
 Number     Number       Type             X           Y           Z
 ---------------------------------------------------------------------
      1          1           0        0.000000    0.000000    0.000000
      2          1           0       -2.500000    0.000000    0.000000
      3          9           0        1.300000    0.000000    0.000000
 ---------------------------------------------------------------------

 SCF Done:  E(UB3LYP) =  -100.902175208     a.u. after    7 cycles

 Alpha  occ. eigenvalues --  -24.64114  -1.10944  -0.46013  -0.36857  -0.36857
 Alpha  occ. eigenvalues --   -0.35455
 Alpha virt. eigenvalues --   -0.08090   0.23958   0.27285   0.93220   0.93220
 Alpha virt. eigenvalues --    1.02199   1.19228   1.22060   1.22060   1.28189
 Alpha virt. eigenvalues --    1.34093   1.34093   1.72062   2.13116   2.25777

  Beta  occ. eigenvalues --  -24.64044  -1.10762  -0.45734  -0.36792  -0.36792
  Beta virt. eigenvalues --   -0.12699  -0.04697   0.26820   0.36129   0.93210
  Beta virt. eigenvalues --    0.93210   1.02364   1.22699   1.33897   1.33897
  Beta virt. eigenvalues --    1.43050   1.43050   1.44636   1.72396   2.25177

 Mulliken charges and spin densities:
               1          2
     1  H    0.349032  -0.006340
     2  H    0.012852   0.984428
     3  F   -0.361883   0.021912
 Sum of Mulliken charges =  -0.00000   1.00000

 Dipole moment (field-independent basis, Debye):
    X=             -2.5597    Y=              0.0000    Z=              0.0000  Tot=              2.5597
 Quadrupole moment (field-independent basis, Debye-Ang):
   XX=             -8.8136   YY=             -7.1958   ZZ=             -7.1958
   XY=              0.0000   XZ=              0.0000   YZ=             -0.0000

  Exact polarizability:      15.290       0.000       2.300       0.000       0.000       2.300
 Approx polarizability:      21.105       0.000       2.248       0.000       0.000       2.248

 ******    2 imaginary frequencies (negative Signs) ******

                      1                      2                      3
                      A                      A                      A
 Frequencies --   -739.9838              -159.7084              1136.8243
 Red. masses --      1.0408                 1.0712                 1.0274
 Frc consts  --      0.3358                 0.0161                 0.7823
 IR Inten    --    129.7785                 0.0054               119.5320

                      4
                      A
 Frequencies --   1136.8243
 Red. masses --      1.0274
 Frc consts  --      0.7823
 IR Inten    --    119.5320

 - Thermochemistry -
 -------------------
 Temperature   298.150 Kelvin.  Pressure   1.00000 Atm.
 Atom     1 has atomic number  1 and mass   1.00783

 Molecular mass:    21.01405 amu.
 Principal axes and moments of inertia in atomic units:
                           1         2         3
     Eigenvalues --     0.00000  53.56250  53.56250
           X            1.00000  -0.00000   0.00000
           Y            0.00000   1.00000   0.00000
           Z            0.00000   0.00000   1.00000
 This molecule is a prolate symmetric top.
 Rotational symmetry number  1.
 Rotational temperature (Kelvin)      1.61706
 Rotational constant (GHZ):          33.694117
    2 imaginary frequencies ignored.
 Zero-point vibrational energy      13599.4 (Joules/Mol)
                                    3.25034 (Kcal/Mol)
 Vibrational temperatures:   1635.64  1635.64
          (Kelvin)

 Zero-point correction=                           0.005180 (Hartree/Particle)
 Thermal correction to Energy=                    0.007583
 Thermal correction to Enthalpy=                  0.008528
 Thermal correction to Gibbs Free Energy=        -0.014710
 Sum of electronic and zero-point Energies=           -100.896995
 Sum of electronic and thermal Energies=              -100.894592
 Sum of electronic and thermal Enthalpies=            -100.893648
 Sum of electronic and thermal Free Energies=         -100.916885

                     E (Thermal)             CV                S
                      KCal/Mol        Cal/Mol-Kelvin    Cal/Mol-Kelvin
 Total                    4.759              5.468             48.907
 Electronic               0.000              0.000              1.377
 Translational            0.889              2.981             35.068
 Rotational               0.592              1.987             12.354
 Vibrational              3.277              0.500              0.107

 Normal termination of Gaussian 16 at Fri Aug 22 16:15:24 2025.
