 Gaussian 16, Revision C.01,
 Gaussian 16:  ES64L-G16RevC.01  3-Jul-2019

 -----------------------------------------
 # sp b3lyp/6-311g** Force nosymm scf=(qc)
 -----------------------------------------

 -------------------
 Title Card Required
 -------------------
 Symbolic Z-matrix:
 Charge =  0 Multiplicity = 2

                          Input orientation:
 ---------------------------------------------------------------------
 Center     Atomic      Atomic             Coordinates (Angstroms)
 Number     Number       Type             X           Y           Z
 ---------------------------------------------------------------------
      1          1           0        0.000000    0.000000    0.000000
      2          1           0       -0.800000    0.000000    0.000000
      3          9           0        0.550000    0.000000    0.000000
 ---------------------------------------------------------------------

 SCF Done:  E(UB3LYP) =  -100.411502818     a.u. after    6 cycles

 Alpha  occ. eigenvalues --  -24.67252  -1.46355  -0.70157  -0.48035  -0.48035
 Alpha  occ. eigenvalues --   -0.30179
 Alpha virt. eigenvalues --    0.16734   0.20138   0.84429   0.84815   0.84815
 Alpha virt. eigenvalues --    0.94186   1.10887   1.10887   1.47406   1.62259
 Alpha virt. eigenvalues --    1.90714   1.90714   2.26487   2.81342   3.73000

  Beta  occ. eigenvalues --  -24.66709  -1.44454  -0.67945  -0.47604  -0.47604
  Beta virt. eigenvalues --   -0.09897   0.17403   0.26973   0.85582   0.86230
  Beta virt. eigenvalues --    0.86230   0.99208   1.17860   1.17860   1.48950
  Beta virt. eigenvalues --    1.68606   1.96461   1.96461   2.37111   2.91185

 Mulliken charges and spin densities:
               1          2
     1  H    0.244415  -0.039823
     2  H   -0.107676   0.999853
     3  F   -0.136739   0.039969
 Sum of Mulliken charges =   0.00000   1.00000

 Dipole moment (field-independent basis, Debye):
    X=             -0.5207    Y=             -0.0000    Z=              0.0000  Tot=              0.5207
 Quadrupole moment (field-independent basis, Debye-Ang):
   XX=             -7.4129   YY=             -6.3893   ZZ=             -6.3893
   XY=             -0.0000   XZ=              0.0000   YZ=             -0.0000

  Exact polarizability:       6.810      -0.000       2.450      -0.000       0.000       2.450
 Approx polarizability:       6.503       0.000       2.539       0.000      -0.000       2.539

 ******    2 imaginary frequencies (negative Signs) ******

                      1                      2                      3
                      A                      A                      A
 Frequencies --  -7380.8724             -7380.8724              3371.0143
 Red. masses --      1.0231                 1.0231                 1.0561
 Frc consts  --     32.8372                32.8372                 7.0711
 IR Inten    --    166.9524               166.9524               250.3194

                      4
                      A
 Frequencies --  15878.0681
 Red. masses --      1.0554
 Frc consts  --    156.7727
 IR Inten    --     17.7982

 - Thermochemistry -
 -------------------
 Temperature   298.150 Kelvin.  Pressure   1.00000 Atm.
 Atom     1 has atomic number  1 and mass   1.00783

 Molecular mass:    21.01405 amu.
 Principal axes and moments of inertia in atomic units:
                           1         2         3
     Eigenvalues --     0.00000   7.02478   7.02478
           X            1.00000  -0.00000   0.00000
           Y            0.00000   1.00000   0.00000
           Z            0.00000   0.00000   1.00000
 This molecule is a prolate symmetric top.
 Rotational symmetry number  1.
 Rotational temperature (Kelvin)     12.32977
 Rotational constant (GHZ):         256.910628
    2 imaginary frequencies ignored.
 Zero-point vibrational energy     115135.1 (Joules/Mol)
                                   27.51794 (Kcal/Mol)
 Vibrational temperatures:   4850.14 22845.00
          (Kelvin)

 Zero-point correction=                           0.043853 (Hartree/Particle)
 Thermal correction to Energy=                    0.046213
 Thermal correction to Enthalpy=                  0.047157
 Thermal correction to Gibbs Free Energy=         0.025889
 Sum of electronic and zero-point Energies=           -100.367650
 Sum of electronic and thermal Energies=              -100.365290
 Sum of electronic and thermal Enthalpies=            -100.364346
 Sum of electronic and thermal Free Energies=         -100.385614

                     E (Thermal)             CV                S
                      KCal/Mol        Cal/Mol-Kelvin    Cal/Mol-Kelvin
 Total                   28.999              4.968             44.763
 Electronic               0.000              0.000              1.377
 Translational            0.889              2.981             35.068
 Rotational               0.592              1.987              8.318
 Vibrational             27.518              0.000              0.000

 Normal termination of Gaussian 16 at Fri Aug 22 15:38:30 2025.
