 Gaussian 16, Revision C.01,
 Gaussian 16:  ES64L-G16RevC.01  3-Jul-2019

 -----------------------------------------
 # sp b3lyp/6-311g** Force nosymm scf=(qc)
 -----------------------------------------

 -------------------
 Title Card Required
 -------------------
 Symbolic Z-matrix:
 Charge =  0 Multiplicity = 2

                          Input orientation:
 ---------------------------------------------------------------------
 Center     Atomic      Atomic             Coordinates (Angstroms)
 Number     Number       Type             X           Y           Z
 ---------------------------------------------------------------------
      1          1           0        0.000000    0.000000    0.000000
      2          1           0       -3.000000    0.000000    0.000000
      3          9           0        1.600000    0.000000    0.000000
 ---------------------------------------------------------------------

 SCF Done:  E(UB3LYP) =  -100.834529052     a.u. after   10 cycles

 Alpha  occ. eigenvalues --  -24.64825  -1.10500  -0.43369  -0.36758  -0.36758
 Alpha  occ. eigenvalues --   -0.34639
 Alpha virt. eigenvalues --   -0.15106   0.21529   0.28180   0.94228   0.94228
 Alpha virt. eigenvalues --    1.00575   1.07317   1.22890   1.22890   1.23478
 Alpha virt. eigenvalues --    1.32205   1.32205   1.74595   2.13609   2.21221

  Beta  occ. eigenvalues --  -24.63968  -1.08199  -0.41325  -0.35936  -0.35936
  Beta virt. eigenvalues --   -0.17256  -0.07951   0.23028   0.36912   0.93922
  Beta virt. eigenvalues --    0.93922   1.01561   1.07578   1.27720   1.27720
  Beta virt. eigenvalues --    1.44110   1.44423   1.44423   1.72628   2.14640

 Mulliken charges and spin densities:
               1          2
     1  H    0.323216  -0.262680
     2  H    0.007062   0.991863
     3  F   -0.330279   0.270817
 Sum of Mulliken charges =  -0.00000   1.00000

 Dipole moment (field-independent basis, Debye):
    X=             -2.6828    Y=             -0.0000    Z=              0.0000  Tot=              2.6828
 Quadrupole moment (field-independent basis, Debye-Ang):
   XX=             -9.9042   YY=             -7.3753   ZZ=             -7.3753
   XY=             -0.0000   XZ=              0.0000   YZ=             -0.0000

  Exact polarizability:      22.600       0.000       2.151       0.000       0.000       2.151
 Approx polarizability:      36.468       0.000       2.065       0.000       0.000       2.065

 ******    2 imaginary frequencies (negative Signs) ******

                      1                      2                      3
                      A                      A                      A
 Frequencies --  -1890.1581              -179.4027               898.8277
 Red. masses --      1.0561                 1.0554                 1.0270
 Frc consts  --      2.2231                 0.0200                 0.4889
 IR Inten    --     44.4631                 1.9845                95.4673

                      4
                      A
 Frequencies --    898.8277
 Red. masses --      1.0270
 Frc consts  --      0.4889
 IR Inten    --     95.4673

 - Thermochemistry -
 -------------------
 Temperature   298.150 Kelvin.  Pressure   1.00000 Atm.
 Atom     1 has atomic number  1 and mass   1.00783

 Molecular mass:    21.01405 amu.
 Principal axes and moments of inertia in atomic units:
                           1         2         3
     Eigenvalues --     0.00000  78.73347  78.73347
           X            1.00000  -0.00000   0.00000
           Y            0.00000   1.00000   0.00000
           Z            0.00000   0.00000   1.00000
 This molecule is a prolate symmetric top.
 Rotational symmetry number  1.
 Rotational temperature (Kelvin)      1.10009
 Rotational constant (GHZ):          22.922159
    2 imaginary frequencies ignored.
 Zero-point vibrational energy      10752.4 (Joules/Mol)
                                    2.56988 (Kcal/Mol)
 Vibrational temperatures:   1293.21  1293.21
          (Kelvin)

 Zero-point correction=                           0.004095 (Hartree/Particle)
 Thermal correction to Energy=                    0.006564
 Thermal correction to Enthalpy=                  0.007508
 Thermal correction to Gibbs Free Energy=        -0.016175
 Sum of electronic and zero-point Energies=           -100.830434
 Sum of electronic and thermal Energies=              -100.827965
 Sum of electronic and thermal Enthalpies=            -100.827021
 Sum of electronic and thermal Free Energies=         -100.850704

                     E (Thermal)             CV                S
                      KCal/Mol        Cal/Mol-Kelvin    Cal/Mol-Kelvin
 Total                    4.119              5.971             49.846
 Electronic               0.000              0.000              1.377
 Translational            0.889              2.981             35.068
 Rotational               0.592              1.987             13.120
 Vibrational              2.638              1.003              0.281

 Normal termination of Gaussian 16 at Fri Aug 22 16:32:02 2025.
