 Gaussian 16, Revision C.01,
 Gaussian 16:  ES64L-G16RevC.01  3-Jul-2019

 -----------------------------------------
 # sp b3lyp/6-311g** Force nosymm scf=(qc)
 -----------------------------------------

 -------------------
 Title Card Required
 -------------------
 Symbolic Z-matrix:
 Charge =  0 Multiplicity = 2

                          Input orientation:
 ---------------------------------------------------------------------
 Center     Atomic      Atomic             Coordinates (Angstroms)
 Number     Number       Type             X           Y           Z
 ---------------------------------------------------------------------
      1          1           0        0.000000    0.000000    0.000000
      2          1           0       -2.850000    0.000000    0.000000
      3          9           0        3.550000    0.000000    0.000000
 ---------------------------------------------------------------------

 SCF Done:  E(UB3LYP) =  -100.760442845     a.u. after   32 cycles

 Alpha  occ. eigenvalues --  -24.75491  -1.21446  -0.54614  -0.45855  -0.45855
 Alpha  occ. eigenvalues --   -0.32479
 Alpha virt. eigenvalues --   -0.08397   0.25217   0.35524   0.87457   0.91414
 Alpha virt. eigenvalues --    0.91414   1.01681   1.25077   1.25077   1.26106
 Alpha virt. eigenvalues --    1.43314   1.43314   1.43535   2.15902   2.38909

  Beta  occ. eigenvalues --  -24.72371  -1.12480  -0.42728  -0.42728  -0.32843
  Beta virt. eigenvalues --   -0.25543  -0.07909   0.25001   0.36264   0.92905
  Beta virt. eigenvalues --    0.92905   0.96645   1.05724   1.24656   1.24656
  Beta virt. eigenvalues --    1.25636   1.44081   1.44081   1.44296   2.16222

 Mulliken charges and spin densities:
               1          2
     1  H    0.008799  -0.977976
     2  H    0.000880   0.988730
     3  F   -0.009679   0.989246
 Sum of Mulliken charges =  -0.00000   1.00000

 Dipole moment (field-independent basis, Debye):
    X=             -0.1886    Y=             -0.0000    Z=             -0.0000  Tot=              0.1886
 Quadrupole moment (field-independent basis, Debye-Ang):
   XX=             -7.2017   YY=             -7.6415   ZZ=             -7.6415
   XY=             -0.0000   XZ=             -0.0000   YZ=              0.0000

  Exact polarizability:      26.278      -0.000       2.033      -0.000       0.000       2.033
 Approx polarizability:      19.933      -0.000       1.931      -0.000      -0.000       1.931

 ******    2 imaginary frequencies (negative Signs) ******

                      1                      2                      3
                      A                      A                      A
 Frequencies --   -423.4225              -129.4928               147.6785
 Red. masses --      1.0091                 1.1070                 1.0155
 Frc consts  --      0.1066                 0.0109                 0.0130
 IR Inten    --      5.6755                 4.1880                 0.0583

                      4
                      A
 Frequencies --    147.6785
 Red. masses --      1.0155
 Frc consts  --      0.0130
 IR Inten    --      0.0583

 - Thermochemistry -
 -------------------
 Temperature   298.150 Kelvin.  Pressure   1.00000 Atm.
 Atom     1 has atomic number  1 and mass   1.00783

 Molecular mass:    21.01405 amu.
 Principal axes and moments of inertia in atomic units:
                           1         2         3
     Eigenvalues --     0.00000 175.68338 175.68338
           X            1.00000  -0.00000   0.00000
           Y            0.00000   1.00000   0.00000
           Z            0.00000   0.00000   1.00000
 This molecule is a prolate symmetric top.
 Rotational symmetry number  1.
 Rotational temperature (Kelvin)      0.49301
 Rotational constant (GHZ):          10.272692
    2 imaginary frequencies ignored.
 Zero-point vibrational energy       1766.6 (Joules/Mol)
                                    0.42223 (Kcal/Mol)
 Warning -- explicit consideration of   2 degrees of freedom as
           vibrations may cause significant error
 Vibrational temperatures:    212.48   212.48
          (Kelvin)

 Zero-point correction=                           0.000673 (Hartree/Particle)
 Thermal correction to Energy=                    0.004328
 Thermal correction to Enthalpy=                  0.005272
 Thermal correction to Gibbs Free Energy=        -0.021603
 Sum of electronic and zero-point Energies=           -100.759770
 Sum of electronic and thermal Energies=              -100.756115
 Sum of electronic and thermal Enthalpies=            -100.755171
 Sum of electronic and thermal Free Energies=         -100.782046

                     E (Thermal)             CV                S
                      KCal/Mol        Cal/Mol-Kelvin    Cal/Mol-Kelvin
 Total                    2.716              8.778             56.564
 Electronic               0.000              0.000              1.377
 Translational            0.889              2.981             35.068
 Rotational               0.592              1.987             14.715
 Vibrational              1.235              3.810              5.404
 Vibration     1          0.617              1.905              2.702
 Vibration     2          0.617              1.905              2.702

 Normal termination of Gaussian 16 at Fri Aug 22 22:40:22 2025.
