 Gaussian 16, Revision C.01,
 Gaussian 16:  ES64L-G16RevC.01  3-Jul-2019

 -----------------------------------------
 # sp b3lyp/6-311g** Force nosymm scf=(qc)
 -----------------------------------------

 -------------------
 Title Card Required
 -------------------
 Symbolic Z-matrix:
 Charge =  0 Multiplicity = 2

                          Input orientation:
 ---------------------------------------------------------------------
 Center     Atomic      Atomic             Coordinates (Angstroms)
 Number     Number       Type             X           Y           Z
 ---------------------------------------------------------------------
      1          1           0        0.000000    0.000000    0.000000
      2          1           0       -3.350000    0.000000    0.000000
      3          9           0        2.300000    0.000000    0.000000
 ---------------------------------------------------------------------

 SCF Done:  E(UB3LYP) =  -100.773038239     a.u. after   14 cycles

 Alpha  occ. eigenvalues --  -24.70471  -1.16752  -0.49549  -0.41650  -0.41650
 Alpha  occ. eigenvalues --   -0.33184
 Alpha virt. eigenvalues --   -0.11588   0.23240   0.34224   0.88849   0.94225
 Alpha virt. eigenvalues --    0.94225   1.06265   1.24334   1.24334   1.24604
 Alpha virt. eigenvalues --    1.38573   1.38573   1.48529   2.14472   2.33846

  Beta  occ. eigenvalues --  -24.67759  -1.09074  -0.38955  -0.38955  -0.36257
  Beta virt. eigenvalues --   -0.22476  -0.07139   0.23763   0.37667   0.93033
  Beta virt. eigenvalues --    0.95442   0.95442   1.08359   1.21619   1.21619
  Beta virt. eigenvalues --    1.37055   1.45402   1.45579   1.45579   2.12297

 Mulliken charges and spin densities:
               1          2
     1  H    0.122142  -0.852074
     2  H    0.001673   0.996860
     3  F   -0.123815   0.855213
 Sum of Mulliken charges =  -0.00000   1.00000

 Dipole moment (field-independent basis, Debye):
    X=             -1.4621    Y=              0.0000    Z=              0.0000  Tot=              1.4621
 Quadrupole moment (field-independent basis, Debye-Ang):
   XX=             -9.6052   YY=             -7.5470   ZZ=             -7.5470
   XY=              0.0000   XZ=              0.0000   YZ=             -0.0000

  Exact polarizability:      29.897       0.000       2.032       0.000      -0.000       2.032
 Approx polarizability:      39.444       0.000       1.924       0.000       0.000       1.924

 ******    2 imaginary frequencies (negative Signs) ******

                      1                      2                      3
                      A                      A                      A
 Frequencies --   -773.7427              -144.3009               316.0752
 Red. masses --      1.0545                 1.0570                 1.0231
 Frc consts  --      0.3720                 0.0130                 0.0602
 IR Inten    --     96.5663                 0.5034                14.0453

                      4
                      A
 Frequencies --    316.0752
 Red. masses --      1.0231
 Frc consts  --      0.0602
 IR Inten    --     14.0453

 - Thermochemistry -
 -------------------
 Temperature   298.150 Kelvin.  Pressure   1.00000 Atm.
 Atom     1 has atomic number  1 and mass   1.00783

 Molecular mass:    21.01405 amu.
 Principal axes and moments of inertia in atomic units:
                           1         2         3
     Eigenvalues --     0.00000 123.01892 123.01892
           X            1.00000  -0.00000   0.00000
           Y            0.00000   1.00000   0.00000
           Z            0.00000   0.00000   1.00000
 This molecule is a prolate symmetric top.
 Rotational symmetry number  1.
 Rotational temperature (Kelvin)      0.70407
 Rotational constant (GHZ):          14.670436
    2 imaginary frequencies ignored.
 Zero-point vibrational energy       3781.1 (Joules/Mol)
                                    0.90370 (Kcal/Mol)
 Warning -- explicit consideration of   2 degrees of freedom as
           vibrations may cause significant error
 Vibrational temperatures:    454.76   454.76
          (Kelvin)

 Zero-point correction=                           0.001440 (Hartree/Particle)
 Thermal correction to Energy=                    0.004601
 Thermal correction to Enthalpy=                  0.005546
 Thermal correction to Gibbs Free Energy=        -0.019690
 Sum of electronic and zero-point Energies=           -100.771598
 Sum of electronic and thermal Energies=              -100.768437
 Sum of electronic and thermal Enthalpies=            -100.767493
 Sum of electronic and thermal Free Energies=         -100.792728

                     E (Thermal)             CV                S
                      KCal/Mol        Cal/Mol-Kelvin    Cal/Mol-Kelvin
 Total                    2.887              8.254             53.113
 Electronic               0.000              0.000              1.377
 Translational            0.889              2.981             35.068
 Rotational               0.592              1.987             14.007
 Vibrational              1.406              3.286              2.661
 Vibration     1          0.703              1.643              1.330
 Vibration     2          0.703              1.643              1.330

 Normal termination of Gaussian 16 at Fri Aug 22 17:23:06 2025.
