 Gaussian 16, Revision C.01,
 Gaussian 16:  ES64L-G16RevC.01  3-Jul-2019

 -----------------------------------------
 # sp b3lyp/6-311g** Force nosymm scf=(qc)
 -----------------------------------------

 -------------------
 Title Card Required
 -------------------
 Symbolic Z-matrix:
 Charge =  0 Multiplicity = 2

                          Input orientation:
 ---------------------------------------------------------------------
 Center     Atomic      Atomic             Coordinates (Angstroms)
 Number     Number       Type             X           Y           Z
 ---------------------------------------------------------------------
      1          1           0        0.000000    0.000000    0.000000
      2          1           0       -2.350000    0.000000    0.000000
      3          9           0        0.600000    0.000000    0.000000
 ---------------------------------------------------------------------

 SCF Done:  E(UB3LYP) =  -100.687974004     a.u. after    6 cycles

 Alpha  occ. eigenvalues --  -24.62688  -1.34679  -0.61026  -0.42930  -0.42930
 Alpha  occ. eigenvalues --   -0.34526
 Alpha virt. eigenvalues --    0.09389   0.25418   0.57081   0.92174   0.92174
 Alpha virt. eigenvalues --    0.93316   1.16926   1.23026   1.23026   1.49707
 Alpha virt. eigenvalues --    1.50303   1.50303   1.94571   2.16158   3.36685

  Beta  occ. eigenvalues --  -24.62677  -1.34647  -0.60992  -0.42925  -0.42925
  Beta virt. eigenvalues --   -0.08470   0.10796   0.37942   0.56712   0.92163
  Beta virt. eigenvalues --    0.92163   0.93457   1.29042   1.44995   1.44995
  Beta virt. eigenvalues --    1.50293   1.50293   1.60772   1.95815   2.44572

 Mulliken charges and spin densities:
               1          2
     1  H    0.229667   0.004892
     2  H    0.005673   0.992179
     3  F   -0.235341   0.002929
 Sum of Mulliken charges =   0.00000   1.00000

 Dipole moment (field-independent basis, Debye):
    X=             -1.4926    Y=              0.0000    Z=              0.0000  Tot=              1.4926
 Quadrupole moment (field-independent basis, Debye-Ang):
   XX=             -6.7855   YY=             -6.5410   ZZ=             -6.5410
   XY=              0.0000   XZ=              0.0000   YZ=             -0.0000

  Exact polarizability:       5.111       0.000       2.467      -0.000       0.000       2.467
 Approx polarizability:       5.082      -0.000       2.453      -0.000      -0.000       2.453

 ******    2 imaginary frequencies (negative Signs) ******

                      1                      2                      3
                      A                      A                      A
 Frequencies --  -5829.8322             -5829.8322               182.6267
 Red. masses --      1.0386                 1.0386                 1.0533
 Frc consts  --     20.7979                20.7979                 0.0207
 IR Inten    --    219.6937               219.6937                 0.1494

                      4
                      A
 Frequencies --  13070.5288
 Red. masses --      1.0583
 Frc consts  --    106.5239
 IR Inten    --    111.0790

 - Thermochemistry -
 -------------------
 Temperature   298.150 Kelvin.  Pressure   1.00000 Atm.
 Atom     1 has atomic number  1 and mass   1.00783

 Molecular mass:    21.01405 amu.
 Principal axes and moments of inertia in atomic units:
                           1         2         3
     Eigenvalues --     0.00000  30.44074  30.44074
           X            1.00000  -0.00000   0.00000
           Y            0.00000   1.00000   0.00000
           Z            0.00000   0.00000   1.00000
 This molecule is a prolate symmetric top.
 Rotational symmetry number  1.
 Rotational temperature (Kelvin)      2.84533
 Rotational constant (GHZ):          59.287042
    2 imaginary frequencies ignored.
 Zero-point vibrational energy      79271.5 (Joules/Mol)
                                   18.94634 (Kcal/Mol)
 Warning -- explicit consideration of   1 degrees of freedom as
           vibrations may cause significant error
 Vibrational temperatures:    262.76 18805.58
          (Kelvin)

 Zero-point correction=                           0.030193 (Hartree/Particle)
 Thermal correction to Energy=                    0.033142
 Thermal correction to Enthalpy=                  0.034086
 Thermal correction to Gibbs Free Energy=         0.010340
 Sum of electronic and zero-point Energies=           -100.657781
 Sum of electronic and thermal Energies=              -100.654832
 Sum of electronic and thermal Enthalpies=            -100.653888
 Sum of electronic and thermal Free Energies=         -100.677634

                     E (Thermal)             CV                S
                      KCal/Mol        Cal/Mol-Kelvin    Cal/Mol-Kelvin
 Total                   20.797              6.831             49.978
 Electronic               0.000              0.000              1.377
 Translational            0.889              2.981             35.068
 Rotational               0.592              1.987             11.232
 Vibrational             19.316              1.863              2.301
 Vibration     1          0.630              1.863              2.301

 Normal termination of Gaussian 16 at Fri Aug 22 15:41:56 2025.
