 Gaussian 16, Revision C.01,
 Gaussian 16:  ES64L-G16RevC.01  3-Jul-2019

 -----------------------------------------
 # sp b3lyp/6-311g** Force nosymm scf=(qc)
 -----------------------------------------

 -------------------
 Title Card Required
 -------------------
 Symbolic Z-matrix:
 Charge =  0 Multiplicity = 2

                          Input orientation:
 ---------------------------------------------------------------------
 Center     Atomic      Atomic             Coordinates (Angstroms)
 Number     Number       Type             X           Y           Z
 ---------------------------------------------------------------------
      1          1           0        0.000000    0.000000    0.000000
      2          1           0       -3.050000    0.000000    0.000000
      3          9           0        1.150000    0.000000    0.000000
 ---------------------------------------------------------------------

 SCF Done:  E(UB3LYP) =  -100.937494456     a.u. after    6 cycles

 Alpha  occ. eigenvalues --  -24.64285  -1.12970  -0.48632  -0.37762  -0.37762
 Alpha  occ. eigenvalues --   -0.34302
 Alpha virt. eigenvalues --   -0.03901   0.23641   0.29843   0.93389   0.93389
 Alpha virt. eigenvalues --    1.00213   1.23071   1.23227   1.23227   1.29027
 Alpha virt. eigenvalues --    1.34976   1.34976   1.76057   2.14161   2.30616

  Beta  occ. eigenvalues --  -24.64275  -1.12945  -0.48599  -0.37753  -0.37753
  Beta virt. eigenvalues --   -0.08583  -0.02335   0.28657   0.37988   0.93389
  Beta virt. eigenvalues --    0.93389   1.00234   1.28420   1.34959   1.34959
  Beta virt. eigenvalues --    1.46396   1.46396   1.46871   1.76194   2.30590

 Mulliken charges and spin densities:
               1          2
     1  H    0.346013   0.000548
     2  H    0.003122   0.996281
     3  F   -0.349136   0.003171
 Sum of Mulliken charges =   0.00000   1.00000

 Dipole moment (field-independent basis, Debye):
    X=             -2.2646    Y=             -0.0000    Z=             -0.0000  Tot=              2.2646
 Quadrupole moment (field-independent basis, Debye-Ang):
   XX=             -8.5998   YY=             -7.0888   ZZ=             -7.0888
   XY=             -0.0000   XZ=             -0.0000   YZ=              0.0000

  Exact polarizability:       9.682      -0.000       2.351       0.000      -0.000       2.351
 Approx polarizability:      12.705      -0.000       2.312       0.000      -0.000       2.312

 ******    1 imaginary frequencies (negative Signs) ******

                      1                      2                      3
                      A                      A                      A
 Frequencies --    -91.5021              1198.4850              1198.4850
 Red. masses --      1.0525                 1.0326                 1.0326
 Frc consts  --      0.0052                 0.8739                 0.8739
 IR Inten    --      0.4518               147.1780               147.1780

                      4
                      A
 Frequencies --   1458.8882
 Red. masses --      1.0591
 Frc consts  --      1.3280
 IR Inten    --     84.5715

 - Thermochemistry -
 -------------------
 Temperature   298.150 Kelvin.  Pressure   1.00000 Atm.
 Atom     1 has atomic number  1 and mass   1.00783

 Molecular mass:    21.01405 amu.
 Principal axes and moments of inertia in atomic units:
                           1         2         3
     Eigenvalues --     0.00000  63.30576  63.30576
           X            1.00000  -0.00000   0.00000
           Y            0.00000   1.00000   0.00000
           Z            0.00000   0.00000   1.00000
 This molecule is a prolate symmetric top.
 Rotational symmetry number  1.
 Rotational temperature (Kelvin)      1.36818
 Rotational constant (GHZ):          28.508326
    1 imaginary frequencies ignored.
 Zero-point vibrational energy      23063.2 (Joules/Mol)
                                    5.51223 (Kcal/Mol)
 Vibrational temperatures:   1724.35  1724.35  2099.01
          (Kelvin)

 Zero-point correction=                           0.008784 (Hartree/Particle)
 Thermal correction to Energy=                    0.011184
 Thermal correction to Enthalpy=                  0.012128
 Thermal correction to Gibbs Free Energy=        -0.011262
 Sum of electronic and zero-point Energies=           -100.928710
 Sum of electronic and thermal Energies=              -100.926310
 Sum of electronic and thermal Enthalpies=            -100.925366
 Sum of electronic and thermal Free Energies=         -100.948756

                     E (Thermal)             CV                S
                      KCal/Mol        Cal/Mol-Kelvin    Cal/Mol-Kelvin
 Total                    7.018              5.466             49.229
 Electronic               0.000              0.000              1.377
 Translational            0.889              2.981             35.068
 Rotational               0.592              1.987             12.687
 Vibrational              5.537              0.498              0.097

 Normal termination of Gaussian 16 at Fri Aug 22 16:08:26 2025.
