 Gaussian 16, Revision C.01,
 Gaussian 16:  ES64L-G16RevC.01  3-Jul-2019

 -----------------------------------------
 # sp b3lyp/6-311g** Force nosymm scf=(qc)
 -----------------------------------------

 -------------------
 Title Card Required
 -------------------
 Symbolic Z-matrix:
 Charge =  0 Multiplicity = 2

                          Input orientation:
 ---------------------------------------------------------------------
 Center     Atomic      Atomic             Coordinates (Angstroms)
 Number     Number       Type             X           Y           Z
 ---------------------------------------------------------------------
      1          1           0        0.000000    0.000000    0.000000
      2          1           0       -1.950000    0.000000    0.000000
      3          9           0        1.450000    0.000000    0.000000
 ---------------------------------------------------------------------

 SCF Done:  E(UB3LYP) =  -100.871463324     a.u. after    9 cycles

 Alpha  occ. eigenvalues --  -24.63702  -1.09912  -0.44693  -0.37240  -0.36084
 Alpha  occ. eigenvalues --   -0.36084
 Alpha virt. eigenvalues --   -0.10124   0.23018   0.27428   0.94013   0.94013
 Alpha virt. eigenvalues --    1.02090   1.05296   1.19724   1.19724   1.34092
 Alpha virt. eigenvalues --    1.34092   1.36594   1.72336   2.10354   2.28109

  Beta  occ. eigenvalues --  -24.63128  -1.08403  -0.42501  -0.35542  -0.35542
  Beta virt. eigenvalues --   -0.18003  -0.06007   0.26176   0.32249   0.93889
  Beta virt. eigenvalues --    0.93889   1.04515   1.08794   1.31025   1.31025
  Beta virt. eigenvalues --    1.37964   1.37964   1.47888   1.72901   2.17574

 Mulliken charges and spin densities:
               1          2
     1  H    0.311539  -0.110043
     2  H    0.046281   0.931335
     3  F   -0.357820   0.178708
 Sum of Mulliken charges =   0.00000   1.00000

 Dipole moment (field-independent basis, Debye):
    X=             -3.0039    Y=              0.0000    Z=             -0.0000  Tot=              3.0039
 Quadrupole moment (field-independent basis, Debye-Ang):
   XX=             -8.7131   YY=             -7.2608   ZZ=             -7.2608
   XY=              0.0000   XZ=             -0.0000   YZ=             -0.0000

  Exact polarizability:      26.263       0.000       2.258      -0.000      -0.000       2.258
 Approx polarizability:      37.081       0.000       2.195      -0.000      -0.000       2.195

 ******    2 imaginary frequencies (negative Signs) ******

                      1                      2                      3
                      A                      A                      A
 Frequencies --  -1761.4072              -365.3170              1020.8682
 Red. masses --      1.0339                 1.0786                 1.0219
 Frc consts  --      1.8899                 0.0848                 0.6275
 IR Inten    --     82.3393                 0.0031                72.2492

                      4
                      A
 Frequencies --   1020.8682
 Red. masses --      1.0219
 Frc consts  --      0.6275
 IR Inten    --     72.2492

 - Thermochemistry -
 -------------------
 Temperature   298.150 Kelvin.  Pressure   1.00000 Atm.
 Atom     1 has atomic number  1 and mass   1.00783

 Molecular mass:    21.01405 amu.
 Principal axes and moments of inertia in atomic units:
                           1         2         3
     Eigenvalues --     0.00000  45.11131  45.11131
           X            1.00000  -0.00000   0.00000
           Y            0.00000   1.00000   0.00000
           Z            0.00000   0.00000   1.00000
 This molecule is a prolate symmetric top.
 Rotational symmetry number  1.
 Rotational temperature (Kelvin)      1.92000
 Rotational constant (GHZ):          40.006404
    2 imaginary frequencies ignored.
 Zero-point vibrational energy      12212.3 (Joules/Mol)
                                    2.91881 (Kcal/Mol)
 Vibrational temperatures:   1468.80  1468.80
          (Kelvin)

 Zero-point correction=                           0.004651 (Hartree/Particle)
 Thermal correction to Energy=                    0.007080
 Thermal correction to Enthalpy=                  0.008024
 Thermal correction to Gibbs Free Energy=        -0.015082
 Sum of electronic and zero-point Energies=           -100.866812
 Sum of electronic and thermal Energies=              -100.864383
 Sum of electronic and thermal Enthalpies=            -100.863439
 Sum of electronic and thermal Free Energies=         -100.886545

                     E (Thermal)             CV                S
                      KCal/Mol        Cal/Mol-Kelvin    Cal/Mol-Kelvin
 Total                    4.443              5.678             48.631
 Electronic               0.000              0.000              1.377
 Translational            0.889              2.981             35.068
 Rotational               0.592              1.987             12.013
 Vibrational              2.961              0.710              0.172

 Normal termination of Gaussian 16 at Fri Aug 22 16:22:46 2025.
