 Gaussian 16, Revision C.01,
 Gaussian 16:  ES64L-G16RevC.01  3-Jul-2019

 -----------------------------------------
 # sp b3lyp/6-311g** Force nosymm scf=(qc)
 -----------------------------------------

 -------------------
 Title Card Required
 -------------------
 Symbolic Z-matrix:
 Charge =  0 Multiplicity = 2

                          Input orientation:
 ---------------------------------------------------------------------
 Center     Atomic      Atomic             Coordinates (Angstroms)
 Number     Number       Type             X           Y           Z
 ---------------------------------------------------------------------
      1          1           0        0.000000    0.000000    0.000000
      2          1           0       -0.800000    0.000000    0.000000
      3          9           0        2.200000    0.000000    0.000000
 ---------------------------------------------------------------------

 SCF Done:  E(UB3LYP) =  -100.932633388     a.u. after    6 cycles

 Alpha  occ. eigenvalues --  -24.75410  -1.21399  -0.54888  -0.45817  -0.45817
 Alpha  occ. eigenvalues --   -0.43323
 Alpha virt. eigenvalues --    0.05491   0.20441   0.44737   0.89997   0.90989
 Alpha virt. eigenvalues --    0.90989   1.07173   1.07173   1.13394   1.54975
 Alpha virt. eigenvalues --    1.77800   1.77800   2.03909   2.38801   3.04554

  Beta  occ. eigenvalues --  -24.72335  -1.12598  -0.43357  -0.42743  -0.42743
  Beta virt. eigenvalues --   -0.25933   0.06176   0.20884   0.45041   0.92416
  Beta virt. eigenvalues --    0.92416   0.98187   1.07568   1.07568   1.17229
  Beta virt. eigenvalues --    1.55855   1.78027   1.78027   2.04275   2.39228

 Mulliken charges and spin densities:
               1          2
     1  H   -0.006730  -0.019095
     2  H    0.025713   0.050222
     3  F   -0.018983   0.968873
 Sum of Mulliken charges =   0.00000   1.00000

 Dipole moment (field-independent basis, Debye):
    X=             -0.3006    Y=             -0.0000    Z=             -0.0000  Tot=              0.3006
 Quadrupole moment (field-independent basis, Debye-Ang):
   XX=             -5.8631   YY=             -6.9973   ZZ=             -6.9973
   XY=              0.0000   XZ=             -0.0000   YZ=              0.0000

  Exact polarizability:      17.562      -0.000       2.072      -0.000       0.000       2.072
 Approx polarizability:      19.278       0.000       2.121       0.000      -0.000       2.121

 ******    1 imaginary frequencies (negative Signs) ******

                      1                      2                      3
                      A                      A                      A
 Frequencies --   -190.9761               903.1441               903.1441
 Red. masses --      1.1085                 1.0102                 1.0102
 Frc consts  --      0.0238                 0.4855                 0.4855
 IR Inten    --     15.9682                 0.0656                 0.0656

                      4
                      A
 Frequencies --   3638.7710
 Red. masses --      1.0078
 Frc consts  --      7.8623
 IR Inten    --    149.6581

 - Thermochemistry -
 -------------------
 Temperature   298.150 Kelvin.  Pressure   1.00000 Atm.
 Atom     1 has atomic number  1 and mass   1.00783

 Molecular mass:    21.01405 amu.
 Principal axes and moments of inertia in atomic units:
                           1         2         3
     Eigenvalues --     0.00000  45.14299  45.14299
           X            1.00000  -0.00000   0.00000
           Y            0.00000   1.00000   0.00000
           Z            0.00000   0.00000   1.00000
 This molecule is a prolate symmetric top.
 Rotational symmetry number  1.
 Rotational temperature (Kelvin)      1.91866
 Rotational constant (GHZ):          39.978329
    1 imaginary frequencies ignored.
 Zero-point vibrational energy      32568.7 (Joules/Mol)
                                    7.78410 (Kcal/Mol)
 Vibrational temperatures:   1299.42  1299.42  5235.38
          (Kelvin)

 Zero-point correction=                           0.012405 (Hartree/Particle)
 Thermal correction to Energy=                    0.014872
 Thermal correction to Enthalpy=                  0.015816
 Thermal correction to Gibbs Free Energy=        -0.007340
 Sum of electronic and zero-point Energies=           -100.920229
 Sum of electronic and thermal Energies=              -100.917761
 Sum of electronic and thermal Enthalpies=            -100.916817
 Sum of electronic and thermal Free Energies=         -100.939973

                     E (Thermal)             CV                S
                      KCal/Mol        Cal/Mol-Kelvin    Cal/Mol-Kelvin
 Total                    9.332              5.960             48.736
 Electronic               0.000              0.000              1.377
 Translational            0.889              2.981             35.068
 Rotational               0.592              1.987             12.015
 Vibrational              7.851              0.992              0.276

 Normal termination of Gaussian 16 at Fri Aug 22 17:10:32 2025.
