 Gaussian 16, Revision C.01,
 Gaussian 16:  ES64L-G16RevC.01  3-Jul-2019

 -----------------------------------------
 # sp b3lyp/6-311g** Force nosymm scf=(qc)
 -----------------------------------------

 -------------------
 Title Card Required
 -------------------
 Symbolic Z-matrix:
 Charge =  0 Multiplicity = 2

                          Input orientation:
 ---------------------------------------------------------------------
 Center     Atomic      Atomic             Coordinates (Angstroms)
 Number     Number       Type             X           Y           Z
 ---------------------------------------------------------------------
      1          1           0        0.000000    0.000000    0.000000
      2          1           0       -3.700000    0.000000    0.000000
      3          9           0        3.250000    0.000000    0.000000
 ---------------------------------------------------------------------

 SCF Done:  E(UB3LYP) =  -100.759663991     a.u. after   24 cycles

 Alpha  occ. eigenvalues --  -24.74848  -1.20852  -0.53970  -0.45314  -0.45314
 Alpha  occ. eigenvalues --   -0.32392
 Alpha virt. eigenvalues --   -0.07186   0.24060   0.36662   0.88460   0.91813
 Alpha virt. eigenvalues --    0.91813   1.02650   1.25108   1.25108   1.25179
 Alpha virt. eigenvalues --    1.45112   1.45112   1.45402   2.14690   2.41388

  Beta  occ. eigenvalues --  -24.71769  -1.12014  -0.42230  -0.42230  -0.33194
  Beta virt. eigenvalues --   -0.25198  -0.06212   0.23837   0.38082   0.93291
  Beta virt. eigenvalues --    0.93291   0.97408   1.06540   1.24184   1.24184
  Beta virt. eigenvalues --    1.24279   1.46237   1.46439   1.46439   2.14957

 Mulliken charges and spin densities:
               1          2
     1  H    0.021626  -0.974849
     2  H    0.000175   0.998724
     3  F   -0.021800   0.976125
 Sum of Mulliken charges =  -0.00000   1.00000

 Dipole moment (field-independent basis, Debye):
    X=             -0.3672    Y=             -0.0000    Z=              0.0000  Tot=              0.3672
 Quadrupole moment (field-independent basis, Debye-Ang):
   XX=             -7.8357   YY=             -7.6151   ZZ=             -7.6151
   XY=             -0.0000   XZ=              0.0000   YZ=              0.0000

  Exact polarizability:      28.608       0.000       2.030      -0.000       0.000       2.030
 Approx polarizability:      25.605       0.000       1.931      -0.000      -0.000       1.931

 ******    2 imaginary frequencies (negative Signs) ******

                      1                      2                      3
                      A                      A                      A
 Frequencies --   -289.2485               -93.5879                93.7013
 Red. masses --      1.0453                 1.0665                 1.0196
 Frc consts  --      0.0515                 0.0055                 0.0053
 IR Inten    --     23.4038                 0.4276                 0.4347

                      4
                      A
 Frequencies --     93.7014
 Red. masses --      1.0196
 Frc consts  --      0.0053
 IR Inten    --      0.4347

 - Thermochemistry -
 -------------------
 Temperature   298.150 Kelvin.  Pressure   1.00000 Atm.
 Atom     1 has atomic number  1 and mass   1.00783

 Molecular mass:    21.01405 amu.
 Principal axes and moments of inertia in atomic units:
                           1         2         3
     Eigenvalues --     0.00000 193.89761 193.89761
           X            1.00000  -0.00000   0.00000
           Y            0.00000   1.00000   0.00000
           Z            0.00000   0.00000   1.00000
 This molecule is a prolate symmetric top.
 Rotational symmetry number  1.
 Rotational temperature (Kelvin)      0.44670
 Rotational constant (GHZ):           9.307702
    2 imaginary frequencies ignored.
 Zero-point vibrational energy       1120.9 (Joules/Mol)
                                    0.26791 (Kcal/Mol)
 Warning -- explicit consideration of   2 degrees of freedom as
           vibrations may cause significant error
 Vibrational temperatures:    134.82   134.82
          (Kelvin)

 Zero-point correction=                           0.000427 (Hartree/Particle)
 Thermal correction to Energy=                    0.004281
 Thermal correction to Enthalpy=                  0.005225
 Thermal correction to Gibbs Free Energy=        -0.022579
 Sum of electronic and zero-point Energies=           -100.759237
 Sum of electronic and thermal Energies=              -100.755383
 Sum of electronic and thermal Enthalpies=            -100.754439
 Sum of electronic and thermal Free Energies=         -100.782243

                     E (Thermal)             CV                S
                      KCal/Mol        Cal/Mol-Kelvin    Cal/Mol-Kelvin
 Total                    2.686              8.875             58.519
 Electronic               0.000              0.000              1.377
 Translational            0.889              2.981             35.068
 Rotational               0.592              1.987             14.911
 Vibrational              1.205              3.907              7.163
 Vibration     1          0.603              1.954              3.581
 Vibration     2          0.603              1.954              3.581

 Normal termination of Gaussian 16 at Fri Aug 22 20:36:26 2025.
