 Gaussian 16, Revision C.01,
 Gaussian 16:  ES64L-G16RevC.01  3-Jul-2019

 -----------------------------------------
 # sp b3lyp/6-311g** Force nosymm scf=(qc)
 -----------------------------------------

 -------------------
 Title Card Required
 -------------------
 Symbolic Z-matrix:
 Charge =  0 Multiplicity = 2

                          Input orientation:
 ---------------------------------------------------------------------
 Center     Atomic      Atomic             Coordinates (Angstroms)
 Number     Number       Type             X           Y           Z
 ---------------------------------------------------------------------
      1          1           0        0.000000    0.000000    0.000000
      2          1           0       -0.600000    0.000000    0.000000
      3          9           0        1.900000    0.000000    0.000000
 ---------------------------------------------------------------------

 SCF Done:  E(UB3LYP) =  -100.914496416     a.u. after    6 cycles

 Alpha  occ. eigenvalues --  -24.74901  -1.21048  -0.55699  -0.47153  -0.45459
 Alpha  occ. eigenvalues --   -0.45459
 Alpha virt. eigenvalues --    0.10375   0.19932   0.48985   0.90198   0.90198
 Alpha virt. eigenvalues --    0.93875   1.09428   1.09428   1.18740   1.66948
 Alpha virt. eigenvalues --    1.81340   1.91859   1.91859   2.44608   3.68373

  Beta  occ. eigenvalues --  -24.71854  -1.12383  -0.48364  -0.42426  -0.42426
  Beta virt. eigenvalues --   -0.25392   0.11003   0.20543   0.49783   0.91550
  Beta virt. eigenvalues --    0.91550   1.01469   1.10105   1.10105   1.22417
  Beta virt. eigenvalues --    1.68214   1.81904   1.92139   1.92139   2.45408

 Mulliken charges and spin densities:
               1          2
     1  H    0.010807  -0.022526
     2  H    0.023327   0.069982
     3  F   -0.034133   0.952543
 Sum of Mulliken charges =   0.00000   1.00000

 Dipole moment (field-independent basis, Debye):
    X=             -0.3651    Y=              0.0000    Z=             -0.0000  Tot=              0.3651
 Quadrupole moment (field-independent basis, Debye-Ang):
   XX=             -5.9510   YY=             -6.6978   ZZ=             -6.6978
   XY=              0.0000   XZ=              0.0000   YZ=              0.0000

  Exact polarizability:      13.258      -0.000       2.051      -0.000       0.000       2.051
 Approx polarizability:      14.197       0.000       2.122       0.000      -0.000       2.122

 ******    2 imaginary frequencies (negative Signs) ******

                      1                      2                      3
                      A                      A                      A
 Frequencies --  -2818.3406             -2818.3406               204.2520
 Red. masses --      1.0097                 1.0097                 1.1085
 Frc consts  --      4.7252                 4.7252                 0.0272
 IR Inten    --      0.4018                 0.4018                21.7308

                      4
                      A
 Frequencies --   6992.0173
 Red. masses --      1.0078
 Frc consts  --     29.0296
 IR Inten    --    188.8473

 - Thermochemistry -
 -------------------
 Temperature   298.150 Kelvin.  Pressure   1.00000 Atm.
 Atom     1 has atomic number  1 and mass   1.00783

 Molecular mass:    21.01405 amu.
 Principal axes and moments of inertia in atomic units:
                           1         2         3
     Eigenvalues --     0.00000  32.14455  32.14455
           X            1.00000  -0.00000   0.00000
           Y            0.00000   1.00000   0.00000
           Z            0.00000   0.00000   1.00000
 This molecule is a prolate symmetric top.
 Rotational symmetry number  1.
 Rotational temperature (Kelvin)      2.69451
 Rotational constant (GHZ):          56.144540
    2 imaginary frequencies ignored.
 Zero-point vibrational energy      43043.2 (Joules/Mol)
                                   10.28758 (Kcal/Mol)
 Warning -- explicit consideration of   1 degrees of freedom as
           vibrations may cause significant error
 Vibrational temperatures:    293.87 10059.95
          (Kelvin)

 Zero-point correction=                           0.016394 (Hartree/Particle)
 Thermal correction to Energy=                    0.019309
 Thermal correction to Enthalpy=                  0.020253
 Thermal correction to Gibbs Free Energy=        -0.003446
 Sum of electronic and zero-point Energies=           -100.898102
 Sum of electronic and thermal Energies=              -100.895188
 Sum of electronic and thermal Enthalpies=            -100.894243
 Sum of electronic and thermal Free Energies=         -100.917943

                     E (Thermal)             CV                S
                      KCal/Mol        Cal/Mol-Kelvin    Cal/Mol-Kelvin
 Total                   12.116              6.802             49.880
 Electronic               0.000              0.000              1.377
 Translational            0.889              2.981             35.068
 Rotational               0.592              1.987             11.340
 Vibrational             10.635              1.834              2.094
 Vibration     1          0.640              1.834              2.094

 Normal termination of Gaussian 16 at Fri Aug 22 16:48:47 2025.
