 Gaussian 16, Revision C.01,
 Gaussian 16:  ES64L-G16RevC.01  3-Jul-2019

 -----------------------------------------
 # sp b3lyp/6-311g** Force nosymm scf=(qc)
 -----------------------------------------

 -------------------
 Title Card Required
 -------------------
 Symbolic Z-matrix:
 Charge =  0 Multiplicity = 2

                          Input orientation:
 ---------------------------------------------------------------------
 Center     Atomic      Atomic             Coordinates (Angstroms)
 Number     Number       Type             X           Y           Z
 ---------------------------------------------------------------------
      1          1           0        0.000000    0.000000    0.000000
      2          1           0       -2.600000    0.000000    0.000000
      3          9           0        2.350000    0.000000    0.000000
 ---------------------------------------------------------------------

 SCF Done:  E(UB3LYP) =  -100.774013429     a.u. after   15 cycles

 Alpha  occ. eigenvalues --  -24.70791  -1.17050  -0.49873  -0.41907  -0.41907
 Alpha  occ. eigenvalues --   -0.33902
 Alpha virt. eigenvalues --   -0.12282   0.24470   0.32998   0.89487   0.94102
 Alpha virt. eigenvalues --    0.94102   1.06659   1.23716   1.23716   1.26244
 Alpha virt. eigenvalues --    1.37635   1.37635   1.46205   2.14731   2.32362

  Beta  occ. eigenvalues --  -24.68042  -1.09256  -0.39174  -0.39174  -0.35949
  Beta virt. eigenvalues --   -0.22742  -0.09306   0.25466   0.35099   0.94880
  Beta virt. eigenvalues --    0.95372   0.95372   1.09034   1.21909   1.21909
  Beta virt. eigenvalues --    1.35166   1.42218   1.42218   1.43588   2.13728

 Mulliken charges and spin densities:
               1          2
     1  H    0.103393  -0.844850
     2  H    0.010212   0.977660
     3  F   -0.113604   0.867190
 Sum of Mulliken charges =  -0.00000   1.00000

 Dipole moment (field-independent basis, Debye):
    X=             -1.4764    Y=             -0.0000    Z=              0.0000  Tot=              1.4764
 Quadrupole moment (field-independent basis, Debye-Ang):
   XX=             -9.1428   YY=             -7.5836   ZZ=             -7.5836
   XY=             -0.0000   XZ=              0.0000   YZ=              0.0000

  Exact polarizability:      39.733      -0.000       2.023       0.000       0.000       2.023
 Approx polarizability:      45.614      -0.000       1.921       0.000      -0.000       1.921

 ******    2 imaginary frequencies (negative Signs) ******

                      1                      2                      3
                      A                      A                      A
 Frequencies --   -842.2522              -335.1531               341.5989
 Red. masses --      1.0324                 1.0802                 1.0192
 Frc consts  --      0.4315                 0.0715                 0.0701
 IR Inten    --     72.8169                15.8050                 9.0756

                      4
                      A
 Frequencies --    341.5989
 Red. masses --      1.0192
 Frc consts  --      0.0701
 IR Inten    --      9.0756

 - Thermochemistry -
 -------------------
 Temperature   298.150 Kelvin.  Pressure   1.00000 Atm.
 Atom     1 has atomic number  1 and mass   1.00783

 Molecular mass:    21.01405 amu.
 Principal axes and moments of inertia in atomic units:
                           1         2         3
     Eigenvalues --     0.00000  98.86201  98.86201
           X            1.00000  -0.00000   0.00000
           Y            0.00000   1.00000   0.00000
           Z            0.00000   0.00000   1.00000
 This molecule is a prolate symmetric top.
 Rotational symmetry number  1.
 Rotational temperature (Kelvin)      0.87611
 Rotational constant (GHZ):          18.255154
    2 imaginary frequencies ignored.
 Zero-point vibrational energy       4086.4 (Joules/Mol)
                                    0.97668 (Kcal/Mol)
 Warning -- explicit consideration of   2 degrees of freedom as
           vibrations may cause significant error
 Vibrational temperatures:    491.48   491.48
          (Kelvin)

 Zero-point correction=                           0.001556 (Hartree/Particle)
 Thermal correction to Energy=                    0.004658
 Thermal correction to Enthalpy=                  0.005602
 Thermal correction to Gibbs Free Energy=        -0.019307
 Sum of electronic and zero-point Energies=           -100.772457
 Sum of electronic and thermal Energies=              -100.769355
 Sum of electronic and thermal Enthalpies=            -100.768411
 Sum of electronic and thermal Free Energies=         -100.793321

                     E (Thermal)             CV                S
                      KCal/Mol        Cal/Mol-Kelvin    Cal/Mol-Kelvin
 Total                    2.923              8.153             52.427
 Electronic               0.000              0.000              1.377
 Translational            0.889              2.981             35.068
 Rotational               0.592              1.987             13.572
 Vibrational              1.442              3.185              2.409
 Vibration     1          0.721              1.592              1.205
 Vibration     2          0.721              1.592              1.205

 Normal termination of Gaussian 16 at Fri Aug 22 17:26:53 2025.
