 Gaussian 16, Revision C.01,
 Gaussian 16:  ES64L-G16RevC.01  3-Jul-2019

 -----------------------------------------
 # sp b3lyp/6-311g** Force nosymm scf=(qc)
 -----------------------------------------

 -------------------
 Title Card Required
 -------------------
 Symbolic Z-matrix:
 Charge =  0 Multiplicity = 2

                          Input orientation:
 ---------------------------------------------------------------------
 Center     Atomic      Atomic             Coordinates (Angstroms)
 Number     Number       Type             X           Y           Z
 ---------------------------------------------------------------------
      1          1           0        0.000000    0.000000    0.000000
      2          1           0       -2.750000    0.000000    0.000000
      3          9           0        4.000000    0.000000    0.000000
 ---------------------------------------------------------------------

 SCF Done:  E(UB3LYP) =  -100.760532402     a.u. after   42 cycles

 Alpha  occ. eigenvalues --  -24.75897  -1.21824  -0.55022  -0.46199  -0.46199
 Alpha  occ. eigenvalues --   -0.32411
 Alpha virt. eigenvalues --   -0.08356   0.25474   0.35707   0.86553   0.91157
 Alpha virt. eigenvalues --    0.91157   1.01068   1.25163   1.25163   1.26386
 Alpha virt. eigenvalues --    1.43317   1.43317   1.43783   2.16072   2.38441

  Beta  occ. eigenvalues --  -24.72751  -1.12777  -0.43045  -0.43045  -0.32563
  Beta virt. eigenvalues --   -0.25746  -0.08158   0.25327   0.35957   0.92656
  Beta virt. eigenvalues --    0.92656   0.95940   1.05200   1.25000   1.25000
  Beta virt. eigenvalues --    1.26205   1.43605   1.43605   1.44070   2.16109

 Mulliken charges and spin densities:
               1          2
     1  H    0.001787  -0.982446
     2  H    0.000466   0.984996
     3  F   -0.002253   0.997451
 Sum of Mulliken charges =   0.00000   1.00000

 Dipole moment (field-independent basis, Debye):
    X=             -0.0527    Y=             -0.0000    Z=             -0.0000  Tot=              0.0527
 Quadrupole moment (field-independent basis, Debye-Ang):
   XX=             -6.7727   YY=             -7.6487   ZZ=             -7.6487
   XY=             -0.0000   XZ=             -0.0000   YZ=              0.0000

  Exact polarizability:      15.479      -0.000       2.027      -0.000       0.000       2.027
 Approx polarizability:      11.774      -0.000       1.933      -0.000       0.000       1.933

 ******    2 imaginary frequencies (negative Signs) ******

                      1                      2                      3
                      A                      A                      A
 Frequencies --   -464.9297               -74.6427               168.3931
 Red. masses --      1.0079                 1.1084                 1.0140
 Frc consts  --      0.1284                 0.0036                 0.0169
 IR Inten    --      0.5202                 0.5766                 0.0024

                      4
                      A
 Frequencies --    168.3931
 Red. masses --      1.0140
 Frc consts  --      0.0169
 IR Inten    --      0.0024

 - Thermochemistry -
 -------------------
 Temperature   298.150 Kelvin.  Pressure   1.00000 Atm.
 Atom     1 has atomic number  1 and mass   1.00783

 Molecular mass:    21.01405 amu.
 Principal axes and moments of inertia in atomic units:
                           1         2         3
     Eigenvalues --     0.00000 201.61708 201.61708
           X            1.00000  -0.00000   0.00000
           Y            0.00000   1.00000   0.00000
           Z            0.00000   0.00000   1.00000
 This molecule is a prolate symmetric top.
 Rotational symmetry number  1.
 Rotational temperature (Kelvin)      0.42960
 Rotational constant (GHZ):           8.951331
    2 imaginary frequencies ignored.
 Zero-point vibrational energy       2014.4 (Joules/Mol)
                                    0.48146 (Kcal/Mol)
 Warning -- explicit consideration of   2 degrees of freedom as
           vibrations may cause significant error
 Vibrational temperatures:    242.28   242.28
          (Kelvin)

 Zero-point correction=                           0.000767 (Hartree/Particle)
 Thermal correction to Energy=                    0.004352
 Thermal correction to Enthalpy=                  0.005296
 Thermal correction to Gibbs Free Energy=        -0.021473
 Sum of electronic and zero-point Energies=           -100.759765
 Sum of electronic and thermal Energies=              -100.756181
 Sum of electronic and thermal Enthalpies=            -100.755237
 Sum of electronic and thermal Free Energies=         -100.782006

                     E (Thermal)             CV                S
                      KCal/Mol        Cal/Mol-Kelvin    Cal/Mol-Kelvin
 Total                    2.731              8.731             56.341
 Electronic               0.000              0.000              1.377
 Translational            0.889              2.981             35.068
 Rotational               0.592              1.987             14.988
 Vibrational              1.249              3.763              4.907
 Vibration     1          0.625              1.881              2.453
 Vibration     2          0.625              1.881              2.453

 Normal termination of Gaussian 16 at Sat Aug 23 01:56:05 2025.
