 Gaussian 16, Revision C.01,
 Gaussian 16:  ES64L-G16RevC.01  3-Jul-2019

 -----------------------------------------
 # sp b3lyp/6-311g** Force nosymm scf=(qc)
 -----------------------------------------

 -------------------
 Title Card Required
 -------------------
 Symbolic Z-matrix:
 Charge =  0 Multiplicity = 2

                          Input orientation:
 ---------------------------------------------------------------------
 Center     Atomic      Atomic             Coordinates (Angstroms)
 Number     Number       Type             X           Y           Z
 ---------------------------------------------------------------------
      1          1           0        0.000000    0.000000    0.000000
      2          1           0       -2.200000    0.000000    0.000000
      3          9           0        2.250000    0.000000    0.000000
 ---------------------------------------------------------------------

 SCF Done:  E(UB3LYP) =  -100.782741001     a.u. after   13 cycles

 Alpha  occ. eigenvalues --  -24.70069  -1.16355  -0.49144  -0.41291  -0.41291
 Alpha  occ. eigenvalues --   -0.35017
 Alpha virt. eigenvalues --   -0.13221   0.24557   0.32048   0.89057   0.94440
 Alpha virt. eigenvalues --    0.94440   1.06207   1.22806   1.22806   1.27173
 Alpha virt. eigenvalues --    1.35203   1.35203   1.48846   2.12001   2.31207

  Beta  occ. eigenvalues --  -24.67398  -1.08800  -0.38638  -0.38638  -0.36239
  Beta virt. eigenvalues --   -0.22374  -0.11061   0.26254   0.33099   0.93732
  Beta virt. eigenvalues --    0.95617   0.95617   1.08941   1.22231   1.22231
  Beta virt. eigenvalues --    1.37384   1.38599   1.38599   1.44864   2.12098

 Mulliken charges and spin densities:
               1          2
     1  H    0.104089  -0.772754
     2  H    0.026777   0.930678
     3  F   -0.130866   0.842076
 Sum of Mulliken charges =   0.00000   1.00000

 Dipole moment (field-independent basis, Debye):
    X=             -1.7646    Y=              0.0000    Z=             -0.0000  Tot=              1.7646
 Quadrupole moment (field-independent basis, Debye-Ang):
   XX=             -8.8033   YY=             -7.5978   ZZ=             -7.5978
   XY=             -0.0000   XZ=              0.0000   YZ=              0.0000

  Exact polarizability:      49.656      -0.000       2.025       0.000      -0.000       2.025
 Approx polarizability:      54.850       0.000       1.930      -0.000      -0.000       1.930

 ******    2 imaginary frequencies (negative Signs) ******

                      1                      2                      3
                      A                      A                      A
 Frequencies --  -1176.8339              -460.9457               480.7538
 Red. masses --      1.0171                 1.0975                 1.0177
 Frc consts  --      0.8300                 0.1374                 0.1386
 IR Inten    --     65.5294                42.1814                 7.6712

                      4
                      A
 Frequencies --    480.7538
 Red. masses --      1.0177
 Frc consts  --      0.1386
 IR Inten    --      7.6712

 - Thermochemistry -
 -------------------
 Temperature   298.150 Kelvin.  Pressure   1.00000 Atm.
 Atom     1 has atomic number  1 and mass   1.00783

 Molecular mass:    21.01405 amu.
 Principal axes and moments of inertia in atomic units:
                           1         2         3
     Eigenvalues --     0.00000  81.74102  81.74102
           X            1.00000  -0.00000   0.00000
           Y            0.00000   1.00000   0.00000
           Z            0.00000   0.00000   1.00000
 This molecule is a prolate symmetric top.
 Rotational symmetry number  1.
 Rotational temperature (Kelvin)      1.05961
 Rotational constant (GHZ):          22.078769
    2 imaginary frequencies ignored.
 Zero-point vibrational energy       5751.1 (Joules/Mol)
                                    1.37454 (Kcal/Mol)
 Warning -- explicit consideration of   2 degrees of freedom as
           vibrations may cause significant error
 Vibrational temperatures:    691.70   691.70
          (Kelvin)

 Zero-point correction=                           0.002190 (Hartree/Particle)
 Thermal correction to Energy=                    0.005028
 Thermal correction to Enthalpy=                  0.005973
 Thermal correction to Gibbs Free Energy=        -0.018286
 Sum of electronic and zero-point Energies=           -100.780551
 Sum of electronic and thermal Energies=              -100.777713
 Sum of electronic and thermal Enthalpies=            -100.776768
 Sum of electronic and thermal Free Energies=         -100.801027

                     E (Thermal)             CV                S
                      KCal/Mol        Cal/Mol-Kelvin    Cal/Mol-Kelvin
 Total                    3.155              7.553             51.056
 Electronic               0.000              0.000              1.377
 Translational            0.889              2.981             35.068
 Rotational               0.592              1.987             13.194
 Vibrational              1.674              2.585              1.416
 Vibration     1          0.837              1.293              0.708
 Vibration     2          0.837              1.293              0.708

 Normal termination of Gaussian 16 at Fri Aug 22 17:16:37 2025.
