 Gaussian 16, Revision C.01,
 Gaussian 16:  ES64L-G16RevC.01  3-Jul-2019

 -----------------------------------------
 # sp b3lyp/6-311g** Force nosymm scf=(qc)
 -----------------------------------------

 -------------------
 Title Card Required
 -------------------
 Symbolic Z-matrix:
 Charge =  0 Multiplicity = 2

                          Input orientation:
 ---------------------------------------------------------------------
 Center     Atomic      Atomic             Coordinates (Angstroms)
 Number     Number       Type             X           Y           Z
 ---------------------------------------------------------------------
      1          1           0        0.000000    0.000000    0.000000
      2          1           0       -2.050000    0.000000    0.000000
      3          9           0        2.400000    0.000000    0.000000
 ---------------------------------------------------------------------

 SCF Done:  E(UB3LYP) =  -100.782407539     a.u. after   17 cycles

 Alpha  occ. eigenvalues --  -24.71201  -1.17433  -0.50300  -0.42241  -0.42241
 Alpha  occ. eigenvalues --   -0.34992
 Alpha virt. eigenvalues --   -0.12946   0.24711   0.32081   0.89528   0.93918
 Alpha virt. eigenvalues --    0.93918   1.05886   1.22929   1.22929   1.23709
 Alpha virt. eigenvalues --    1.35038   1.35038   1.48251   2.11231   2.33589

  Beta  occ. eigenvalues --  -24.68410  -1.09506  -0.39462  -0.39462  -0.35543
  Beta virt. eigenvalues --   -0.23172  -0.11531   0.26571   0.32247   0.95236
  Beta virt. eigenvalues --    0.95236   0.95629   1.08778   1.22634   1.22634
  Beta virt. eigenvalues --    1.28125   1.37301   1.37301   1.48199   2.11758

 Mulliken charges and spin densities:
               1          2
     1  H    0.071370  -0.770207
     2  H    0.029931   0.889241
     3  F   -0.101301   0.880966
 Sum of Mulliken charges =  -0.00000   1.00000

 Dipole moment (field-independent basis, Debye):
    X=             -1.5275    Y=             -0.0000    Z=              0.0000  Tot=              1.5275
 Quadrupole moment (field-independent basis, Debye-Ang):
   XX=             -8.3844   YY=             -7.6392   ZZ=             -7.6392
   XY=             -0.0000   XZ=              0.0000   YZ=              0.0000

  Exact polarizability:      56.478       0.000       2.014      -0.000       0.000       2.014
 Approx polarizability:      61.237       0.000       1.929      -0.000      -0.000       1.929

 ******    2 imaginary frequencies (negative Signs) ******

                      1                      2                      3
                      A                      A                      A
 Frequencies --  -1329.4136              -426.1500               536.4898
 Red. masses --      1.0105                 1.1053                 1.0161
 Frc consts  --      1.0522                 0.1183                 0.1723
 IR Inten    --     71.9339                50.4821                 3.0275

                      4
                      A
 Frequencies --    536.4898
 Red. masses --      1.0161
 Frc consts  --      0.1723
 IR Inten    --      3.0275

 - Thermochemistry -
 -------------------
 Temperature   298.150 Kelvin.  Pressure   1.00000 Atm.
 Atom     1 has atomic number  1 and mass   1.00783

 Molecular mass:    21.01405 amu.
 Principal axes and moments of inertia in atomic units:
                           1         2         3
     Eigenvalues --     0.00000  83.90051  83.90051
           X            1.00000  -0.00000   0.00000
           Y            0.00000   1.00000   0.00000
           Z            0.00000   0.00000   1.00000
 This molecule is a prolate symmetric top.
 Rotational symmetry number  1.
 Rotational temperature (Kelvin)      1.03234
 Rotational constant (GHZ):          21.510492
    2 imaginary frequencies ignored.
 Zero-point vibrational energy       6417.8 (Joules/Mol)
                                    1.53390 (Kcal/Mol)
 Warning -- explicit consideration of   2 degrees of freedom as
           vibrations may cause significant error
 Vibrational temperatures:    771.89   771.89
          (Kelvin)

 Zero-point correction=                           0.002444 (Hartree/Particle)
 Thermal correction to Energy=                    0.005202
 Thermal correction to Enthalpy=                  0.006146
 Thermal correction to Gibbs Free Energy=        -0.018008
 Sum of electronic and zero-point Energies=           -100.779963
 Sum of electronic and thermal Energies=              -100.777206
 Sum of electronic and thermal Enthalpies=            -100.776261
 Sum of electronic and thermal Free Energies=         -100.800416

                     E (Thermal)             CV                S
                      KCal/Mol        Cal/Mol-Kelvin    Cal/Mol-Kelvin
 Total                    3.264              7.307             50.837
 Electronic               0.000              0.000              1.377
 Translational            0.889              2.981             35.068
 Rotational               0.592              1.987             13.246
 Vibrational              1.783              2.339              1.146
 Vibration     1          0.892              1.169              0.573
 Vibration     2          0.892              1.169              0.573

 Normal termination of Gaussian 16 at Fri Aug 22 17:32:12 2025.
