 Gaussian 16, Revision C.01,
 Gaussian 16:  ES64L-G16RevC.01  3-Jul-2019

 -----------------------------------------
 # sp b3lyp/6-311g** Force nosymm scf=(qc)
 -----------------------------------------

 -------------------
 Title Card Required
 -------------------
 Symbolic Z-matrix:
 Charge =  0 Multiplicity = 2

                          Input orientation:
 ---------------------------------------------------------------------
 Center     Atomic      Atomic             Coordinates (Angstroms)
 Number     Number       Type             X           Y           Z
 ---------------------------------------------------------------------
      1          1           0        0.000000    0.000000    0.000000
      2          1           0       -3.800000    0.000000    0.000000
      3          9           0        2.950000    0.000000    0.000000
 ---------------------------------------------------------------------

 SCF Done:  E(UB3LYP) =  -100.761248285     a.u. after   21 cycles

 Alpha  occ. eigenvalues --  -24.73891  -1.19966  -0.53011  -0.44512  -0.44512
 Alpha  occ. eigenvalues --   -0.32506
 Alpha virt. eigenvalues --   -0.08043   0.23851   0.36163   0.89501   0.92391
 Alpha virt. eigenvalues --    0.92391   1.04161   1.24994   1.24994   1.25040
 Alpha virt. eigenvalues --    1.44010   1.44010   1.44616   2.14454   2.40371

  Beta  occ. eigenvalues --  -24.70877  -1.11333  -0.41497  -0.41497  -0.33853
  Beta virt. eigenvalues --   -0.24662  -0.06140   0.23792   0.38102   0.93848
  Beta virt. eigenvalues --    0.93848   0.98097   1.07813   1.23465   1.23465
  Beta virt. eigenvalues --    1.24031   1.46360   1.46545   1.46545   2.14432

 Mulliken charges and spin densities:
               1          2
     1  H    0.040920  -0.953877
     2  H    0.000222   0.999015
     3  F   -0.041142   0.954862
 Sum of Mulliken charges =  -0.00000   1.00000

 Dipole moment (field-independent basis, Debye):
    X=             -0.6270    Y=             -0.0000    Z=              0.0000  Tot=              0.6270
 Quadrupole moment (field-independent basis, Debye-Ang):
   XX=             -8.4396   YY=             -7.6037   ZZ=             -7.6037
   XY=             -0.0000   XZ=              0.0000   YZ=             -0.0000

  Exact polarizability:      31.320      -0.000       2.026       0.000       0.000       2.026
 Approx polarizability:      32.998      -0.000       1.926       0.000       0.000       1.926

 ******    2 imaginary frequencies (negative Signs) ******

                      1                      2                      3
                      A                      A                      A
 Frequencies --   -385.9331               -85.9091               136.0375
 Red. masses --      1.0528                 1.0587                 1.0213
 Frc consts  --      0.0924                 0.0046                 0.0111
 IR Inten    --     43.1652                 0.1531                 1.6040

                      4
                      A
 Frequencies --    136.0375
 Red. masses --      1.0213
 Frc consts  --      0.0111
 IR Inten    --      1.6040

 - Thermochemistry -
 -------------------
 Temperature   298.150 Kelvin.  Pressure   1.00000 Atm.
 Atom     1 has atomic number  1 and mass   1.00783

 Molecular mass:    21.01405 amu.
 Principal axes and moments of inertia in atomic units:
                           1         2         3
     Eigenvalues --     0.00000 179.05961 179.05961
           X            1.00000  -0.00000   0.00000
           Y            0.00000   1.00000   0.00000
           Z            0.00000   0.00000   1.00000
 This molecule is a prolate symmetric top.
 Rotational symmetry number  1.
 Rotational temperature (Kelvin)      0.48372
 Rotational constant (GHZ):          10.078996
    2 imaginary frequencies ignored.
 Zero-point vibrational energy       1627.4 (Joules/Mol)
                                    0.38895 (Kcal/Mol)
 Warning -- explicit consideration of   2 degrees of freedom as
           vibrations may cause significant error
 Vibrational temperatures:    195.73   195.73
          (Kelvin)

 Zero-point correction=                           0.000620 (Hartree/Particle)
 Thermal correction to Energy=                    0.004316
 Thermal correction to Enthalpy=                  0.005260
 Thermal correction to Gibbs Free Energy=        -0.021782
 Sum of electronic and zero-point Energies=           -100.760628
 Sum of electronic and thermal Energies=              -100.756932
 Sum of electronic and thermal Enthalpies=            -100.755988
 Sum of electronic and thermal Free Energies=         -100.783031

                     E (Thermal)             CV                S
                      KCal/Mol        Cal/Mol-Kelvin    Cal/Mol-Kelvin
 Total                    2.708              8.803             56.916
 Electronic               0.000              0.000              1.377
 Translational            0.889              2.981             35.068
 Rotational               0.592              1.987             14.753
 Vibrational              1.227              3.835              5.718
 Vibration     1          0.614              1.917              2.859
 Vibration     2          0.614              1.917              2.859

 Normal termination of Gaussian 16 at Fri Aug 22 19:19:17 2025.
