 Gaussian 16, Revision C.01,
 Gaussian 16:  ES64L-G16RevC.01  3-Jul-2019

 -----------------------------------------
 # sp b3lyp/6-311g** Force nosymm scf=(qc)
 -----------------------------------------

 -------------------
 Title Card Required
 -------------------
 Symbolic Z-matrix:
 Charge =  0 Multiplicity = 2

                          Input orientation:
 ---------------------------------------------------------------------
 Center     Atomic      Atomic             Coordinates (Angstroms)
 Number     Number       Type             X           Y           Z
 ---------------------------------------------------------------------
      1          1           0        0.000000    0.000000    0.000000
      2          1           0       -2.150000    0.000000    0.000000
      3          9           0        3.400000    0.000000    0.000000
 ---------------------------------------------------------------------

 SCF Done:  E(UB3LYP) =  -100.769482646     a.u. after   26 cycles

 Alpha  occ. eigenvalues --  -24.75358  -1.21322  -0.54479  -0.45744  -0.45744
 Alpha  occ. eigenvalues --   -0.33034
 Alpha virt. eigenvalues --   -0.10778   0.25834   0.32892   0.87956   0.91491
 Alpha virt. eigenvalues --    0.91491   1.02037   1.22125   1.24850   1.24850
 Alpha virt. eigenvalues --    1.38674   1.38674   1.46248   2.13599   2.35655

  Beta  occ. eigenvalues --  -24.72249  -1.12392  -0.42629  -0.42629  -0.33205
  Beta virt. eigenvalues --   -0.25504  -0.10372   0.25746   0.33500   0.92978
  Beta virt. eigenvalues --    0.92978   0.97068   1.06061   1.21959   1.24627
  Beta virt. eigenvalues --    1.24627   1.39281   1.39281   1.46742   2.14341

 Mulliken charges and spin densities:
               1          2
     1  H    0.006932  -0.898046
     2  H    0.005786   0.912544
     3  F   -0.012718   0.985502
 Sum of Mulliken charges =   0.00000   1.00000

 Dipole moment (field-independent basis, Debye):
    X=             -0.2809    Y=             -0.0000    Z=              0.0000  Tot=              0.2809
 Quadrupole moment (field-independent basis, Debye-Ang):
   XX=             -6.9238   YY=             -7.7032   ZZ=             -7.7032
   XY=              0.0000   XZ=             -0.0000   YZ=              0.0000

  Exact polarizability:      44.463       0.000       2.015      -0.000      -0.000       2.015
 Approx polarizability:      35.704       0.000       1.930      -0.000       0.000       1.930

 ******    2 imaginary frequencies (negative Signs) ******

                      1                      2                      3
                      A                      A                      A
 Frequencies --  -1102.8608              -153.7668               429.9226
 Red. masses --      1.0079                 1.1084                 1.0133
 Frc consts  --      0.7223                 0.0154                 0.1104
 IR Inten    --     10.7538                 9.7994                 0.0173

                      4
                      A
 Frequencies --    429.9226
 Red. masses --      1.0133
 Frc consts  --      0.1104
 IR Inten    --      0.0173

 - Thermochemistry -
 -------------------
 Temperature   298.150 Kelvin.  Pressure   1.00000 Atm.
 Atom     1 has atomic number  1 and mass   1.00783

 Molecular mass:    21.01405 amu.
 Principal axes and moments of inertia in atomic units:
                           1         2         3
     Eigenvalues --     0.00000 138.63675 138.63675
           X            1.00000  -0.00000   0.00000
           Y            0.00000   1.00000   0.00000
           Z            0.00000   0.00000   1.00000
 This molecule is a prolate symmetric top.
 Rotational symmetry number  1.
 Rotational temperature (Kelvin)      0.62475
 Rotational constant (GHZ):          13.017769
    2 imaginary frequencies ignored.
 Zero-point vibrational energy       5143.0 (Joules/Mol)
                                    1.22921 (Kcal/Mol)
 Warning -- explicit consideration of   2 degrees of freedom as
           vibrations may cause significant error
 Vibrational temperatures:    618.56   618.56
          (Kelvin)

 Zero-point correction=                           0.001959 (Hartree/Particle)
 Thermal correction to Energy=                    0.004882
 Thermal correction to Enthalpy=                  0.005826
 Thermal correction to Gibbs Free Energy=        -0.019074
 Sum of electronic and zero-point Energies=           -100.767524
 Sum of electronic and thermal Energies=              -100.764601
 Sum of electronic and thermal Enthalpies=            -100.763656
 Sum of electronic and thermal Free Energies=         -100.788557

                     E (Thermal)             CV                S
                      KCal/Mol        Cal/Mol-Kelvin    Cal/Mol-Kelvin
 Total                    3.064              7.778             52.408
 Electronic               0.000              0.000              1.377
 Translational            0.889              2.981             35.068
 Rotational               0.592              1.987             14.244
 Vibrational              1.582              2.810              1.718
 Vibration     1          0.791              1.405              0.859
 Vibration     2          0.791              1.405              0.859

 Normal termination of Gaussian 16 at Fri Aug 22 21:16:53 2025.
