 Gaussian 16, Revision C.01,
 Gaussian 16:  ES64L-G16RevC.01  3-Jul-2019

 -----------------------------------------
 # sp b3lyp/6-311g** Force nosymm scf=(qc)
 -----------------------------------------

 -------------------
 Title Card Required
 -------------------
 Symbolic Z-matrix:
 Charge =  0 Multiplicity = 2

                          Input orientation:
 ---------------------------------------------------------------------
 Center     Atomic      Atomic             Coordinates (Angstroms)
 Number     Number       Type             X           Y           Z
 ---------------------------------------------------------------------
      1          1           0        0.000000    0.000000    0.000000
      2          1           0       -0.600000    0.000000    0.000000
      3          9           0        3.850000    0.000000    0.000000
 ---------------------------------------------------------------------

 SCF Done:  E(UB3LYP) =  -100.914483149     a.u. after   38 cycles

 Alpha  occ. eigenvalues --  -24.76202  -1.22086  -0.55289  -0.46650  -0.46445
 Alpha  occ. eigenvalues --   -0.46420
 Alpha virt. eigenvalues --    0.08412   0.18881   0.51838   0.86091   0.90968
 Alpha virt. eigenvalues --    0.92123   1.01314   1.10194   1.10196   1.60449
 Alpha virt. eigenvalues --    1.81459   1.92736   1.92739   2.36932   3.64933

  Beta  occ. eigenvalues --  -24.73046  -1.13010  -0.46608  -0.43296  -0.43281
  Beta virt. eigenvalues --   -0.25936   0.08422   0.18886   0.51878   0.92468
  Beta virt. eigenvalues --    0.93612   0.95557   1.05423   1.10194   1.10196
  Beta virt. eigenvalues --    1.60452   1.81473   1.92736   1.92739   2.36933

 Mulliken charges and spin densities:
               1          2
     1  H   -0.000617  -0.000270
     2  H   -0.001434   0.000047
     3  F    0.002051   1.000222
 Sum of Mulliken charges =   0.00000   1.00000

 Dipole moment (field-independent basis, Debye):
    X=              0.0270    Y=             -0.0000    Z=             -0.0000  Tot=              0.0270
 Quadrupole moment (field-independent basis, Debye-Ang):
   XX=             -6.2239   YY=             -6.0214   ZZ=             -6.5875
   XY=             -0.0000   XZ=             -0.0000   YZ=              0.3267

  Exact polarizability:       6.287      -0.000       2.252       0.000       0.176       1.948
 Approx polarizability:       6.876       0.000       2.431       0.000       0.220       2.049

 ******    3 imaginary frequencies (negative Signs) ******

                      1                      2                      3
                      A                      A                      A
 Frequencies --  -2767.4552             -2766.6152               -52.1767
 Red. masses --      1.0084                 1.0084                 1.1085
 Frc consts  --      4.5501                 4.5474                 0.0018
 IR Inten    --      0.0003                 0.0003                 0.0688

                      4
                      A
 Frequencies --   7042.5829
 Red. masses --      1.0078
 Frc consts  --     29.4509
 IR Inten    --      0.0263

 - Thermochemistry -
 -------------------
 Temperature   298.150 Kelvin.  Pressure   1.00000 Atm.
 Atom     1 has atomic number  1 and mass   1.00783

 Molecular mass:    21.01405 amu.
 Principal axes and moments of inertia in atomic units:
                           1         2         3
     Eigenvalues --     0.00000 112.72478 112.72478
           X            1.00000  -0.00000   0.00000
           Y            0.00000   1.00000   0.00000
           Z            0.00000   0.00000   1.00000
 This molecule is a prolate symmetric top.
 Rotational symmetry number  1.
 Rotational temperature (Kelvin)      0.76837
 Rotational constant (GHZ):          16.010155
    3 imaginary frequencies ignored.
 Zero-point vibrational energy      42124.0 (Joules/Mol)
                                   10.06788 (Kcal/Mol)
 Vibrational temperatures:  10132.71
          (Kelvin)

 Zero-point correction=                           0.016044 (Hartree/Particle)
 Thermal correction to Energy=                    0.018405
 Thermal correction to Enthalpy=                  0.019349
 Thermal correction to Gibbs Free Energy=        -0.004540
 Sum of electronic and zero-point Energies=           -100.898439
 Sum of electronic and thermal Energies=              -100.896079
 Sum of electronic and thermal Enthalpies=            -100.895134
 Sum of electronic and thermal Free Energies=         -100.919023

                     E (Thermal)             CV                S
                      KCal/Mol        Cal/Mol-Kelvin    Cal/Mol-Kelvin
 Total                   11.549              4.968             50.279
 Electronic               0.000              0.000              1.377
 Translational            0.889              2.981             35.068
 Rotational               0.592              1.987             13.833
 Vibrational             10.068              0.000              0.000

 Normal termination of Gaussian 16 at Sat Aug 23 00:54:09 2025.
