 Gaussian 16, Revision C.01,
 Gaussian 16:  ES64L-G16RevC.01  3-Jul-2019

 -----------------------------------------
 # sp b3lyp/6-311g** Force nosymm scf=(qc)
 -----------------------------------------

 -------------------
 Title Card Required
 -------------------
 Symbolic Z-matrix:
 Charge =  0 Multiplicity = 2

                          Input orientation:
 ---------------------------------------------------------------------
 Center     Atomic      Atomic             Coordinates (Angstroms)
 Number     Number       Type             X           Y           Z
 ---------------------------------------------------------------------
      1          1           0        0.000000    0.000000    0.000000
      2          1           0       -1.800000    0.000000    0.000000
      3          9           0        3.050000    0.000000    0.000000
 ---------------------------------------------------------------------

 SCF Done:  E(UB3LYP) =  -100.787456208     a.u. after   28 cycles

 Alpha  occ. eigenvalues --  -24.74746  -1.20756  -0.53869  -0.45233  -0.45233
 Alpha  occ. eigenvalues --   -0.33899
 Alpha virt. eigenvalues --   -0.11650   0.25331   0.30802   0.89409   0.91855
 Alpha virt. eigenvalues --    0.91855   1.03609   1.09418   1.23691   1.23691
 Alpha virt. eigenvalues --    1.36608   1.36608   1.60549   2.14051   2.39671

  Beta  occ. eigenvalues --  -24.71684  -1.11971  -0.42167  -0.42167  -0.33846
  Beta virt. eigenvalues --   -0.25263  -0.11306   0.25768   0.31114   0.93326
  Beta virt. eigenvalues --    0.93326   0.98168   1.07337   1.09838   1.23743
  Beta virt. eigenvalues --    1.23743   1.37032   1.37032   1.60966   2.15041

 Mulliken charges and spin densities:
               1          2
     1  H    0.008683  -0.703117
     2  H    0.016800   0.732740
     3  F   -0.025484   0.970377
 Sum of Mulliken charges =   0.00000   1.00000

 Dipole moment (field-independent basis, Debye):
    X=             -0.5416    Y=              0.0000    Z=              0.0000  Tot=              0.5416
 Quadrupole moment (field-independent basis, Debye-Ang):
   XX=             -6.8492   YY=             -7.7389   ZZ=             -7.7389
   XY=              0.0000   XZ=              0.0000   YZ=              0.0000

  Exact polarizability:      59.170       0.000       2.010       0.000       0.000       2.010
 Approx polarizability:      60.865       0.000       1.954       0.000      -0.000       1.954

 ******    2 imaginary frequencies (negative Signs) ******

                      1                      2                      3
                      A                      A                      A
 Frequencies --  -1737.9207              -216.5186               762.8692
 Red. masses --      1.0079                 1.1084                 1.0128
 Frc consts  --      1.7936                 0.0306                 0.3473
 IR Inten    --     68.4172                24.4736                 0.0032

                      4
                      A
 Frequencies --    762.8692
 Red. masses --      1.0128
 Frc consts  --      0.3473
 IR Inten    --      0.0032

 - Thermochemistry -
 -------------------
 Temperature   298.150 Kelvin.  Pressure   1.00000 Atm.
 Atom     1 has atomic number  1 and mass   1.00783

 Molecular mass:    21.01405 amu.
 Principal axes and moments of inertia in atomic units:
                           1         2         3
     Eigenvalues --     0.00000 107.36506 107.36506
           X            1.00000  -0.00000   0.00000
           Y            0.00000   1.00000   0.00000
           Z            0.00000   0.00000   1.00000
 This molecule is a prolate symmetric top.
 Rotational symmetry number  1.
 Rotational temperature (Kelvin)      0.80672
 Rotational constant (GHZ):          16.809391
    2 imaginary frequencies ignored.
 Zero-point vibrational energy       9125.9 (Joules/Mol)
                                    2.18115 (Kcal/Mol)
 Vibrational temperatures:   1097.60  1097.60
          (Kelvin)

 Zero-point correction=                           0.003476 (Hartree/Particle)
 Thermal correction to Energy=                    0.006016
 Thermal correction to Enthalpy=                  0.006960
 Thermal correction to Gibbs Free Energy=        -0.017111
 Sum of electronic and zero-point Energies=           -100.783980
 Sum of electronic and thermal Energies=              -100.781440
 Sum of electronic and thermal Enthalpies=            -100.780496
 Sum of electronic and thermal Free Energies=         -100.804567

                     E (Thermal)             CV                S
                      KCal/Mol        Cal/Mol-Kelvin    Cal/Mol-Kelvin
 Total                    3.775              6.396             50.661
 Electronic               0.000              0.000              1.377
 Translational            0.889              2.981             35.068
 Rotational               0.592              1.987             13.736
 Vibrational              2.294              1.428              0.479

 Normal termination of Gaussian 16 at Fri Aug 22 19:43:16 2025.
