 Gaussian 16, Revision C.01,
 Gaussian 16:  ES64L-G16RevC.01  3-Jul-2019

 -----------------------------------------
 # sp b3lyp/6-311g** Force nosymm scf=(qc)
 -----------------------------------------

 -------------------
 Title Card Required
 -------------------
 Symbolic Z-matrix:
 Charge =  0 Multiplicity = 2

                          Input orientation:
 ---------------------------------------------------------------------
 Center     Atomic      Atomic             Coordinates (Angstroms)
 Number     Number       Type             X           Y           Z
 ---------------------------------------------------------------------
      1          1           0        0.000000    0.000000    0.000000
      2          1           0       -3.050000    0.000000    0.000000
      3          9           0        1.250000    0.000000    0.000000
 ---------------------------------------------------------------------

 SCF Done:  E(UB3LYP) =  -100.913615694     a.u. after    6 cycles

 Alpha  occ. eigenvalues --  -24.64313  -1.11607  -0.46856  -0.37241  -0.37241
 Alpha  occ. eigenvalues --   -0.34389
 Alpha virt. eigenvalues --   -0.07177   0.22730   0.28552   0.93101   0.93101
 Alpha virt. eigenvalues --    1.01462   1.22839   1.23138   1.23138   1.25404
 Alpha virt. eigenvalues --    1.34309   1.34309   1.71649   2.14012   2.26946

  Beta  occ. eigenvalues --  -24.64298  -1.11569  -0.46807  -0.37228  -0.37228
  Beta virt. eigenvalues --   -0.09796  -0.04795   0.26521   0.37762   0.93099
  Beta virt. eigenvalues --    0.93099   1.01502   1.24786   1.34273   1.34273
  Beta virt. eigenvalues --    1.45416   1.45784   1.45784   1.71783   2.26905

 Mulliken charges and spin densities:
               1          2
     1  H    0.354494  -0.000497
     2  H    0.003681   0.995771
     3  F   -0.358175   0.004725
 Sum of Mulliken charges =   0.00000   1.00000

 Dipole moment (field-independent basis, Debye):
    X=             -2.3904    Y=             -0.0000    Z=             -0.0000  Tot=              2.3904
 Quadrupole moment (field-independent basis, Debye-Ang):
   XX=             -8.9133   YY=             -7.1648   ZZ=             -7.1648
   XY=             -0.0000   XZ=             -0.0000   YZ=              0.0000

  Exact polarizability:      11.536       0.000       2.308       0.000       0.000       2.308
 Approx polarizability:      16.345      -0.000       2.259       0.000      -0.000       2.259

 ******    1 imaginary frequencies (negative Signs) ******

                      1                      2                      3
                      A                      A                      A
 Frequencies --   -114.1758               415.3753              1178.4831
 Red. masses --      1.0425                 1.0694                 1.0313
 Frc consts  --      0.0080                 0.1087                 0.8439
 IR Inten    --      2.8763                74.8854               136.4703

                      4
                      A
 Frequencies --   1178.4831
 Red. masses --      1.0313
 Frc consts  --      0.8439
 IR Inten    --    136.4703

 - Thermochemistry -
 -------------------
 Temperature   298.150 Kelvin.  Pressure   1.00000 Atm.
 Atom     1 has atomic number  1 and mass   1.00783

 Molecular mass:    21.01405 amu.
 Principal axes and moments of inertia in atomic units:
                           1         2         3
     Eigenvalues --     0.00000  66.85239  66.85239
           X            1.00000  -0.00000   0.00000
           Y            0.00000   1.00000   0.00000
           Z            0.00000   0.00000   1.00000
 This molecule is a prolate symmetric top.
 Rotational symmetry number  1.
 Rotational temperature (Kelvin)      1.29560
 Rotational constant (GHZ):          26.995910
    1 imaginary frequencies ignored.
 Zero-point vibrational energy      16582.3 (Joules/Mol)
                                    3.96326 (Kcal/Mol)
 Warning -- explicit consideration of   1 degrees of freedom as
           vibrations may cause significant error
 Vibrational temperatures:    597.63  1695.57  1695.57
          (Kelvin)

 Zero-point correction=                           0.006316 (Hartree/Particle)
 Thermal correction to Energy=                    0.009008
 Thermal correction to Enthalpy=                  0.009952
 Thermal correction to Gibbs Free Energy=        -0.013918
 Sum of electronic and zero-point Energies=           -100.907300
 Sum of electronic and thermal Energies=              -100.904608
 Sum of electronic and thermal Enthalpies=            -100.903664
 Sum of electronic and thermal Free Energies=         -100.927534

                     E (Thermal)             CV                S
                      KCal/Mol        Cal/Mol-Kelvin    Cal/Mol-Kelvin
 Total                    5.652              6.844             50.238
 Electronic               0.000              0.000              1.377
 Translational            0.889              2.981             35.068
 Rotational               0.592              1.987             12.795
 Vibrational              4.171              1.876              0.998
 Vibration     1          0.779              1.437              0.908

 Normal termination of Gaussian 16 at Fri Aug 22 16:13:18 2025.
