 Gaussian 16, Revision C.01,
 Gaussian 16:  ES64L-G16RevC.01  3-Jul-2019

 -----------------------------------------
 # sp b3lyp/6-311g** Force nosymm scf=(qc)
 -----------------------------------------

 -------------------
 Title Card Required
 -------------------
 Symbolic Z-matrix:
 Charge =  0 Multiplicity = 2

                          Input orientation:
 ---------------------------------------------------------------------
 Center     Atomic      Atomic             Coordinates (Angstroms)
 Number     Number       Type             X           Y           Z
 ---------------------------------------------------------------------
      1          1           0        0.000000    0.000000    0.000000
      2          1           0       -3.350000    0.000000    0.000000
      3          9           0        0.750000    0.000000    0.000000
 ---------------------------------------------------------------------

 SCF Done:  E(UB3LYP) =  -100.921971059     a.u. after    6 cycles

 Alpha  occ. eigenvalues --  -24.63450  -1.25471  -0.57380  -0.41189  -0.41189
 Alpha  occ. eigenvalues --   -0.33584
 Alpha virt. eigenvalues --    0.05889   0.25022   0.49143   0.93927   0.93927
 Alpha virt. eigenvalues --    0.96517   1.23509   1.23931   1.23931   1.31294
 Alpha virt. eigenvalues --    1.41711   1.41711   2.00511   2.14659   2.67717

  Beta  occ. eigenvalues --  -24.63449  -1.25468  -0.57378  -0.41188  -0.41188
  Beta virt. eigenvalues --   -0.05554   0.06538   0.39447   0.49146   0.93927
  Beta virt. eigenvalues --    0.93927   0.96506   1.30416   1.41712   1.41712
  Beta virt. eigenvalues --    1.50977   1.50977   1.51023   2.00531   2.44603

 Mulliken charges and spin densities:
               1          2
     1  H    0.267296   0.000772
     2  H    0.001042   0.998673
     3  F   -0.268337   0.000554
 Sum of Mulliken charges =   0.00000   1.00000

 Dipole moment (field-independent basis, Debye):
    X=             -1.6717    Y=             -0.0000    Z=              0.0000  Tot=              1.6717
 Quadrupole moment (field-independent basis, Debye-Ang):
   XX=             -7.4220   YY=             -6.7167   ZZ=             -6.7167
   XY=             -0.0000   XZ=              0.0000   YZ=             -0.0000

  Exact polarizability:       4.468       0.000       2.449       0.000       0.000       2.449
 Approx polarizability:       4.893       0.000       2.431      -0.000       0.000       2.431

 ******    3 imaginary frequencies (negative Signs) ******

                      1                      2                      3
                      A                      A                      A
 Frequencies --  -2703.7430             -2703.7430               -43.6909
 Red. masses --      1.0405                 1.0405                 1.0532
 Frc consts  --      4.4814                 4.4814                 0.0012
 IR Inten    --    203.3924               203.3924                 0.0455

                      4
                      A
 Frequencies --   7586.6911
 Red. masses --      1.0583
 Frc consts  --     35.8897
 IR Inten    --    108.1402

 - Thermochemistry -
 -------------------
 Temperature   298.150 Kelvin.  Pressure   1.00000 Atm.
 Atom     1 has atomic number  1 and mass   1.00783

 Molecular mass:    21.01405 amu.
 Principal axes and moments of inertia in atomic units:
                           1         2         3
     Eigenvalues --     0.00000  58.46363  58.46363
           X            1.00000  -0.00000   0.00000
           Y            0.00000   1.00000   0.00000
           Z            0.00000   0.00000   1.00000
 This molecule is a prolate symmetric top.
 Rotational symmetry number  1.
 Rotational temperature (Kelvin)      1.48150
 Rotational constant (GHZ):          30.869469
    3 imaginary frequencies ignored.
 Zero-point vibrational energy      45378.5 (Joules/Mol)
                                   10.84572 (Kcal/Mol)
 Vibrational temperatures:  10915.56
          (Kelvin)

 Zero-point correction=                           0.017284 (Hartree/Particle)
 Thermal correction to Energy=                    0.019644
 Thermal correction to Enthalpy=                  0.020588
 Thermal correction to Gibbs Free Energy=        -0.002681
 Sum of electronic and zero-point Energies=           -100.904687
 Sum of electronic and thermal Energies=              -100.902327
 Sum of electronic and thermal Enthalpies=            -100.901383
 Sum of electronic and thermal Free Energies=         -100.924652

                     E (Thermal)             CV                S
                      KCal/Mol        Cal/Mol-Kelvin    Cal/Mol-Kelvin
 Total                   12.327              4.968             48.974
 Electronic               0.000              0.000              1.377
 Translational            0.889              2.981             35.068
 Rotational               0.592              1.987             12.528
 Vibrational             10.846              0.000              0.000

 Normal termination of Gaussian 16 at Fri Aug 22 15:49:37 2025.
