 Gaussian 16, Revision C.01,
 Gaussian 16:  ES64L-G16RevC.01  3-Jul-2019

 -----------------------------------------
 # sp b3lyp/6-311g** Force nosymm scf=(qc)
 -----------------------------------------

 -------------------
 Title Card Required
 -------------------
 Symbolic Z-matrix:
 Charge =  0 Multiplicity = 2

                          Input orientation:
 ---------------------------------------------------------------------
 Center     Atomic      Atomic             Coordinates (Angstroms)
 Number     Number       Type             X           Y           Z
 ---------------------------------------------------------------------
      1          1           0        0.000000    0.000000    0.000000
      2          1           0       -3.800000    0.000000    0.000000
      3          9           0        3.450000    0.000000    0.000000
 ---------------------------------------------------------------------

 SCF Done:  E(UB3LYP) =  -100.759041920     a.u. after   30 cycles

 Alpha  occ. eigenvalues --  -24.75290  -1.21261  -0.54413  -0.45686  -0.45686
 Alpha  occ. eigenvalues --   -0.32318
 Alpha virt. eigenvalues --   -0.06611   0.24115   0.37109   0.87748   0.91541
 Alpha virt. eigenvalues --    0.91541   1.01950   1.25179   1.25179   1.25227
 Alpha virt. eigenvalues --    1.45790   1.45790   1.46179   2.14657   2.41991

  Beta  occ. eigenvalues --  -24.72182  -1.12332  -0.42571  -0.42571  -0.32878
  Beta virt. eigenvalues --   -0.25433  -0.06049   0.23854   0.38151   0.93028
  Beta virt. eigenvalues --    0.93028   0.96847   1.05935   1.24539   1.24539
  Beta virt. eigenvalues --    1.24573   1.46427   1.46588   1.46588   2.14846

 Mulliken charges and spin densities:
               1          2
     1  H    0.013216  -0.984395
     2  H    0.000091   0.998991
     3  F   -0.013307   0.985404
 Sum of Mulliken charges =  -0.00000   1.00000

 Dipole moment (field-independent basis, Debye):
    X=             -0.2377    Y=             -0.0000    Z=             -0.0000  Tot=              0.2377
 Quadrupole moment (field-independent basis, Debye-Ang):
   XX=             -7.4978   YY=             -7.6177   ZZ=             -7.6177
   XY=             -0.0000   XZ=             -0.0000   YZ=             -0.0000

  Exact polarizability:      24.257      -0.000       2.034      -0.000      -0.000       2.034
 Approx polarizability:      19.700      -0.000       1.933      -0.000       0.000       1.933

 ******    2 imaginary frequencies (negative Signs) ******

                      1                      2                      3
                      A                      A                      A
 Frequencies --   -231.0572               -81.6121                68.3199
 Red. masses --      1.0419                 1.0700                 1.0192
 Frc consts  --      0.0328                 0.0042                 0.0028
 IR Inten    --     13.2187                 0.3798                 0.1596

                      4
                      A
 Frequencies --     68.3199
 Red. masses --      1.0192
 Frc consts  --      0.0028
 IR Inten    --      0.1596

 - Thermochemistry -
 -------------------
 Temperature   298.150 Kelvin.  Pressure   1.00000 Atm.
 Atom     1 has atomic number  1 and mass   1.00783

 Molecular mass:    21.01405 amu.
 Principal axes and moments of inertia in atomic units:
                           1         2         3
     Eigenvalues --     0.00000 212.24832 212.24832
           X            1.00000  -0.00000   0.00000
           Y            0.00000   1.00000   0.00000
           Z            0.00000   0.00000   1.00000
 This molecule is a prolate symmetric top.
 Rotational symmetry number  1.
 Rotational temperature (Kelvin)      0.40808
 Rotational constant (GHZ):           8.502971
    2 imaginary frequencies ignored.
 Zero-point vibrational energy        817.3 (Joules/Mol)
                                    0.19534 (Kcal/Mol)
 Warning -- explicit consideration of   2 degrees of freedom as
           vibrations may cause significant error
 Vibrational temperatures:     98.30    98.30
          (Kelvin)

 Zero-point correction=                           0.000311 (Hartree/Particle)
 Thermal correction to Energy=                    0.004266
 Thermal correction to Enthalpy=                  0.005210
 Thermal correction to Gibbs Free Energy=        -0.023269
 Sum of electronic and zero-point Energies=           -100.758731
 Sum of electronic and thermal Energies=              -100.754776
 Sum of electronic and thermal Enthalpies=            -100.753832
 Sum of electronic and thermal Free Energies=         -100.782311

                     E (Thermal)             CV                S
                      KCal/Mol        Cal/Mol-Kelvin    Cal/Mol-Kelvin
 Total                    2.677              8.907             59.938
 Electronic               0.000              0.000              1.377
 Translational            0.889              2.981             35.068
 Rotational               0.592              1.987             15.091
 Vibrational              1.196              3.939              8.402
 Vibration     1          0.598              1.969              4.201
 Vibration     2          0.598              1.969              4.201

 Normal termination of Gaussian 16 at Fri Aug 22 21:43:46 2025.
