 Gaussian 16, Revision C.01,
 Gaussian 16:  ES64L-G16RevC.01  3-Jul-2019

 -----------------------------------------
 # sp b3lyp/6-311g** Force nosymm scf=(qc)
 -----------------------------------------

 -------------------
 Title Card Required
 -------------------
 Symbolic Z-matrix:
 Charge =  0 Multiplicity = 2

                          Input orientation:
 ---------------------------------------------------------------------
 Center     Atomic      Atomic             Coordinates (Angstroms)
 Number     Number       Type             X           Y           Z
 ---------------------------------------------------------------------
      1          1           0        0.000000    0.000000    0.000000
      2          1           0       -1.450000    0.000000    0.000000
      3          9           0        2.450000    0.000000    0.000000
 ---------------------------------------------------------------------

 SCF Done:  E(UB3LYP) =  -100.831561675     a.u. after   18 cycles

 Alpha  occ. eigenvalues --  -24.73471  -1.19588  -0.52684  -0.44186  -0.44186
 Alpha  occ. eigenvalues --   -0.36192
 Alpha virt. eigenvalues --   -0.09974   0.23485   0.31487   0.88717   0.92491
 Alpha virt. eigenvalues --    0.92491   1.04326   1.15393   1.16974   1.16974
 Alpha virt. eigenvalues --    1.41375   1.41375   1.83960   2.21741   2.47901

  Beta  occ. eigenvalues --  -24.70525  -1.11172  -0.41243  -0.41243  -0.35708
  Beta virt. eigenvalues --   -0.25022  -0.09151   0.24406   0.31726   0.93893
  Beta virt. eigenvalues --    0.93893   0.95553   1.06920   1.17634   1.17634
  Beta virt. eigenvalues --    1.18858   1.41894   1.41894   1.84678   2.22701

 Mulliken charges and spin densities:
               1          2
     1  H    0.017785  -0.237066
     2  H    0.038643   0.305964
     3  F   -0.056428   0.931101
 Sum of Mulliken charges =  -0.00000   1.00000

 Dipole moment (field-independent basis, Debye):
    X=             -0.9642    Y=             -0.0000    Z=              0.0000  Tot=              0.9642
 Quadrupole moment (field-independent basis, Debye-Ang):
   XX=             -6.7790   YY=             -7.6400   ZZ=             -7.6400
   XY=             -0.0000   XZ=              0.0000   YZ=              0.0000

  Exact polarizability:      55.709      -0.000       2.069       0.000       0.000       2.069
 Approx polarizability:      78.640       0.000       2.050      -0.000      -0.000       2.050

 ******    2 imaginary frequencies (negative Signs) ******

                      1                      2                      3
                      A                      A                      A
 Frequencies --  -1923.0068              -294.8001              1201.4887
 Red. masses --      1.0089                 1.1073                 1.0128
 Frc consts  --      2.1981                 0.0567                 0.8615
 IR Inten    --    777.9010                25.2368                 0.0002

                      4
                      A
 Frequencies --   1201.4887
 Red. masses --      1.0128
 Frc consts  --      0.8615
 IR Inten    --      0.0002

 - Thermochemistry -
 -------------------
 Temperature   298.150 Kelvin.  Pressure   1.00000 Atm.
 Atom     1 has atomic number  1 and mass   1.00783

 Molecular mass:    21.01405 amu.
 Principal axes and moments of inertia in atomic units:
                           1         2         3
     Eigenvalues --     0.00000  69.38403  69.38403
           X            1.00000  -0.00000   0.00000
           Y            0.00000   1.00000   0.00000
           Z            0.00000   0.00000   1.00000
 This molecule is a prolate symmetric top.
 Rotational symmetry number  1.
 Rotational temperature (Kelvin)      1.24833
 Rotational constant (GHZ):          26.010903
    2 imaginary frequencies ignored.
 Zero-point vibrational energy      14373.0 (Joules/Mol)
                                    3.43523 (Kcal/Mol)
 Vibrational temperatures:   1728.67  1728.67
          (Kelvin)

 Zero-point correction=                           0.005474 (Hartree/Particle)
 Thermal correction to Energy=                    0.007868
 Thermal correction to Enthalpy=                  0.008812
 Thermal correction to Gibbs Free Energy=        -0.014657
 Sum of electronic and zero-point Energies=           -100.826087
 Sum of electronic and thermal Energies=              -100.823694
 Sum of electronic and thermal Enthalpies=            -100.822749
 Sum of electronic and thermal Free Energies=         -100.846219

                     E (Thermal)             CV                S
                      KCal/Mol        Cal/Mol-Kelvin    Cal/Mol-Kelvin
 Total                    4.937              5.376             49.396
 Electronic               0.000              0.000              1.377
 Translational            0.889              2.981             35.068
 Rotational               0.592              1.987             12.869
 Vibrational              3.456              0.408              0.082

 Normal termination of Gaussian 16 at Fri Aug 22 17:37:44 2025.
