 Gaussian 16, Revision C.01,
 Gaussian 16:  ES64L-G16RevC.01  3-Jul-2019

 -----------------------------------------
 # sp b3lyp/6-311g** Force nosymm scf=(qc)
 -----------------------------------------

 -------------------
 Title Card Required
 -------------------
 Symbolic Z-matrix:
 Charge =  0 Multiplicity = 2

                          Input orientation:
 ---------------------------------------------------------------------
 Center     Atomic      Atomic             Coordinates (Angstroms)
 Number     Number       Type             X           Y           Z
 ---------------------------------------------------------------------
      1          1           0        0.000000    0.000000    0.000000
      2          1           0       -2.700000    0.000000    0.000000
      3          9           0        2.950000    0.000000    0.000000
 ---------------------------------------------------------------------

 SCF Done:  E(UB3LYP) =  -100.763569698     a.u. after   21 cycles

 Alpha  occ. eigenvalues --  -24.73944  -1.20011  -0.53061  -0.44554  -0.44554
 Alpha  occ. eigenvalues --   -0.32947
 Alpha virt. eigenvalues --   -0.09973   0.25085   0.34112   0.89669   0.92362
 Alpha virt. eigenvalues --    0.92362   1.04249   1.24642   1.24642   1.26245
 Alpha virt. eigenvalues --    1.40917   1.40917   1.41936   2.15626   2.37530

  Beta  occ. eigenvalues --  -24.70927  -1.11371  -0.41536  -0.41536  -0.33905
  Beta virt. eigenvalues --   -0.24704  -0.08560   0.25228   0.35602   0.93820
  Beta virt. eigenvalues --    0.93820   0.98352   1.08081   1.23517   1.23517
  Beta virt. eigenvalues --    1.25158   1.43176   1.43176   1.43851   2.16317

 Mulliken charges and spin densities:
               1          2
     1  H    0.036309  -0.938974
     2  H    0.003720   0.983384
     3  F   -0.040029   0.955589
 Sum of Mulliken charges =  -0.00000   1.00000

 Dipole moment (field-independent basis, Debye):
    X=             -0.6539    Y=             -0.0000    Z=              0.0000  Tot=              0.6539
 Quadrupole moment (field-independent basis, Debye-Ang):
   XX=             -8.1623   YY=             -7.6346   ZZ=             -7.6346
   XY=             -0.0000   XZ=              0.0000   YZ=             -0.0000

  Exact polarizability:      39.677      -0.000       2.017       0.000       0.000       2.017
 Approx polarizability:      37.841      -0.000       1.922       0.000      -0.000       1.922

 ******    2 imaginary frequencies (negative Signs) ******

                      1                      2                      3
                      A                      A                      A
 Frequencies --   -572.0589              -229.8008               214.2658
 Red. masses --      1.0147                 1.1003                 1.0169
 Frc consts  --      0.1956                 0.0342                 0.0275
 IR Inten    --     30.1466                14.1318                 1.1079

                      4
                      A
 Frequencies --    214.2658
 Red. masses --      1.0169
 Frc consts  --      0.0275
 IR Inten    --      1.1079

 - Thermochemistry -
 -------------------
 Temperature   298.150 Kelvin.  Pressure   1.00000 Atm.
 Atom     1 has atomic number  1 and mass   1.00783

 Molecular mass:    21.01405 amu.
 Principal axes and moments of inertia in atomic units:
                           1         2         3
     Eigenvalues --     0.00000 133.44371 133.44371
           X            1.00000  -0.00000   0.00000
           Y            0.00000   1.00000   0.00000
           Z            0.00000   0.00000   1.00000
 This molecule is a prolate symmetric top.
 Rotational symmetry number  1.
 Rotational temperature (Kelvin)      0.64907
 Rotational constant (GHZ):          13.524363
    2 imaginary frequencies ignored.
 Zero-point vibrational energy       2563.2 (Joules/Mol)
                                    0.61262 (Kcal/Mol)
 Warning -- explicit consideration of   2 degrees of freedom as
           vibrations may cause significant error
 Vibrational temperatures:    308.28   308.28
          (Kelvin)

 Zero-point correction=                           0.000976 (Hartree/Particle)
 Thermal correction to Energy=                    0.004414
 Thermal correction to Enthalpy=                  0.005358
 Thermal correction to Gibbs Free Energy=        -0.020597
 Sum of electronic and zero-point Energies=           -100.762593
 Sum of electronic and thermal Energies=              -100.759156
 Sum of electronic and thermal Enthalpies=            -100.758211
 Sum of electronic and thermal Free Energies=         -100.784167

                     E (Thermal)             CV                S
                      KCal/Mol        Cal/Mol-Kelvin    Cal/Mol-Kelvin
 Total                    2.770              8.606             54.628
 Electronic               0.000              0.000              1.377
 Translational            0.889              2.981             35.068
 Rotational               0.592              1.987             14.168
 Vibrational              1.289              3.638              4.014
 Vibration     1          0.644              1.819              2.007
 Vibration     2          0.644              1.819              2.007

 Normal termination of Gaussian 16 at Fri Aug 22 19:18:08 2025.
