 Gaussian 16, Revision C.01,
 Gaussian 16:  ES64L-G16RevC.01  3-Jul-2019

 -----------------------------------------
 # sp b3lyp/6-311g** Force nosymm scf=(qc)
 -----------------------------------------

 -------------------
 Title Card Required
 -------------------
 Symbolic Z-matrix:
 Charge =  0 Multiplicity = 2

                          Input orientation:
 ---------------------------------------------------------------------
 Center     Atomic      Atomic             Coordinates (Angstroms)
 Number     Number       Type             X           Y           Z
 ---------------------------------------------------------------------
      1          1           0        0.000000    0.000000    0.000000
      2          1           0       -3.100000    0.000000    0.000000
      3          9           0        2.150000    0.000000    0.000000
 ---------------------------------------------------------------------

 SCF Done:  E(UB3LYP) =  -100.778126517     a.u. after   18 cycles

 Alpha  occ. eigenvalues --  -24.66623  -1.08311  -0.38034  -0.38034  -0.37170
 Alpha  occ. eigenvalues --   -0.33323
 Alpha virt. eigenvalues --   -0.21554   0.21056   0.27807   0.91238   0.95740
 Alpha virt. eigenvalues --    0.95740   1.08417   1.21537   1.21537   1.23987
 Alpha virt. eigenvalues --    1.23987   1.24384   1.44870   2.12398   2.14617

  Beta  occ. eigenvalues --  -24.69181  -1.15512  -0.48219  -0.40567  -0.40567
  Beta virt. eigenvalues --   -0.13187  -0.04806   0.31348   0.39628   0.88759
  Beta virt. eigenvalues --    0.94754   0.94754   1.06339   1.37034   1.37034
  Beta virt. eigenvalues --    1.47409   1.47409   1.47659   1.54107   2.32298

 Mulliken charges and spin densities:
               1          2
     1  H    0.155812   0.808558
     2  H    0.003461   0.996623
     3  F   -0.159273  -0.805182
 Sum of Mulliken charges =   0.00000   1.00000

 Dipole moment (field-independent basis, Debye):
    X=             -1.7617    Y=             -0.0000    Z=             -0.0000  Tot=              1.7617
 Quadrupole moment (field-independent basis, Debye-Ang):
   XX=             -9.9085   YY=             -7.5052   ZZ=             -7.5052
   XY=             -0.0000   XZ=             -0.0000   YZ=              0.0000

  Exact polarizability:      31.409      -0.000       2.044      -0.000       0.000       2.044
 Approx polarizability:      43.232      -0.000       1.934      -0.000      -0.000       1.934

 ******    1 imaginary frequencies (negative Signs) ******

                      1                      2                      3
                      A                      A                      A
 Frequencies --   -903.1251               118.7271               377.8669
 Red. masses --      1.0610                 1.0506                 1.0229
 Frc consts  --      0.5099                 0.0087                 0.0861
 IR Inten    --     87.8365                 1.4230                22.2347

                      4
                      A
 Frequencies --    377.8669
 Red. masses --      1.0229
 Frc consts  --      0.0861
 IR Inten    --     22.2347

 - Thermochemistry -
 -------------------
 Temperature   298.150 Kelvin.  Pressure   1.00000 Atm.
 Atom     1 has atomic number  1 and mass   1.00783

 Molecular mass:    21.01405 amu.
 Principal axes and moments of inertia in atomic units:
                           1         2         3
     Eigenvalues --     0.00000 106.38214 106.38214
           X            1.00000  -0.00000   0.00000
           Y            0.00000   1.00000   0.00000
           Z            0.00000   0.00000   1.00000
 This molecule is a prolate symmetric top.
 Rotational symmetry number  1.
 Rotational temperature (Kelvin)      0.81418
 Rotational constant (GHZ):          16.964702
    1 imaginary frequencies ignored.
 Zero-point vibrational energy       5230.4 (Joules/Mol)
                                    1.25010 (Kcal/Mol)
 Warning -- explicit consideration of   3 degrees of freedom as
           vibrations may cause significant error
 Vibrational temperatures:    170.82   543.67   543.67
          (Kelvin)

 Zero-point correction=                           0.001992 (Hartree/Particle)
 Thermal correction to Energy=                    0.005715
 Thermal correction to Enthalpy=                  0.006659
 Thermal correction to Gibbs Free Energy=        -0.019653
 Sum of electronic and zero-point Energies=           -100.776134
 Sum of electronic and thermal Energies=              -100.772411
 Sum of electronic and thermal Enthalpies=            -100.771467
 Sum of electronic and thermal Free Energies=         -100.797780

                     E (Thermal)             CV                S
                      KCal/Mol        Cal/Mol-Kelvin    Cal/Mol-Kelvin
 Total                    3.586              9.936             55.380
 Electronic               0.000              0.000              1.377
 Translational            0.889              2.981             35.068
 Rotational               0.592              1.987             13.718
 Vibrational              2.105              4.968              5.216
 Vibration     1          0.609              1.934              3.121
 Vibration     2          0.748              1.517              1.048
 Vibration     3          0.748              1.517              1.048

 Normal termination of Gaussian 16 at Fri Aug 22 17:08:45 2025.
