 Gaussian 16, Revision C.01,
 Gaussian 16:  ES64L-G16RevC.01  3-Jul-2019

 -----------------------------------------
 # sp b3lyp/6-311g** Force nosymm scf=(qc)
 -----------------------------------------

 -------------------
 Title Card Required
 -------------------
 Symbolic Z-matrix:
 Charge =  0 Multiplicity = 2

                          Input orientation:
 ---------------------------------------------------------------------
 Center     Atomic      Atomic             Coordinates (Angstroms)
 Number     Number       Type             X           Y           Z
 ---------------------------------------------------------------------
      1          1           0        0.000000    0.000000    0.000000
      2          1           0       -2.300000    0.000000    0.000000
      3          9           0        1.400000    0.000000    0.000000
 ---------------------------------------------------------------------

 SCF Done:  E(UB3LYP) =  -100.879301603     a.u. after    8 cycles

 Alpha  occ. eigenvalues --  -24.63923  -1.10057  -0.44626  -0.36351  -0.36351
 Alpha  occ. eigenvalues --   -0.36117
 Alpha virt. eigenvalues --   -0.10513   0.23747   0.26797   0.93524   0.93524
 Alpha virt. eigenvalues --    1.03303   1.13453   1.21315   1.21315   1.28507
 Alpha virt. eigenvalues --    1.33341   1.33341   1.72978   2.11523   2.23484

  Beta  occ. eigenvalues --  -24.63727  -1.09547  -0.43891  -0.36167  -0.36167
  Beta virt. eigenvalues --   -0.15145  -0.06156   0.26237   0.34945   0.93478
  Beta virt. eigenvalues --    0.93478   1.03781   1.16137   1.32642   1.32642
  Beta virt. eigenvalues --    1.41185   1.41185   1.44612   1.73054   2.20618

 Mulliken charges and spin densities:
               1          2
     1  H    0.338647  -0.032336
     2  H    0.023239   0.971378
     3  F   -0.361885   0.060958
 Sum of Mulliken charges =   0.00000   1.00000

 Dipole moment (field-independent basis, Debye):
    X=             -2.7787    Y=              0.0000    Z=             -0.0000  Tot=              2.7787
 Quadrupole moment (field-independent basis, Debye-Ang):
   XX=             -8.9383   YY=             -7.2558   ZZ=             -7.2558
   XY=              0.0000   XZ=              0.0000   YZ=             -0.0000

  Exact polarizability:      20.007      -0.000       2.260       0.000       0.000       2.260
 Approx polarizability:      28.985       0.000       2.199      -0.000       0.000       2.199

 ******    2 imaginary frequencies (negative Signs) ******

                      1                      2                      3
                      A                      A                      A
 Frequencies --  -1216.1785              -255.1764              1063.7512
 Red. masses --      1.0435                 1.0684                 1.0249
 Frc consts  --      0.9093                 0.0410                 0.6833
 IR Inten    --    165.2704                 1.0559               100.6027

                      4
                      A
 Frequencies --   1063.7512
 Red. masses --      1.0249
 Frc consts  --      0.6833
 IR Inten    --    100.6027

 - Thermochemistry -
 -------------------
 Temperature   298.150 Kelvin.  Pressure   1.00000 Atm.
 Atom     1 has atomic number  1 and mass   1.00783

 Molecular mass:    21.01405 amu.
 Principal axes and moments of inertia in atomic units:
                           1         2         3
     Eigenvalues --     0.00000  51.83498  51.83498
           X            1.00000  -0.00000   0.00000
           Y            0.00000   1.00000   0.00000
           Z            0.00000   0.00000   1.00000
 This molecule is a prolate symmetric top.
 Rotational symmetry number  1.
 Rotational temperature (Kelvin)      1.67096
 Rotational constant (GHZ):          34.817054
    2 imaginary frequencies ignored.
 Zero-point vibrational energy      12725.3 (Joules/Mol)
                                    3.04142 (Kcal/Mol)
 Vibrational temperatures:   1530.50  1530.50
          (Kelvin)

 Zero-point correction=                           0.004847 (Hartree/Particle)
 Thermal correction to Energy=                    0.007265
 Thermal correction to Enthalpy=                  0.008209
 Thermal correction to Gibbs Free Energy=        -0.015015
 Sum of electronic and zero-point Energies=           -100.874455
 Sum of electronic and thermal Energies=              -100.872037
 Sum of electronic and thermal Enthalpies=            -100.871093
 Sum of electronic and thermal Free Energies=         -100.894317

                     E (Thermal)             CV                S
                      KCal/Mol        Cal/Mol-Kelvin    Cal/Mol-Kelvin
 Total                    4.559              5.593             48.879
 Electronic               0.000              0.000              1.377
 Translational            0.889              2.981             35.068
 Rotational               0.592              1.987             12.289
 Vibrational              3.078              0.625              0.145

 Normal termination of Gaussian 16 at Fri Aug 22 16:20:23 2025.
