 Gaussian 16, Revision C.01,
 Gaussian 16:  ES64L-G16RevC.01  3-Jul-2019

 -----------------------------------------
 # sp b3lyp/6-311g** Force nosymm scf=(qc)
 -----------------------------------------

 -------------------
 Title Card Required
 -------------------
 Symbolic Z-matrix:
 Charge =  0 Multiplicity = 2

                          Input orientation:
 ---------------------------------------------------------------------
 Center     Atomic      Atomic             Coordinates (Angstroms)
 Number     Number       Type             X           Y           Z
 ---------------------------------------------------------------------
      1          1           0        0.000000    0.000000    0.000000
      2          1           0       -2.700000    0.000000    0.000000
      3          9           0        1.500000    0.000000    0.000000
 ---------------------------------------------------------------------

 SCF Done:  E(UB3LYP) =  -100.855542363     a.u. after    7 cycles

 Alpha  occ. eigenvalues --  -24.64189  -1.09701  -0.43323  -0.36304  -0.36304
 Alpha  occ. eigenvalues --   -0.35222
 Alpha virt. eigenvalues --   -0.13853   0.22286   0.27027   0.93723   0.93723
 Alpha virt. eigenvalues --    1.03489   1.10463   1.22280   1.22280   1.23775
 Alpha virt. eigenvalues --    1.31756   1.31756   1.74198   2.13362   2.19917

  Beta  occ. eigenvalues --  -24.63990  -1.09176  -0.42787  -0.36116  -0.36116
  Beta virt. eigenvalues --   -0.15547  -0.07734   0.24709   0.36250   0.93649
  Beta virt. eigenvalues --    0.93649   1.03984   1.10629   1.30857   1.30857
  Beta virt. eigenvalues --    1.43431   1.43431   1.43705   1.74061   2.18530

 Mulliken charges and spin densities:
               1          2
     1  H    0.339767  -0.048737
     2  H    0.012437   0.986022
     3  F   -0.352203   0.062715
 Sum of Mulliken charges =  -0.00000   1.00000

 Dipole moment (field-independent basis, Debye):
    X=             -2.7554    Y=              0.0000    Z=             -0.0000  Tot=              2.7554
 Quadrupole moment (field-independent basis, Debye-Ang):
   XX=             -9.5080   YY=             -7.3249   ZZ=             -7.3249
   XY=              0.0000   XZ=             -0.0000   YZ=             -0.0000

  Exact polarizability:      20.157      -0.000       2.197       0.000       0.000       2.197
 Approx polarizability:      33.113       0.000       2.124      -0.000      -0.000       2.124

 ******    2 imaginary frequencies (negative Signs) ******

                      1                      2                      3
                      A                      A                      A
 Frequencies --  -1290.0923              -204.8608               998.6046
 Red. masses --      1.0516                 1.0600                 1.0264
 Frc consts  --      1.0312                 0.0262                 0.6030
 IR Inten    --     82.2735                 2.0449               104.4998

                      4
                      A
 Frequencies --    998.6046
 Red. masses --      1.0264
 Frc consts  --      0.6030
 IR Inten    --    104.4998

 - Thermochemistry -
 -------------------
 Temperature   298.150 Kelvin.  Pressure   1.00000 Atm.
 Atom     1 has atomic number  1 and mass   1.00783

 Molecular mass:    21.01405 amu.
 Principal axes and moments of inertia in atomic units:
                           1         2         3
     Eigenvalues --     0.00000  65.97628  65.97628
           X            1.00000  -0.00000   0.00000
           Y            0.00000   1.00000   0.00000
           Z            0.00000   0.00000   1.00000
 This molecule is a prolate symmetric top.
 Rotational symmetry number  1.
 Rotational temperature (Kelvin)      1.31280
 Rotational constant (GHZ):          27.354394
    2 imaginary frequencies ignored.
 Zero-point vibrational energy      11946.0 (Joules/Mol)
                                    2.85515 (Kcal/Mol)
 Vibrational temperatures:   1436.77  1436.77
          (Kelvin)

 Zero-point correction=                           0.004550 (Hartree/Particle)
 Thermal correction to Energy=                    0.006985
 Thermal correction to Enthalpy=                  0.007929
 Thermal correction to Gibbs Free Energy=        -0.015544
 Sum of electronic and zero-point Energies=           -100.850992
 Sum of electronic and thermal Energies=              -100.848558
 Sum of electronic and thermal Enthalpies=            -100.847614
 Sum of electronic and thermal Free Energies=         -100.871086

                     E (Thermal)             CV                S
                      KCal/Mol        Cal/Mol-Kelvin    Cal/Mol-Kelvin
 Total                    4.383              5.726             49.402
 Electronic               0.000              0.000              1.377
 Translational            0.889              2.981             35.068
 Rotational               0.592              1.987             12.769
 Vibrational              2.902              0.757              0.188

 Normal termination of Gaussian 16 at Fri Aug 22 16:26:04 2025.
