 Gaussian 16, Revision C.01,
 Gaussian 16:  ES64L-G16RevC.01  3-Jul-2019

 -----------------------------------------
 # sp b3lyp/6-311g** Force nosymm scf=(qc)
 -----------------------------------------

 -------------------
 Title Card Required
 -------------------
 Symbolic Z-matrix:
 Charge =  0 Multiplicity = 2

                          Input orientation:
 ---------------------------------------------------------------------
 Center     Atomic      Atomic             Coordinates (Angstroms)
 Number     Number       Type             X           Y           Z
 ---------------------------------------------------------------------
      1          1           0        0.000000    0.000000    0.000000
      2          1           0       -2.550000    0.000000    0.000000
      3          9           0        2.100000    0.000000    0.000000
 ---------------------------------------------------------------------

 SCF Done:  E(UB3LYP) =  -100.784347162     a.u. after   23 cycles

 Alpha  occ. eigenvalues --  -24.68944  -1.15262  -0.47972  -0.40353  -0.40353
 Alpha  occ. eigenvalues --   -0.34515
 Alpha virt. eigenvalues --   -0.13417   0.24080   0.31658   0.89013   0.94789
 Alpha virt. eigenvalues --    0.94789   1.06307   1.23118   1.23118   1.25846
 Alpha virt. eigenvalues --    1.35750   1.35750   1.55411   2.14101   2.29888

  Beta  occ. eigenvalues --  -24.66432  -1.08203  -0.37869  -0.37869  -0.37173
  Beta virt. eigenvalues --   -0.21437  -0.09669   0.25026   0.34875   0.91881
  Beta virt. eigenvalues --    0.95694   0.95694   1.08744   1.21924   1.21924
  Beta virt. eigenvalues --    1.41657   1.41657   1.42492   1.48420   2.13189

 Mulliken charges and spin densities:
               1          2
     1  H    0.151598  -0.764430
     2  H    0.014715   0.973769
     3  F   -0.166314   0.790661
 Sum of Mulliken charges =   0.00000   1.00000

 Dipole moment (field-independent basis, Debye):
    X=             -1.9190    Y=              0.0000    Z=              0.0000  Tot=              1.9190
 Quadrupole moment (field-independent basis, Debye-Ang):
   XX=             -9.3857   YY=             -7.5421   ZZ=             -7.5421
   XY=              0.0000   XZ=              0.0000   YZ=             -0.0000

  Exact polarizability:      37.924       0.000       2.044       0.000      -0.000       2.044
 Approx polarizability:      45.473       0.000       1.937       0.000       0.000       1.937

 ******    2 imaginary frequencies (negative Signs) ******

                      1                      2                      3
                      A                      A                      A
 Frequencies --  -1074.4642              -371.7559               448.4243
 Red. masses --      1.0411                 1.0709                 1.0205
 Frc consts  --      0.7082                 0.0872                 0.1209
 IR Inten    --     90.1003                14.6081                19.2112

                      4
                      A
 Frequencies --    448.4243
 Red. masses --      1.0205
 Frc consts  --      0.1209
 IR Inten    --     19.2112

 - Thermochemistry -
 -------------------
 Temperature   298.150 Kelvin.  Pressure   1.00000 Atm.
 Atom     1 has atomic number  1 and mass   1.00783

 Molecular mass:    21.01405 amu.
 Principal axes and moments of inertia in atomic units:
                           1         2         3
     Eigenvalues --     0.00000  85.82679  85.82679
           X            1.00000  -0.00000   0.00000
           Y            0.00000   1.00000   0.00000
           Z            0.00000   0.00000   1.00000
 This molecule is a prolate symmetric top.
 Rotational symmetry number  1.
 Rotational temperature (Kelvin)      1.00917
 Rotational constant (GHZ):          21.027715
    2 imaginary frequencies ignored.
 Zero-point vibrational energy       5364.3 (Joules/Mol)
                                    1.28211 (Kcal/Mol)
 Warning -- explicit consideration of   2 degrees of freedom as
           vibrations may cause significant error
 Vibrational temperatures:    645.18   645.18
          (Kelvin)

 Zero-point correction=                           0.002043 (Hartree/Particle)
 Thermal correction to Energy=                    0.004934
 Thermal correction to Enthalpy=                  0.005878
 Thermal correction to Gibbs Free Energy=        -0.018514
 Sum of electronic and zero-point Energies=           -100.782304
 Sum of electronic and thermal Energies=              -100.779413
 Sum of electronic and thermal Enthalpies=            -100.778469
 Sum of electronic and thermal Free Energies=         -100.802861

                     E (Thermal)             CV                S
                      KCal/Mol        Cal/Mol-Kelvin    Cal/Mol-Kelvin
 Total                    3.096              7.697             51.338
 Electronic               0.000              0.000              1.377
 Translational            0.889              2.981             35.068
 Rotational               0.592              1.987             13.291
 Vibrational              1.615              2.729              1.601
 Vibration     1          0.807              1.364              0.801
 Vibration     2          0.807              1.364              0.801

 Normal termination of Gaussian 16 at Fri Aug 22 17:04:21 2025.
