 Gaussian 16, Revision C.01,
 Gaussian 16:  ES64L-G16RevC.01  3-Jul-2019

 -----------------------------------------
 # sp b3lyp/6-311g** Force nosymm scf=(qc)
 -----------------------------------------

 -------------------
 Title Card Required
 -------------------
 Symbolic Z-matrix:
 Charge =  0 Multiplicity = 2

                          Input orientation:
 ---------------------------------------------------------------------
 Center     Atomic      Atomic             Coordinates (Angstroms)
 Number     Number       Type             X           Y           Z
 ---------------------------------------------------------------------
      1          1           0        0.000000    0.000000    0.000000
      2          1           0       -3.950000    0.000000    0.000000
      3          9           0        1.850000    0.000000    0.000000
 ---------------------------------------------------------------------

 SCF Done:  E(UB3LYP) =  -100.799112544     a.u. after   16 cycles

 Alpha  occ. eigenvalues --  -24.64958  -1.07577  -0.38981  -0.36702  -0.36702
 Alpha  occ. eigenvalues --   -0.33306
 Alpha virt. eigenvalues --   -0.19648   0.19863   0.26574   0.92025   0.94999
 Alpha virt. eigenvalues --    0.94999   1.07935   1.23116   1.23116   1.24163
 Alpha virt. eigenvalues --    1.24189   1.24189   1.61960   2.10397   2.15367

  Beta  occ. eigenvalues --  -24.67006  -1.13241  -0.45848  -0.38705  -0.38705
  Beta virt. eigenvalues --   -0.14893  -0.04875   0.27054   0.39331   0.91389
  Beta virt. eigenvalues --    0.94837   0.94837   1.05647   1.34074   1.34074
  Beta virt. eigenvalues --    1.47158   1.47158   1.47363   1.67552   2.26219

 Mulliken charges and spin densities:
               1          2
     1  H    0.240150   0.644259
     2  H    0.000477   0.999536
     3  F   -0.240627  -0.643795
 Sum of Mulliken charges =   0.00000   1.00000

 Dipole moment (field-independent basis, Debye):
    X=             -2.1876    Y=              0.0000    Z=              0.0000  Tot=              2.1876
 Quadrupole moment (field-independent basis, Debye-Ang):
   XX=            -10.2498   YY=             -7.4458   ZZ=             -7.4458
   XY=              0.0000   XZ=              0.0000   YZ=              0.0000

  Exact polarizability:      22.910       0.000       2.087      -0.000       0.000       2.087
 Approx polarizability:      35.861       0.000       1.974      -0.000      -0.000       1.974

 ******    1 imaginary frequencies (negative Signs) ******

                      1                      2                      3
                      A                      A                      A
 Frequencies --  -1403.7565                31.0528               608.9287
 Red. masses --      1.0585                 1.0531                 1.0291
 Frc consts  --      1.2289                 0.0006                 0.2248
 IR Inten    --    132.8628                 0.0414                54.7638

                      4
                      A
 Frequencies --    608.9287
 Red. masses --      1.0291
 Frc consts  --      0.2248
 IR Inten    --     54.7638

 - Thermochemistry -
 -------------------
 Temperature   298.150 Kelvin.  Pressure   1.00000 Atm.
 Atom     1 has atomic number  1 and mass   1.00783

 Molecular mass:    21.01405 amu.
 Principal axes and moments of inertia in atomic units:
                           1         2         3
     Eigenvalues --     0.00000 123.28687 123.28687
           X            1.00000  -0.00000   0.00000
           Y            0.00000   1.00000   0.00000
           Z            0.00000   0.00000   1.00000
 This molecule is a prolate symmetric top.
 Rotational symmetry number  1.
 Rotational temperature (Kelvin)      0.70254
 Rotational constant (GHZ):          14.638552
    1 imaginary frequencies ignored.
 Zero-point vibrational energy       7470.1 (Joules/Mol)
                                    1.78541 (Kcal/Mol)
 Warning -- explicit consideration of   3 degrees of freedom as
           vibrations may cause significant error
 Vibrational temperatures:     44.68   876.11   876.11
          (Kelvin)

 Zero-point correction=                           0.002845 (Hartree/Particle)
 Thermal correction to Energy=                    0.006391
 Thermal correction to Enthalpy=                  0.007335
 Thermal correction to Gibbs Free Energy=        -0.019788
 Sum of electronic and zero-point Energies=           -100.796267
 Sum of electronic and thermal Energies=              -100.792721
 Sum of electronic and thermal Enthalpies=            -100.791777
 Sum of electronic and thermal Free Energies=         -100.818901

                     E (Thermal)             CV                S
                      KCal/Mol        Cal/Mol-Kelvin    Cal/Mol-Kelvin
 Total                    4.010              8.977             57.087
 Electronic               0.000              0.000              1.377
 Translational            0.889              2.981             35.068
 Rotational               0.592              1.987             14.011
 Vibrational              2.529              4.009              6.630
 Vibration     1          0.594              1.983              5.761
 Vibration     2          0.968              1.013              0.435
 Vibration     3          0.968              1.013              0.435

 Normal termination of Gaussian 16 at Fri Aug 22 16:48:38 2025.
