 Gaussian 16, Revision C.01,
 Gaussian 16:  ES64L-G16RevC.01  3-Jul-2019

 -----------------------------------------
 # sp b3lyp/6-311g** Force nosymm scf=(qc)
 -----------------------------------------

 -------------------
 Title Card Required
 -------------------
 Symbolic Z-matrix:
 Charge =  0 Multiplicity = 2

                          Input orientation:
 ---------------------------------------------------------------------
 Center     Atomic      Atomic             Coordinates (Angstroms)
 Number     Number       Type             X           Y           Z
 ---------------------------------------------------------------------
      1          1           0        0.000000    0.000000    0.000000
      2          1           0       -3.750000    0.000000    0.000000
      3          9           0        2.950000    0.000000    0.000000
 ---------------------------------------------------------------------

 SCF Done:  E(UB3LYP) =  -100.761271652     a.u. after   21 cycles

 Alpha  occ. eigenvalues --  -24.73892  -1.19967  -0.53011  -0.44513  -0.44513
 Alpha  occ. eigenvalues --   -0.32515
 Alpha virt. eigenvalues --   -0.08086   0.23859   0.36151   0.89506   0.92391
 Alpha virt. eigenvalues --    0.92391   1.04165   1.24985   1.24985   1.25043
 Alpha virt. eigenvalues --    1.43988   1.43988   1.44514   2.14499   2.40260

  Beta  occ. eigenvalues --  -24.70878  -1.11334  -0.41497  -0.41497  -0.33854
  Beta virt. eigenvalues --   -0.24663  -0.06207   0.23810   0.38082   0.93848
  Beta virt. eigenvalues --    0.93848   0.98103   1.07819   1.23465   1.23465
  Beta virt. eigenvalues --    1.24038   1.46277   1.46478   1.46478   2.14491

 Mulliken charges and spin densities:
               1          2
     1  H    0.040871  -0.953761
     2  H    0.000253   0.998887
     3  F   -0.041125   0.954874
 Sum of Mulliken charges =  -0.00000   1.00000

 Dipole moment (field-independent basis, Debye):
    X=             -0.6273    Y=              0.0000    Z=             -0.0000  Tot=              0.6273
 Quadrupole moment (field-independent basis, Debye-Ang):
   XX=             -8.4353   YY=             -7.6041   ZZ=             -7.6041
   XY=             -0.0000   XZ=              0.0000   YZ=             -0.0000

  Exact polarizability:      31.420      -0.000       2.026       0.000       0.000       2.026
 Approx polarizability:      33.060      -0.000       1.926       0.000      -0.000       1.926

 ******    2 imaginary frequencies (negative Signs) ******

                      1                      2                      3
                      A                      A                      A
 Frequencies --   -387.2878               -90.9646               136.6133
 Red. masses --      1.0522                 1.0594                 1.0211
 Frc consts  --      0.0930                 0.0052                 0.0112
 IR Inten    --     43.1375                 0.1944                 1.5954

                      4
                      A
 Frequencies --    136.6133
 Red. masses --      1.0211
 Frc consts  --      0.0112
 IR Inten    --      1.5954

 - Thermochemistry -
 -------------------
 Temperature   298.150 Kelvin.  Pressure   1.00000 Atm.
 Atom     1 has atomic number  1 and mass   1.00783

 Molecular mass:    21.01405 amu.
 Principal axes and moments of inertia in atomic units:
                           1         2         3
     Eigenvalues --     0.00000 176.80628 176.80628
           X            1.00000  -0.00000   0.00000
           Y            0.00000   1.00000   0.00000
           Z            0.00000   0.00000   1.00000
 This molecule is a prolate symmetric top.
 Rotational symmetry number  1.
 Rotational temperature (Kelvin)      0.48988
 Rotational constant (GHZ):          10.207450
    2 imaginary frequencies ignored.
 Zero-point vibrational energy       1634.3 (Joules/Mol)
                                    0.39060 (Kcal/Mol)
 Warning -- explicit consideration of   2 degrees of freedom as
           vibrations may cause significant error
 Vibrational temperatures:    196.56   196.56
          (Kelvin)

 Zero-point correction=                           0.000622 (Hartree/Particle)
 Thermal correction to Energy=                    0.004317
 Thermal correction to Enthalpy=                  0.005261
 Thermal correction to Gibbs Free Energy=        -0.021762
 Sum of electronic and zero-point Energies=           -100.760649
 Sum of electronic and thermal Energies=              -100.756955
 Sum of electronic and thermal Enthalpies=            -100.756011
 Sum of electronic and thermal Free Energies=         -100.783034

                     E (Thermal)             CV                S
                      KCal/Mol        Cal/Mol-Kelvin    Cal/Mol-Kelvin
 Total                    2.709              8.802             56.875
 Electronic               0.000              0.000              1.377
 Translational            0.889              2.981             35.068
 Rotational               0.592              1.987             14.728
 Vibrational              1.228              3.834              5.702
 Vibration     1          0.614              1.917              2.851
 Vibration     2          0.614              1.917              2.851

 Normal termination of Gaussian 16 at Fri Aug 22 19:19:14 2025.
