 Gaussian 16, Revision C.01,
 Gaussian 16:  ES64L-G16RevC.01  3-Jul-2019

 -----------------------------------------
 # sp b3lyp/6-311g** Force nosymm scf=(qc)
 -----------------------------------------

 -------------------
 Title Card Required
 -------------------
 Symbolic Z-matrix:
 Charge =  0 Multiplicity = 2

                          Input orientation:
 ---------------------------------------------------------------------
 Center     Atomic      Atomic             Coordinates (Angstroms)
 Number     Number       Type             X           Y           Z
 ---------------------------------------------------------------------
      1          1           0        0.000000    0.000000    0.000000
      2          1           0       -2.300000    0.000000    0.000000
      3          9           0        0.800000    0.000000    0.000000
 ---------------------------------------------------------------------

 SCF Done:  E(UB3LYP) =  -100.950565567     a.u. after    6 cycles

 Alpha  occ. eigenvalues --  -24.63563  -1.22941  -0.56171  -0.40546  -0.40546
 Alpha  occ. eigenvalues --   -0.34998
 Alpha virt. eigenvalues --    0.07212   0.25151   0.45429   0.94300   0.94300
 Alpha virt. eigenvalues --    0.96790   1.16305   1.22547   1.22547   1.39924
 Alpha virt. eigenvalues --    1.39924   1.45845   2.01137   2.15484   2.53120

  Beta  occ. eigenvalues --  -24.63543  -1.22887  -0.56081  -0.40530  -0.40530
  Beta virt. eigenvalues --   -0.09711   0.08845   0.36996   0.45282   0.94301
  Beta virt. eigenvalues --    0.94301   0.97054   1.26509   1.39833   1.39833
  Beta virt. eigenvalues --    1.43740   1.43740   1.57664   2.02097   2.42041

 Mulliken charges and spin densities:
               1          2
     1  H    0.267460   0.005202
     2  H    0.007232   0.989048
     3  F   -0.274692   0.005750
 Sum of Mulliken charges =   0.00000   1.00000

 Dipole moment (field-independent basis, Debye):
    X=             -1.8196    Y=             -0.0000    Z=             -0.0000  Tot=              1.8196
 Quadrupole moment (field-independent basis, Debye-Ang):
   XX=             -7.3566   YY=             -6.7544   ZZ=             -6.7544
   XY=             -0.0000   XZ=             -0.0000   YZ=             -0.0000

  Exact polarizability:       6.817       0.000       2.481      -0.000       0.000       2.481
 Approx polarizability:       7.064       0.000       2.468       0.000       0.000       2.468

 ******    2 imaginary frequencies (negative Signs) ******

                      1                      2                      3
                      A                      A                      A
 Frequencies --  -1954.9642             -1954.9642               147.0665
 Red. masses --      1.0339                 1.0339                 1.0532
 Frc consts  --      2.3282                 2.3282                 0.0134
 IR Inten    --    175.4737               175.4737                 0.4994

                      4
                      A
 Frequencies --   6344.4424
 Red. masses --      1.0583
 Frc consts  --     25.0995
 IR Inten    --    137.7390

 - Thermochemistry -
 -------------------
 Temperature   298.150 Kelvin.  Pressure   1.00000 Atm.
 Atom     1 has atomic number  1 and mass   1.00783

 Molecular mass:    21.01405 amu.
 Principal axes and moments of inertia in atomic units:
                           1         2         3
     Eigenvalues --     0.00000  34.26449  34.26449
           X            1.00000  -0.00000   0.00000
           Y            0.00000   1.00000   0.00000
           Z            0.00000   0.00000   1.00000
 This molecule is a prolate symmetric top.
 Rotational symmetry number  1.
 Rotational temperature (Kelvin)      2.52780
 Rotational constant (GHZ):          52.670896
    2 imaginary frequencies ignored.
 Zero-point vibrational energy      38827.8 (Joules/Mol)
                                    9.28008 (Kcal/Mol)
 Warning -- explicit consideration of   1 degrees of freedom as
           vibrations may cause significant error
 Vibrational temperatures:    211.60  9128.24
          (Kelvin)

 Zero-point correction=                           0.014789 (Hartree/Particle)
 Thermal correction to Energy=                    0.017798
 Thermal correction to Enthalpy=                  0.018742
 Thermal correction to Gibbs Free Energy=        -0.005310
 Sum of electronic and zero-point Energies=           -100.935777
 Sum of electronic and thermal Energies=              -100.932768
 Sum of electronic and thermal Enthalpies=            -100.931824
 Sum of electronic and thermal Free Energies=         -100.955876

                     E (Thermal)             CV                S
                      KCal/Mol        Cal/Mol-Kelvin    Cal/Mol-Kelvin
 Total                   11.168              6.874             50.622
 Electronic               0.000              0.000              1.377
 Translational            0.889              2.981             35.068
 Rotational               0.592              1.987             11.467
 Vibrational              9.687              1.906              2.710
 Vibration     1          0.617              1.906              2.710

 Normal termination of Gaussian 16 at Fri Aug 22 15:51:18 2025.
