 Gaussian 16, Revision C.01,
 Gaussian 16:  ES64L-G16RevC.01  3-Jul-2019

 -----------------------------------------
 # sp b3lyp/6-311g** Force nosymm scf=(qc)
 -----------------------------------------

 -------------------
 Title Card Required
 -------------------
 Symbolic Z-matrix:
 Charge =  0 Multiplicity = 2

                          Input orientation:
 ---------------------------------------------------------------------
 Center     Atomic      Atomic             Coordinates (Angstroms)
 Number     Number       Type             X           Y           Z
 ---------------------------------------------------------------------
      1          1           0        0.000000    0.000000    0.000000
      2          1           0       -2.500000    0.000000    0.000000
      3          9           0        2.750000    0.000000    0.000000
 ---------------------------------------------------------------------

 SCF Done:  E(UB3LYP) =  -100.767102342     a.u. after   21 cycles

 Alpha  occ. eigenvalues --  -24.73102  -1.19226  -0.52214  -0.43846  -0.43846
 Alpha  occ. eigenvalues --   -0.33390
 Alpha virt. eigenvalues --   -0.11122   0.25119   0.33390   0.90215   0.92864
 Alpha virt. eigenvalues --    0.92864   1.05517   1.24262   1.24262   1.26562
 Alpha virt. eigenvalues --    1.38995   1.38995   1.41457   2.15063   2.35468

  Beta  occ. eigenvalues --  -24.70148  -1.10782  -0.40893  -0.40893  -0.34456
  Beta virt. eigenvalues --   -0.24219  -0.09410   0.25696   0.34759   0.94298
  Beta virt. eigenvalues --    0.94298   0.98480   1.09176   1.23041   1.23041
  Beta virt. eigenvalues --    1.26069   1.41754   1.41754   1.43469   2.15624

 Mulliken charges and spin densities:
               1          2
     1  H    0.049772  -0.905864
     2  H    0.008046   0.970709
     3  F   -0.057818   0.935155
 Sum of Mulliken charges =  -0.00000   1.00000

 Dipole moment (field-independent basis, Debye):
    X=             -0.9100    Y=             -0.0000    Z=             -0.0000  Tot=              0.9100
 Quadrupole moment (field-independent basis, Debye-Ang):
   XX=             -8.3971   YY=             -7.6363   ZZ=             -7.6363
   XY=             -0.0000   XZ=             -0.0000   YZ=             -0.0000

  Exact polarizability:      44.817      -0.000       2.013      -0.000      -0.000       2.013
 Approx polarizability:      44.509      -0.000       1.919      -0.000       0.000       1.919

 ******    2 imaginary frequencies (negative Signs) ******

                      1                      2                      3
                      A                      A                      A
 Frequencies --   -743.9952              -289.5700               284.9266
 Red. masses --      1.0135                 1.1018                 1.0168
 Frc consts  --      0.3305                 0.0544                 0.0486
 IR Inten    --     36.3567                24.0705                 1.9801

                      4
                      A
 Frequencies --    284.9266
 Red. masses --      1.0168
 Frc consts  --      0.0486
 IR Inten    --      1.9801

 - Thermochemistry -
 -------------------
 Temperature   298.150 Kelvin.  Pressure   1.00000 Atm.
 Atom     1 has atomic number  1 and mass   1.00783

 Molecular mass:    21.01405 amu.
 Principal axes and moments of inertia in atomic units:
                           1         2         3
     Eigenvalues --     0.00000 115.36833 115.36833
           X            1.00000  -0.00000   0.00000
           Y            0.00000   1.00000   0.00000
           Z            0.00000   0.00000   1.00000
 This molecule is a prolate symmetric top.
 Rotational symmetry number  1.
 Rotational temperature (Kelvin)      0.75076
 Rotational constant (GHZ):          15.643298
    2 imaginary frequencies ignored.
 Zero-point vibrational energy       3408.5 (Joules/Mol)
                                    0.81465 (Kcal/Mol)
 Warning -- explicit consideration of   2 degrees of freedom as
           vibrations may cause significant error
 Vibrational temperatures:    409.95   409.95
          (Kelvin)

 Zero-point correction=                           0.001298 (Hartree/Particle)
 Thermal correction to Energy=                    0.004537
 Thermal correction to Enthalpy=                  0.005482
 Thermal correction to Gibbs Free Energy=        -0.019858
 Sum of electronic and zero-point Energies=           -100.765804
 Sum of electronic and thermal Energies=              -100.762565
 Sum of electronic and thermal Enthalpies=            -100.761621
 Sum of electronic and thermal Free Energies=         -100.786961

                     E (Thermal)             CV                S
                      KCal/Mol        Cal/Mol-Kelvin    Cal/Mol-Kelvin
 Total                    2.847              8.371             53.332
 Electronic               0.000              0.000              1.377
 Translational            0.889              2.981             35.068
 Rotational               0.592              1.987             13.879
 Vibrational              1.366              3.403              3.008
 Vibration     1          0.683              1.702              1.504
 Vibration     2          0.683              1.702              1.504

 Normal termination of Gaussian 16 at Fri Aug 22 18:34:09 2025.
