 Gaussian 16, Revision C.01,
 Gaussian 16:  ES64L-G16RevC.01  3-Jul-2019

 -----------------------------------------
 # sp b3lyp/6-311g** Force nosymm scf=(qc)
 -----------------------------------------

 -------------------
 Title Card Required
 -------------------
 Symbolic Z-matrix:
 Charge =  0 Multiplicity = 2

                          Input orientation:
 ---------------------------------------------------------------------
 Center     Atomic      Atomic             Coordinates (Angstroms)
 Number     Number       Type             X           Y           Z
 ---------------------------------------------------------------------
      1          1           0        0.000000    0.000000    0.000000
      2          1           0       -2.700000    0.000000    0.000000
      3          9           0        3.250000    0.000000    0.000000
 ---------------------------------------------------------------------

 SCF Done:  E(UB3LYP) =  -100.761966817     a.u. after   25 cycles

 Alpha  occ. eigenvalues --  -24.74902  -1.20900  -0.54022  -0.45359  -0.45359
 Alpha  occ. eigenvalues --   -0.32701
 Alpha virt. eigenvalues --   -0.09289   0.25306   0.34521   0.88522   0.91779
 Alpha virt. eigenvalues --    0.91779   1.02650   1.24887   1.24887   1.26327
 Alpha virt. eigenvalues --    1.41897   1.41897   1.42579   2.15846   2.38063

  Beta  occ. eigenvalues --  -24.71821  -1.12054  -0.42272  -0.42272  -0.33279
  Beta virt. eigenvalues --   -0.25237  -0.08441   0.25166   0.35673   0.93258
  Beta virt. eigenvalues --    0.93258   0.97511   1.06600   1.24197   1.24197
  Beta virt. eigenvalues --    1.25520   1.43258   1.43258   1.43897   2.16536

 Mulliken charges and spin densities:
               1          2
     1  H    0.018626  -0.960039
     2  H    0.002269   0.983207
     3  F   -0.020895   0.976832
 Sum of Mulliken charges =  -0.00000   1.00000

 Dipole moment (field-independent basis, Debye):
    X=             -0.3780    Y=             -0.0000    Z=             -0.0000  Tot=              0.3780
 Quadrupole moment (field-independent basis, Debye-Ang):
   XX=             -7.6046   YY=             -7.6456   ZZ=             -7.6456
   XY=             -0.0000   XZ=             -0.0000   YZ=              0.0000

  Exact polarizability:      35.947      -0.000       2.022      -0.000      -0.000       2.022
 Approx polarizability:      29.904      -0.000       1.927      -0.000      -0.000       1.927

 ******    2 imaginary frequencies (negative Signs) ******

                      1                      2                      3
                      A                      A                      A
 Frequencies --   -530.9496              -178.9227               193.0081
 Red. masses --      1.0099                 1.1060                 1.0159
 Frc consts  --      0.1677                 0.0209                 0.0223
 IR Inten    --     14.5159                10.1422                 0.2797

                      4
                      A
 Frequencies --    193.0081
 Red. masses --      1.0159
 Frc consts  --      0.0223
 IR Inten    --      0.2797

 - Thermochemistry -
 -------------------
 Temperature   298.150 Kelvin.  Pressure   1.00000 Atm.
 Atom     1 has atomic number  1 and mass   1.00783

 Molecular mass:    21.01405 amu.
 Principal axes and moments of inertia in atomic units:
                           1         2         3
     Eigenvalues --     0.00000 150.81898 150.81898
           X            1.00000  -0.00000   0.00000
           Y            0.00000   1.00000   0.00000
           Z            0.00000   0.00000   1.00000
 This molecule is a prolate symmetric top.
 Rotational symmetry number  1.
 Rotational temperature (Kelvin)      0.57429
 Rotational constant (GHZ):          11.966274
    2 imaginary frequencies ignored.
 Zero-point vibrational energy       2308.9 (Joules/Mol)
                                    0.55184 (Kcal/Mol)
 Warning -- explicit consideration of   2 degrees of freedom as
           vibrations may cause significant error
 Vibrational temperatures:    277.70   277.70
          (Kelvin)

 Zero-point correction=                           0.000879 (Hartree/Particle)
 Thermal correction to Energy=                    0.004383
 Thermal correction to Enthalpy=                  0.005328
 Thermal correction to Gibbs Free Energy=        -0.020926
 Sum of electronic and zero-point Energies=           -100.761087
 Sum of electronic and thermal Energies=              -100.757583
 Sum of electronic and thermal Enthalpies=            -100.756639
 Sum of electronic and thermal Free Energies=         -100.782892

                     E (Thermal)             CV                S
                      KCal/Mol        Cal/Mol-Kelvin    Cal/Mol-Kelvin
 Total                    2.751              8.667             55.255
 Electronic               0.000              0.000              1.377
 Translational            0.889              2.981             35.068
 Rotational               0.592              1.987             14.412
 Vibrational              1.269              3.699              4.397
 Vibration     1          0.635              1.850              2.199
 Vibration     2          0.635              1.850              2.199

 Normal termination of Gaussian 16 at Fri Aug 22 20:35:16 2025.
