 Gaussian 16, Revision C.01,
 Gaussian 16:  ES64L-G16RevC.01  3-Jul-2019

 -----------------------------------------
 # sp b3lyp/6-311g** Force nosymm scf=(qc)
 -----------------------------------------

 -------------------
 Title Card Required
 -------------------
 Symbolic Z-matrix:
 Charge =  0 Multiplicity = 2

                          Input orientation:
 ---------------------------------------------------------------------
 Center     Atomic      Atomic             Coordinates (Angstroms)
 Number     Number       Type             X           Y           Z
 ---------------------------------------------------------------------
      1          1           0        0.000000    0.000000    0.000000
      2          1           0       -3.350000    0.000000    0.000000
      3          9           0        2.000000    0.000000    0.000000
 ---------------------------------------------------------------------

 SCF Done:  E(UB3LYP) =  -100.787422873     a.u. after   15 cycles

 Alpha  occ. eigenvalues --  -24.68239  -1.14557  -0.47219  -0.39770  -0.39770
 Alpha  occ. eigenvalues --   -0.33563
 Alpha virt. eigenvalues --   -0.13709   0.22449   0.31947   0.88998   0.94850
 Alpha virt. eigenvalues --    0.94850   1.05760   1.23957   1.23957   1.24170
 Alpha virt. eigenvalues --    1.35419   1.35419   1.60447   2.14117   2.29561

  Beta  occ. eigenvalues --  -24.65867  -1.07927  -0.37930  -0.37432  -0.37432
  Beta virt. eigenvalues --   -0.20755  -0.07302   0.22800   0.37654   0.90428
  Beta virt. eigenvalues --    0.95487   0.95487   1.08181   1.21976   1.21976
  Beta virt. eigenvalues --    1.44938   1.45481   1.45481   1.53563   2.12129

 Mulliken charges and spin densities:
               1          2
     1  H    0.191207  -0.742538
     2  H    0.002368   0.996553
     3  F   -0.193576   0.745985
 Sum of Mulliken charges =  -0.00000   1.00000

 Dipole moment (field-independent basis, Debye):
    X=             -1.9512    Y=              0.0000    Z=             -0.0000  Tot=              1.9512
 Quadrupole moment (field-independent basis, Debye-Ang):
   XX=             -9.9768   YY=             -7.4918   ZZ=             -7.4918
   XY=              0.0000   XZ=             -0.0000   YZ=              0.0000

  Exact polarizability:      26.730       0.000       2.061      -0.000       0.000       2.061
 Approx polarizability:      37.896      -0.000       1.947       0.000      -0.000       1.947

 ******    2 imaginary frequencies (negative Signs) ******

                      1                      2                      3
                      A                      A                      A
 Frequencies --  -1134.0343              -143.8128               479.5240
 Red. masses --      1.0565                 1.0550                 1.0252
 Frc consts  --      0.8005                 0.0129                 0.1389
 IR Inten    --    120.0608                 0.5209                33.8921

                      4
                      A
 Frequencies --    479.5240
 Red. masses --      1.0252
 Frc consts  --      0.1389
 IR Inten    --     33.8921

 - Thermochemistry -
 -------------------
 Temperature   298.150 Kelvin.  Pressure   1.00000 Atm.
 Atom     1 has atomic number  1 and mass   1.00783

 Molecular mass:    21.01405 amu.
 Principal axes and moments of inertia in atomic units:
                           1         2         3
     Eigenvalues --     0.00000 108.08400 108.08400
           X            1.00000  -0.00000   0.00000
           Y            0.00000   1.00000   0.00000
           Z            0.00000   0.00000   1.00000
 This molecule is a prolate symmetric top.
 Rotational symmetry number  1.
 Rotational temperature (Kelvin)      0.80136
 Rotational constant (GHZ):          16.697580
    2 imaginary frequencies ignored.
 Zero-point vibrational energy       5736.4 (Joules/Mol)
                                    1.37103 (Kcal/Mol)
 Warning -- explicit consideration of   2 degrees of freedom as
           vibrations may cause significant error
 Vibrational temperatures:    689.93   689.93
          (Kelvin)

 Zero-point correction=                           0.002185 (Hartree/Particle)
 Thermal correction to Energy=                    0.005025
 Thermal correction to Enthalpy=                  0.005969
 Thermal correction to Gibbs Free Energy=        -0.018556
 Sum of electronic and zero-point Energies=           -100.785238
 Sum of electronic and thermal Energies=              -100.782398
 Sum of electronic and thermal Enthalpies=            -100.781454
 Sum of electronic and thermal Free Energies=         -100.805979

                     E (Thermal)             CV                S
                      KCal/Mol        Cal/Mol-Kelvin    Cal/Mol-Kelvin
 Total                    3.153              7.559             51.618
 Electronic               0.000              0.000              1.377
 Translational            0.889              2.981             35.068
 Rotational               0.592              1.987             13.750
 Vibrational              1.672              2.591              1.423
 Vibration     1          0.836              1.295              0.711
 Vibration     2          0.836              1.295              0.711

 Normal termination of Gaussian 16 at Fri Aug 22 16:57:40 2025.
