 Gaussian 16, Revision C.01,
 Gaussian 16:  ES64L-G16RevC.01  3-Jul-2019

 -----------------------------------------
 # sp b3lyp/6-311g** Force nosymm scf=(qc)
 -----------------------------------------

 -------------------
 Title Card Required
 -------------------
 Symbolic Z-matrix:
 Charge =  0 Multiplicity = 2

                          Input orientation:
 ---------------------------------------------------------------------
 Center     Atomic      Atomic             Coordinates (Angstroms)
 Number     Number       Type             X           Y           Z
 ---------------------------------------------------------------------
      1          1           0        0.000000    0.000000    0.000000
      2          1           0       -3.150000    0.000000    0.000000
      3          9           0        1.550000    0.000000    0.000000
 ---------------------------------------------------------------------

 SCF Done:  E(UB3LYP) =  -100.844206974     a.u. after    7 cycles

 Alpha  occ. eigenvalues --  -24.64409  -1.09746  -0.42899  -0.36394  -0.36394
 Alpha  occ. eigenvalues --   -0.34436
 Alpha virt. eigenvalues --   -0.15226   0.20819   0.27814   0.93888   0.93888
 Alpha virt. eigenvalues --    1.02530   1.08030   1.23079   1.23079   1.23393
 Alpha virt. eigenvalues --    1.31105   1.31105   1.73926   2.13657   2.18856

  Beta  occ. eigenvalues --  -24.64128  -1.08997  -0.42268  -0.36126  -0.36126
  Beta virt. eigenvalues --   -0.16192  -0.07382   0.23299   0.37504   0.93764
  Beta virt. eigenvalues --    0.93764   1.03070   1.07960   1.29621   1.29621
  Beta virt. eigenvalues --    1.44764   1.45190   1.45190   1.73304   2.16654

 Mulliken charges and spin densities:
               1          2
     1  H    0.340282  -0.083810
     2  H    0.004842   0.994742
     3  F   -0.345124   0.089069
 Sum of Mulliken charges =  -0.00000   1.00000

 Dipole moment (field-independent basis, Debye):
    X=             -2.6952    Y=             -0.0000    Z=             -0.0000  Tot=              2.6952
 Quadrupole moment (field-independent basis, Debye-Ang):
   XX=             -9.9201   YY=             -7.3502   ZZ=             -7.3502
   XY=             -0.0000   XZ=             -0.0000   YZ=             -0.0000

  Exact polarizability:      19.034      -0.000       2.167       0.000       0.000       2.167
 Approx polarizability:      33.993      -0.000       2.089       0.000       0.000       2.089

 ******    2 imaginary frequencies (negative Signs) ******

                      1                      2                      3
                      A                      A                      A
 Frequencies --  -1548.7915              -133.4817               967.6570
 Red. masses --      1.0557                 1.0558                 1.0283
 Frc consts  --      1.4920                 0.0111                 0.5673
 IR Inten    --      4.8049                 0.7625               108.4100

                      4
                      A
 Frequencies --    967.6570
 Red. masses --      1.0283
 Frc consts  --      0.5673
 IR Inten    --    108.4100

 - Thermochemistry -
 -------------------
 Temperature   298.150 Kelvin.  Pressure   1.00000 Atm.
 Atom     1 has atomic number  1 and mass   1.00783

 Molecular mass:    21.01405 amu.
 Principal axes and moments of inertia in atomic units:
                           1         2         3
     Eigenvalues --     0.00000  81.40626  81.40626
           X            1.00000  -0.00000   0.00000
           Y            0.00000   1.00000   0.00000
           Z            0.00000   0.00000   1.00000
 This molecule is a prolate symmetric top.
 Rotational symmetry number  1.
 Rotational temperature (Kelvin)      1.06397
 Rotational constant (GHZ):          22.169563
    2 imaginary frequencies ignored.
 Zero-point vibrational energy      11575.7 (Joules/Mol)
                                    2.76667 (Kcal/Mol)
 Vibrational temperatures:   1392.24  1392.24
          (Kelvin)

 Zero-point correction=                           0.004409 (Hartree/Particle)
 Thermal correction to Energy=                    0.006853
 Thermal correction to Enthalpy=                  0.007797
 Thermal correction to Gibbs Free Energy=        -0.015886
 Sum of electronic and zero-point Energies=           -100.839798
 Sum of electronic and thermal Energies=              -100.837354
 Sum of electronic and thermal Enthalpies=            -100.836410
 Sum of electronic and thermal Free Energies=         -100.860093

                     E (Thermal)             CV                S
                      KCal/Mol        Cal/Mol-Kelvin    Cal/Mol-Kelvin
 Total                    4.300              5.796             49.845
 Electronic               0.000              0.000              1.377
 Translational            0.889              2.981             35.068
 Rotational               0.592              1.987             13.186
 Vibrational              2.819              0.828              0.213

 Normal termination of Gaussian 16 at Fri Aug 22 16:29:13 2025.
