 Gaussian 16, Revision C.01,
 Gaussian 16:  ES64L-G16RevC.01  3-Jul-2019

 -----------------------------------------
 # sp b3lyp/6-311g** Force nosymm scf=(qc)
 -----------------------------------------

 -------------------
 Title Card Required
 -------------------
 Symbolic Z-matrix:
 Charge =  0 Multiplicity = 2

                          Input orientation:
 ---------------------------------------------------------------------
 Center     Atomic      Atomic             Coordinates (Angstroms)
 Number     Number       Type             X           Y           Z
 ---------------------------------------------------------------------
      1          1           0        0.000000    0.000000    0.000000
      2          1           0       -3.100000    0.000000    0.000000
      3          9           0        1.050000    0.000000    0.000000
 ---------------------------------------------------------------------

 SCF Done:  E(UB3LYP) =  -100.958369887     a.u. after    6 cycles

 Alpha  occ. eigenvalues --  -24.64220  -1.14853  -0.50595  -0.38410  -0.38410
 Alpha  occ. eigenvalues --   -0.34143
 Alpha virt. eigenvalues --   -0.00719   0.24307   0.32446   0.93832   0.93832
 Alpha virt. eigenvalues --    0.99081   1.23105   1.23384   1.23384   1.30590
 Alpha virt. eigenvalues --    1.35556   1.35556   1.84876   2.14308   2.33253

  Beta  occ. eigenvalues --  -24.64214  -1.14838  -0.50576  -0.38405  -0.38405
  Beta virt. eigenvalues --   -0.07508   0.00474   0.31838   0.38456   0.93833
  Beta virt. eigenvalues --    0.93833   0.99088   1.29782   1.35548   1.35548
  Beta virt. eigenvalues --    1.47982   1.47982   1.48805   1.84979   2.33221

 Mulliken charges and spin densities:
               1          2
     1  H    0.329704   0.000971
     2  H    0.002407   0.997036
     3  F   -0.332111   0.001993
 Sum of Mulliken charges =   0.00000   1.00000

 Dipole moment (field-independent basis, Debye):
    X=             -2.1268    Y=              0.0000    Z=              0.0000  Tot=              2.1268
 Quadrupole moment (field-independent basis, Debye-Ang):
   XX=             -8.3030   YY=             -7.0057   ZZ=             -7.0057
   XY=              0.0000   XZ=              0.0000   YZ=             -0.0000

  Exact polarizability:       7.993      -0.000       2.389       0.000      -0.000       2.389
 Approx polarizability:       9.849       0.000       2.359      -0.000      -0.000       2.359

 ******    1 imaginary frequencies (negative Signs) ******

                      1                      2                      3
                      A                      A                      A
 Frequencies --    -75.4901              1114.9761              1114.9761
 Red. masses --      1.0531                 1.0343                 1.0343
 Frc consts  --      0.0035                 0.7576                 0.7576
 IR Inten    --      0.2318               159.1606               159.1606

                      4
                      A
 Frequencies --   2449.3022
 Red. masses --      1.0585
 Frc consts  --      3.7413
 IR Inten    --     92.1755

 - Thermochemistry -
 -------------------
 Temperature   298.150 Kelvin.  Pressure   1.00000 Atm.
 Atom     1 has atomic number  1 and mass   1.00783

 Molecular mass:    21.01405 amu.
 Principal axes and moments of inertia in atomic units:
                           1         2         3
     Eigenvalues --     0.00000  61.28454  61.28454
           X            1.00000  -0.00000   0.00000
           Y            0.00000   1.00000   0.00000
           Z            0.00000   0.00000   1.00000
 This molecule is a prolate symmetric top.
 Rotational symmetry number  1.
 Rotational temperature (Kelvin)      1.41331
 Rotational constant (GHZ):          29.448556
    1 imaginary frequencies ignored.
 Zero-point vibrational energy      27988.2 (Joules/Mol)
                                    6.68933 (Kcal/Mol)
 Vibrational temperatures:   1604.20  1604.20  3524.00
          (Kelvin)

 Zero-point correction=                           0.010660 (Hartree/Particle)
 Thermal correction to Energy=                    0.013068
 Thermal correction to Enthalpy=                  0.014012
 Thermal correction to Gibbs Free Energy=        -0.009357
 Sum of electronic and zero-point Energies=           -100.947710
 Sum of electronic and thermal Energies=              -100.945302
 Sum of electronic and thermal Enthalpies=            -100.944358
 Sum of electronic and thermal Free Energies=         -100.967727

                     E (Thermal)             CV                S
                      KCal/Mol        Cal/Mol-Kelvin    Cal/Mol-Kelvin
 Total                    8.200              5.505             49.185
 Electronic               0.000              0.000              1.377
 Translational            0.889              2.981             35.068
 Rotational               0.592              1.987             12.622
 Vibrational              6.719              0.537              0.117

 Normal termination of Gaussian 16 at Fri Aug 22 16:03:40 2025.
