 Gaussian 16, Revision C.01,
 Gaussian 16:  ES64L-G16RevC.01  3-Jul-2019

 -----------------------------------------
 # sp b3lyp/6-311g** Force nosymm scf=(qc)
 -----------------------------------------

 -------------------
 Title Card Required
 -------------------
 Symbolic Z-matrix:
 Charge =  0 Multiplicity = 2

                          Input orientation:
 ---------------------------------------------------------------------
 Center     Atomic      Atomic             Coordinates (Angstroms)
 Number     Number       Type             X           Y           Z
 ---------------------------------------------------------------------
      1          1           0        0.000000    0.000000    0.000000
      2          1           0       -2.750000    0.000000    0.000000
      3          9           0        3.600000    0.000000    0.000000
 ---------------------------------------------------------------------

 SCF Done:  E(UB3LYP) =  -100.760855845     a.u. after   32 cycles

 Alpha  occ. eigenvalues --  -24.75569  -1.21518  -0.54692  -0.45921  -0.45921
 Alpha  occ. eigenvalues --   -0.32501
 Alpha virt. eigenvalues --   -0.08633   0.25391   0.35268   0.87312   0.91365
 Alpha virt. eigenvalues --    0.91365   1.01566   1.25074   1.25074   1.26324
 Alpha virt. eigenvalues --    1.42910   1.42910   1.43377   2.15991   2.38419

  Beta  occ. eigenvalues --  -24.72444  -1.12537  -0.42789  -0.42789  -0.32813
  Beta virt. eigenvalues --   -0.25583  -0.08198   0.25180   0.35918   0.92857
  Beta virt. eigenvalues --    0.92857   0.96535   1.05627   1.24713   1.24713
  Beta virt. eigenvalues --    1.25915   1.43584   1.43584   1.44050   2.16295

 Mulliken charges and spin densities:
               1          2
     1  H    0.007245  -0.975941
     2  H    0.001023   0.985166
     3  F   -0.008268   0.990775
 Sum of Mulliken charges =   0.00000   1.00000

 Dipole moment (field-independent basis, Debye):
    X=             -0.1665    Y=             -0.0000    Z=             -0.0000  Tot=              0.1665
 Quadrupole moment (field-independent basis, Debye-Ang):
   XX=             -7.1042   YY=             -7.6475   ZZ=             -7.6475
   XY=             -0.0000   XZ=             -0.0000   YZ=              0.0000

  Exact polarizability:      25.989      -0.000       2.073      -0.000       0.000       2.073
 Approx polarizability:      19.401      -0.000       1.931      -0.000      -0.000       1.931

 ******    2 imaginary frequencies (negative Signs) ******

                      1                      2                      3
                      A                      A                      A
 Frequencies --   -476.4432              -123.1099               159.1145
 Red. masses --      1.0084                 1.1078                 1.0150
 Frc consts  --      0.1349                 0.0099                 0.0151
 IR Inten    --      4.3434                 3.7841                 0.0152

                      4
                      A
 Frequencies --    159.1148
 Red. masses --      1.0150
 Frc consts  --      0.0151
 IR Inten    --      0.0152

 - Thermochemistry -
 -------------------
 Temperature   298.150 Kelvin.  Pressure   1.00000 Atm.
 Atom     1 has atomic number  1 and mass   1.00783

 Molecular mass:    21.01405 amu.
 Principal axes and moments of inertia in atomic units:
                           1         2         3
     Eigenvalues --     0.00000 174.67566 174.67566
           X            1.00000  -0.00000   0.00000
           Y            0.00000   1.00000   0.00000
           Z            0.00000   0.00000   1.00000
 This molecule is a prolate symmetric top.
 Rotational symmetry number  1.
 Rotational temperature (Kelvin)      0.49586
 Rotational constant (GHZ):          10.331956
    2 imaginary frequencies ignored.
 Zero-point vibrational energy       1903.4 (Joules/Mol)
                                    0.45493 (Kcal/Mol)
 Warning -- explicit consideration of   2 degrees of freedom as
           vibrations may cause significant error
 Vibrational temperatures:    228.93   228.93
          (Kelvin)

 Zero-point correction=                           0.000725 (Hartree/Particle)
 Thermal correction to Energy=                    0.004341
 Thermal correction to Enthalpy=                  0.005285
 Thermal correction to Gibbs Free Energy=        -0.021451
 Sum of electronic and zero-point Energies=           -100.760131
 Sum of electronic and thermal Energies=              -100.756515
 Sum of electronic and thermal Enthalpies=            -100.755571
 Sum of electronic and thermal Free Energies=         -100.782306

                     E (Thermal)             CV                S
                      KCal/Mol        Cal/Mol-Kelvin    Cal/Mol-Kelvin
 Total                    2.724              8.753             56.269
 Electronic               0.000              0.000              1.377
 Translational            0.889              2.981             35.068
 Rotational               0.592              1.987             14.703
 Vibrational              1.243              3.785              5.121
 Vibration     1          0.621              1.892              2.560
 Vibration     2          0.621              1.892              2.560

 Normal termination of Gaussian 16 at Fri Aug 22 23:06:45 2025.
