 Gaussian 16, Revision C.01,
 Gaussian 16:  ES64L-G16RevC.01  3-Jul-2019

 -----------------------------------------
 # sp b3lyp/6-311g** Force nosymm scf=(qc)
 -----------------------------------------

 -------------------
 Title Card Required
 -------------------
 Symbolic Z-matrix:
 Charge =  0 Multiplicity = 2

                          Input orientation:
 ---------------------------------------------------------------------
 Center     Atomic      Atomic             Coordinates (Angstroms)
 Number     Number       Type             X           Y           Z
 ---------------------------------------------------------------------
      1          1           0        0.000000    0.000000    0.000000
      2          1           0       -0.950000    0.000000    0.000000
      3          9           0        1.950000    0.000000    0.000000
 ---------------------------------------------------------------------

 SCF Done:  E(UB3LYP) =  -100.918459994     a.u. after    8 cycles

 Alpha  occ. eigenvalues --  -24.73568  -1.19781  -0.53566  -0.44343  -0.44343
 Alpha  occ. eigenvalues --   -0.41692
 Alpha virt. eigenvalues --    0.02229   0.20934   0.38678   0.91083   0.91083
 Alpha virt. eigenvalues --    0.91413   1.06978   1.06978   1.11205   1.54145
 Alpha virt. eigenvalues --    1.67081   1.67081   2.19691   2.34867   2.66203

  Beta  occ. eigenvalues --  -24.70655  -1.11519  -0.41836  -0.41447  -0.41447
  Beta virt. eigenvalues --   -0.25224   0.03453   0.21644   0.39271   0.92371
  Beta virt. eigenvalues --    0.92371   0.99004   1.08020   1.08020   1.14212
  Beta virt. eigenvalues --    1.56372   1.67741   1.67741   2.20908   2.35946

 Mulliken charges and spin densities:
               1          2
     1  H    0.026955  -0.051292
     2  H    0.039708   0.139360
     3  F   -0.066663   0.911933
 Sum of Mulliken charges =   0.00000   1.00000

 Dipole moment (field-independent basis, Debye):
    X=             -0.8033    Y=              0.0000    Z=             -0.0000  Tot=              0.8033
 Quadrupole moment (field-independent basis, Debye-Ang):
   XX=             -6.4755   YY=             -7.1369   ZZ=             -7.1369
   XY=              0.0000   XZ=             -0.0000   YZ=              0.0000

  Exact polarizability:      27.946       0.000       2.172      -0.000       0.000       2.172
 Approx polarizability:      35.270      -0.000       2.203      -0.000      -0.000       2.203

 ******    1 imaginary frequencies (negative Signs) ******

                      1                      2                      3
                      A                      A                      A
 Frequencies --   -422.6692              1406.8041              1406.8041
 Red. masses --      1.1071                 1.0116                 1.0116
 Frc consts  --      0.1165                 1.1795                 1.1795
 IR Inten    --    104.9526                 0.0117                 0.0117

                      4
                      A
 Frequencies --   1958.7883
 Red. masses --      1.0090
 Frc consts  --      2.2809
 IR Inten    --    526.1243

 - Thermochemistry -
 -------------------
 Temperature   298.150 Kelvin.  Pressure   1.00000 Atm.
 Atom     1 has atomic number  1 and mass   1.00783

 Molecular mass:    21.01405 amu.
 Principal axes and moments of inertia in atomic units:
                           1         2         3
     Eigenvalues --     0.00000  39.89275  39.89275
           X            1.00000  -0.00000   0.00000
           Y            0.00000   1.00000   0.00000
           Z            0.00000   0.00000   1.00000
 This molecule is a prolate symmetric top.
 Rotational symmetry number  1.
 Rotational temperature (Kelvin)      2.17117
 Rotational constant (GHZ):          45.239834
    1 imaginary frequencies ignored.
 Zero-point vibrational energy      28545.3 (Joules/Mol)
                                    6.82248 (Kcal/Mol)
 Vibrational temperatures:   2024.08  2024.08  2818.26
          (Kelvin)

 Zero-point correction=                           0.010872 (Hartree/Particle)
 Thermal correction to Energy=                    0.013248
 Thermal correction to Enthalpy=                  0.014192
 Thermal correction to Gibbs Free Energy=        -0.008733
 Sum of electronic and zero-point Energies=           -100.907588
 Sum of electronic and thermal Energies=              -100.905212
 Sum of electronic and thermal Enthalpies=            -100.904268
 Sum of electronic and thermal Free Energies=         -100.927193

                     E (Thermal)             CV                S
                      KCal/Mol        Cal/Mol-Kelvin    Cal/Mol-Kelvin
 Total                    8.313              5.189             48.251
 Electronic               0.000              0.000              1.377
 Translational            0.889              2.981             35.068
 Rotational               0.592              1.987             11.769
 Vibrational              6.832              0.221              0.037

 Normal termination of Gaussian 16 at Fri Aug 22 16:52:19 2025.
