 Gaussian 16, Revision C.01,
 Gaussian 16:  ES64L-G16RevC.01  3-Jul-2019

 -----------------------------------------
 # sp b3lyp/6-311g** Force nosymm scf=(qc)
 -----------------------------------------

 -------------------
 Title Card Required
 -------------------
 Symbolic Z-matrix:
 Charge =  0 Multiplicity = 2

                          Input orientation:
 ---------------------------------------------------------------------
 Center     Atomic      Atomic             Coordinates (Angstroms)
 Number     Number       Type             X           Y           Z
 ---------------------------------------------------------------------
      1          1           0        0.000000    0.000000    0.000000
      2          1           0       -0.550000    0.000000    0.000000
      3          9           0        3.700000    0.000000    0.000000
 ---------------------------------------------------------------------

 SCF Done:  E(UB3LYP) =  -100.894099464     a.u. after  134 cycles

 Alpha  occ. eigenvalues --  -24.76254  -1.22123  -0.55326  -0.47903  -0.46495
 Alpha  occ. eigenvalues --   -0.46480
 Alpha virt. eigenvalues --    0.09213   0.18592   0.53639   0.86069   0.90945
 Alpha virt. eigenvalues --    0.92665   1.01754   1.11064   1.11067   1.61158
 Alpha virt. eigenvalues --    1.82029   1.96188   1.96191   2.36495   3.64899

  Beta  occ. eigenvalues --  -24.73097  -1.13045  -0.47897  -0.43335  -0.43315
  Beta virt. eigenvalues --   -0.25968   0.09230   0.18599   0.53700   0.92445
  Beta virt. eigenvalues --    0.94174   0.95533   1.05811   1.11064   1.11067
  Beta virt. eigenvalues --    1.61164   1.82048   1.96188   1.96191   2.36495

 Mulliken charges and spin densities:
               1          2
     1  H   -0.001788  -0.000447
     2  H   -0.001324   0.000100
     3  F    0.003112   1.000347
 Sum of Mulliken charges =   0.00000   1.00000

 Dipole moment (field-independent basis, Debye):
    X=              0.0365    Y=              0.0000    Z=              0.0000  Tot=              0.0365
 Quadrupole moment (field-independent basis, Debye-Ang):
   XX=             -6.1613   YY=             -6.2321   ZZ=             -6.2309
   XY=             -0.0000   XZ=              0.0000   YZ=             -0.4322

  Exact polarizability:       5.862      -0.000       2.066       0.000      -0.232       2.067
 Approx polarizability:       6.290      -0.000       2.206       0.000      -0.291       2.207

 ******    3 imaginary frequencies (negative Signs) ******

                      1                      2                      3
                      A                      A                      A
 Frequencies --  -3697.9925             -3697.9052               -45.7755
 Red. masses --      1.0083                 1.0083                 1.1085
 Frc consts  --      8.1241                 8.1237                 0.0014
 IR Inten    --      0.0024                 0.0024                 0.0936

                      4
                      A
 Frequencies --   8343.1627
 Red. masses --      1.0078
 Frc consts  --     41.3330
 IR Inten    --      0.0357

 - Thermochemistry -
 -------------------
 Temperature   298.150 Kelvin.  Pressure   1.00000 Atm.
 Atom     1 has atomic number  1 and mass   1.00783

 Molecular mass:    21.01405 amu.
 Principal axes and moments of inertia in atomic units:
                           1         2         3
     Eigenvalues --     0.00000 103.36833 103.36833
           X            1.00000  -0.00000   0.00000
           Y            0.00000   1.00000   0.00000
           Z            0.00000   0.00000   1.00000
 This molecule is a prolate symmetric top.
 Rotational symmetry number  1.
 Rotational temperature (Kelvin)      0.83792
 Rotational constant (GHZ):          17.459324
    3 imaginary frequencies ignored.
 Zero-point vibrational energy      49903.2 (Joules/Mol)
                                   11.92715 (Kcal/Mol)
 Vibrational temperatures:  12003.95
          (Kelvin)

 Zero-point correction=                           0.019007 (Hartree/Particle)
 Thermal correction to Energy=                    0.021368
 Thermal correction to Enthalpy=                  0.022312
 Thermal correction to Gibbs Free Energy=        -0.001495
 Sum of electronic and zero-point Energies=           -100.875092
 Sum of electronic and thermal Energies=              -100.872732
 Sum of electronic and thermal Enthalpies=            -100.871788
 Sum of electronic and thermal Free Energies=         -100.895595

                     E (Thermal)             CV                S
                      KCal/Mol        Cal/Mol-Kelvin    Cal/Mol-Kelvin
 Total                   13.408              4.968             50.106
 Electronic               0.000              0.000              1.377
 Translational            0.889              2.981             35.068
 Rotational               0.592              1.987             13.661
 Vibrational             11.927              0.000              0.000

 Normal termination of Gaussian 16 at Fri Aug 22 23:39:56 2025.
