 Gaussian 16, Revision C.01,
 Gaussian 16:  ES64L-G16RevC.01  3-Jul-2019

 -----------------------------------------
 # sp b3lyp/6-311g** Force nosymm scf=(qc)
 -----------------------------------------

 -------------------
 Title Card Required
 -------------------
 Symbolic Z-matrix:
 Charge =  0 Multiplicity = 2

                          Input orientation:
 ---------------------------------------------------------------------
 Center     Atomic      Atomic             Coordinates (Angstroms)
 Number     Number       Type             X           Y           Z
 ---------------------------------------------------------------------
      1          1           0        0.000000    0.000000    0.000000
      2          1           0       -3.150000    0.000000    0.000000
      3          9           0        3.350000    0.000000    0.000000
 ---------------------------------------------------------------------

 SCF Done:  E(UB3LYP) =  -100.759970870     a.u. after   30 cycles

 Alpha  occ. eigenvalues --  -24.75106  -1.21090  -0.54228  -0.45531  -0.45531
 Alpha  occ. eigenvalues --   -0.32462
 Alpha virt. eigenvalues --   -0.07917   0.24653   0.36068   0.88122   0.91654
 Alpha virt. eigenvalues --    0.91654   1.02273   1.25062   1.25062   1.25546
 Alpha virt. eigenvalues --    1.44025   1.44053   1.44053   2.15470   2.40018

  Beta  occ. eigenvalues --  -24.72010  -1.12200  -0.42429  -0.42429  -0.33060
  Beta virt. eigenvalues --   -0.25339  -0.07177   0.24443   0.37197   0.93137
  Beta virt. eigenvalues --    0.93137   0.97163   1.06230   1.24365   1.24365
  Beta virt. eigenvalues --    1.24817   1.45063   1.45237   1.45237   2.15851

 Mulliken charges and spin densities:
               1          2
     1  H    0.016274  -0.976347
     2  H    0.000603   0.994930
     3  F   -0.016877   0.981417
 Sum of Mulliken charges =  -0.00000   1.00000

 Dipole moment (field-independent basis, Debye):
    X=             -0.2997    Y=             -0.0000    Z=              0.0000  Tot=              0.2997
 Quadrupole moment (field-independent basis, Debye-Ang):
   XX=             -7.5814   YY=             -7.6272   ZZ=             -7.6272
   XY=              0.0000   XZ=             -0.0000   YZ=              0.0000

  Exact polarizability:      28.851       0.000       2.029      -0.000       0.000       2.029
 Approx polarizability:      24.034       0.000       1.930      -0.000       0.000       1.930

 ******    2 imaginary frequencies (negative Signs) ******

                      1                      2                      3
                      A                      A                      A
 Frequencies --   -332.6434              -140.0589               114.3439
 Red. masses --      1.0187                 1.0957                 1.0172
 Frc consts  --      0.0664                 0.0127                 0.0078
 IR Inten    --     14.7396                 3.8252                 0.2315

                      4
                      A
 Frequencies --    114.3439
 Red. masses --      1.0172
 Frc consts  --      0.0078
 IR Inten    --      0.2315

 - Thermochemistry -
 -------------------
 Temperature   298.150 Kelvin.  Pressure   1.00000 Atm.
 Atom     1 has atomic number  1 and mass   1.00783

 Molecular mass:    21.01405 amu.
 Principal axes and moments of inertia in atomic units:
                           1         2         3
     Eigenvalues --     0.00000 175.70123 175.70123
           X            1.00000  -0.00000   0.00000
           Y            0.00000   1.00000   0.00000
           Z            0.00000   0.00000   1.00000
 This molecule is a prolate symmetric top.
 Rotational symmetry number  1.
 Rotational temperature (Kelvin)      0.49296
 Rotational constant (GHZ):          10.271648
    2 imaginary frequencies ignored.
 Zero-point vibrational energy       1367.9 (Joules/Mol)
                                    0.32693 (Kcal/Mol)
 Warning -- explicit consideration of   2 degrees of freedom as
           vibrations may cause significant error
 Vibrational temperatures:    164.52   164.52
          (Kelvin)

 Zero-point correction=                           0.000521 (Hartree/Particle)
 Thermal correction to Energy=                    0.004297
 Thermal correction to Enthalpy=                  0.005241
 Thermal correction to Gibbs Free Energy=        -0.022102
 Sum of electronic and zero-point Energies=           -100.759450
 Sum of electronic and thermal Energies=              -100.755674
 Sum of electronic and thermal Enthalpies=            -100.754730
 Sum of electronic and thermal Free Energies=         -100.782073

                     E (Thermal)             CV                S
                      KCal/Mol        Cal/Mol-Kelvin    Cal/Mol-Kelvin
 Total                    2.696              8.843             57.548
 Electronic               0.000              0.000              1.377
 Translational            0.889              2.981             35.068
 Rotational               0.592              1.987             14.715
 Vibrational              1.215              3.875              6.388
 Vibration     1          0.607              1.938              3.194
 Vibration     2          0.607              1.938              3.194

 Normal termination of Gaussian 16 at Fri Aug 22 21:02:48 2025.
