 Gaussian 16, Revision C.01,
 Gaussian 16:  ES64L-G16RevC.01  3-Jul-2019

 -----------------------------------------
 # sp b3lyp/6-311g** Force nosymm scf=(qc)
 -----------------------------------------

 -------------------
 Title Card Required
 -------------------
 Symbolic Z-matrix:
 Charge =  0 Multiplicity = 2

                          Input orientation:
 ---------------------------------------------------------------------
 Center     Atomic      Atomic             Coordinates (Angstroms)
 Number     Number       Type             X           Y           Z
 ---------------------------------------------------------------------
      1          1           0        0.000000    0.000000    0.000000
      2          1           0       -2.750000    0.000000    0.000000
      3          9           0        2.100000    0.000000    0.000000
 ---------------------------------------------------------------------

 SCF Done:  E(UB3LYP) =  -100.780264345     a.u. after   23 cycles

 Alpha  occ. eigenvalues --  -24.66010  -1.07889  -0.37729  -0.37531  -0.37531
 Alpha  occ. eigenvalues --   -0.33507
 Alpha virt. eigenvalues --   -0.21083   0.21946   0.27114   0.91433   0.95925
 Alpha virt. eigenvalues --    0.95925   1.08709   1.21619   1.21619   1.23458
 Alpha virt. eigenvalues --    1.23458   1.24775   1.47846   2.12849   2.14528

  Beta  occ. eigenvalues --  -24.68486  -1.14841  -0.47499  -0.39979  -0.39979
  Beta virt. eigenvalues --   -0.13985  -0.04955   0.31696   0.38674   0.89349
  Beta virt. eigenvalues --    0.95058   0.95058   1.06779   1.36423   1.36423
  Beta virt. eigenvalues --    1.46743   1.46743   1.47674   1.56371   2.31834

 Mulliken charges and spin densities:
               1          2
     1  H    0.167876   0.787611
     2  H    0.008610   0.991613
     3  F   -0.176486  -0.779224
 Sum of Mulliken charges =   0.00000   1.00000

 Dipole moment (field-independent basis, Debye):
    X=             -1.9587    Y=              0.0000    Z=             -0.0000  Tot=              1.9587
 Quadrupole moment (field-independent basis, Debye-Ang):
   XX=             -9.9650   YY=             -7.4902   ZZ=             -7.4902
   XY=              0.0000   XZ=             -0.0000   YZ=              0.0000

  Exact polarizability:      35.854       0.000       2.049      -0.000      -0.000       2.049
 Approx polarizability:      49.299      -0.000       1.940       0.000      -0.000       1.940

 ******    1 imaginary frequencies (negative Signs) ******

                      1                      2                      3
                      A                      A                      A
 Frequencies --   -951.1305               180.4413               400.4255
 Red. masses --      1.0638                 1.0479                 1.0215
 Frc consts  --      0.5670                 0.0201                 0.0965
 IR Inten    --     66.2772                 7.2290                24.6298

                      4
                      A
 Frequencies --    400.4255
 Red. masses --      1.0215
 Frc consts  --      0.0965
 IR Inten    --     24.6298

 - Thermochemistry -
 -------------------
 Temperature   298.150 Kelvin.  Pressure   1.00000 Atm.
 Atom     1 has atomic number  1 and mass   1.00783

 Molecular mass:    21.01405 amu.
 Principal axes and moments of inertia in atomic units:
                           1         2         3
     Eigenvalues --     0.00000  92.19196  92.19196
           X            1.00000  -0.00000   0.00000
           Y            0.00000   1.00000   0.00000
           Z            0.00000   0.00000   1.00000
 This molecule is a prolate symmetric top.
 Rotational symmetry number  1.
 Rotational temperature (Kelvin)      0.93950
 Rotational constant (GHZ):          19.575907
    1 imaginary frequencies ignored.
 Zero-point vibrational energy       5869.4 (Joules/Mol)
                                    1.40283 (Kcal/Mol)
 Warning -- explicit consideration of   3 degrees of freedom as
           vibrations may cause significant error
 Vibrational temperatures:    259.61   576.12   576.12
          (Kelvin)

 Zero-point correction=                           0.002236 (Hartree/Particle)
 Thermal correction to Energy=                    0.005806
 Thermal correction to Enthalpy=                  0.006750
 Thermal correction to Gibbs Free Energy=        -0.018966
 Sum of electronic and zero-point Energies=           -100.778029
 Sum of electronic and thermal Energies=              -100.774458
 Sum of electronic and thermal Enthalpies=            -100.773514
 Sum of electronic and thermal Free Energies=         -100.799231

                     E (Thermal)             CV                S
                      KCal/Mol        Cal/Mol-Kelvin    Cal/Mol-Kelvin
 Total                    3.643              9.773             54.125
 Electronic               0.000              0.000              1.377
 Translational            0.889              2.981             35.068
 Rotational               0.592              1.987             13.434
 Vibrational              2.162              4.805              4.246
 Vibration     1          0.629              1.866              2.324
 Vibration     2          0.766              1.469              0.961
 Vibration     3          0.766              1.469              0.961

 Normal termination of Gaussian 16 at Fri Aug 22 17:04:34 2025.
