 Gaussian 16, Revision C.01,
 Gaussian 16:  ES64L-G16RevC.01  3-Jul-2019

 -----------------------------------------
 # sp b3lyp/6-311g** Force nosymm scf=(qc)
 -----------------------------------------

 -------------------
 Title Card Required
 -------------------
 Symbolic Z-matrix:
 Charge =  0 Multiplicity = 2

                          Input orientation:
 ---------------------------------------------------------------------
 Center     Atomic      Atomic             Coordinates (Angstroms)
 Number     Number       Type             X           Y           Z
 ---------------------------------------------------------------------
      1          1           0        0.000000    0.000000    0.000000
      2          1           0       -1.150000    0.000000    0.000000
      3          9           0        2.750000    0.000000    0.000000
 ---------------------------------------------------------------------

 SCF Done:  E(UB3LYP) =  -100.881467743     a.u. after   23 cycles

 Alpha  occ. eigenvalues --  -24.76899  -1.22692  -0.55871  -0.47189  -0.47019
 Alpha  occ. eigenvalues --   -0.36621
 Alpha virt. eigenvalues --   -0.02533   0.22853   0.36095   0.85617   0.90487
 Alpha virt. eigenvalues --    0.93336   1.06538   1.12015   1.12026   1.26193
 Alpha virt. eigenvalues --    1.57315   1.57326   2.13330   2.33870   2.56171

  Beta  occ. eigenvalues --  -24.73736  -1.13601  -0.44045  -0.43847  -0.36589
  Beta virt. eigenvalues --   -0.26486  -0.02501   0.22881   0.36194   0.91984
  Beta virt. eigenvalues --    0.95069   0.95148   1.10247   1.12016   1.12024
  Beta virt. eigenvalues --    1.26201   1.57313   1.57323   2.13336   2.33873

 Mulliken charges and spin densities:
               1          2
     1  H   -0.002146  -0.000385
     2  H   -0.009239  -0.001225
     3  F    0.011385   1.001610
 Sum of Mulliken charges =  -0.00000   1.00000

 Dipole moment (field-independent basis, Debye):
    X=              0.1484    Y=              0.0000    Z=             -0.0000  Tot=              0.1484
 Quadrupole moment (field-independent basis, Debye-Ang):
   XX=             -6.1066   YY=             -7.4417   ZZ=             -6.6011
   XY=             -0.0000   XZ=              0.0000   YZ=             -0.0982

  Exact polarizability:      15.763       0.000       2.094      -0.000      -0.052       2.539
 Approx polarizability:      22.411      -0.000       2.131       0.000      -0.066       2.692

                      1                      2                      3
                      A                      A                      A
 Frequencies --     77.1634               582.9532              1491.5278
 Red. masses --      1.1085                 1.0078                 1.0108
 Frc consts  --      0.0039                 0.2018                 1.3248
 IR Inten    --      1.0453                 2.6865                 0.0116

                      4
                      A
 Frequencies --   1500.8348
 Red. masses --      1.0108
 Frc consts  --      1.3414
 IR Inten    --      0.0043

 - Thermochemistry -
 -------------------
 Temperature   298.150 Kelvin.  Pressure   1.00000 Atm.
 Atom     1 has atomic number  1 and mass   1.00783

 Molecular mass:    21.01405 amu.
 Principal axes and moments of inertia in atomic units:
                           1         2         3
     Eigenvalues --     0.00000  74.32531  74.32531
           X            1.00000  -0.00000   0.00000
           Y            0.00000   1.00000   0.00000
           Z            0.00000   0.00000   1.00000
 This molecule is a prolate symmetric top.
 Rotational symmetry number  1.
 Rotational temperature (Kelvin)      1.16534
 Rotational constant (GHZ):          24.281650
 Zero-point vibrational energy      21846.7 (Joules/Mol)
                                    5.22148 (Kcal/Mol)
 Warning -- explicit consideration of   2 degrees of freedom as
           vibrations may cause significant error
 Vibrational temperatures:    111.02   838.74  2145.98  2159.37
          (Kelvin)

 Zero-point correction=                           0.008321 (Hartree/Particle)
 Thermal correction to Energy=                    0.011640
 Thermal correction to Enthalpy=                  0.012584
 Thermal correction to Gibbs Free Energy=        -0.013033
 Sum of electronic and zero-point Energies=           -100.873147
 Sum of electronic and thermal Energies=              -100.869827
 Sum of electronic and thermal Enthalpies=            -100.868883
 Sum of electronic and thermal Free Energies=         -100.894501

                     E (Thermal)             CV                S
                      KCal/Mol        Cal/Mol-Kelvin    Cal/Mol-Kelvin
 Total                    7.304              8.152             53.916
 Electronic               0.000              0.000              1.377
 Translational            0.889              2.981             35.068
 Rotational               0.592              1.987             13.005
 Vibrational              5.823              3.184              4.466
 Vibration     1          0.599              1.964              3.962
 Vibration     2          0.940              1.068              0.480

 Normal termination of Gaussian 16 at Fri Aug 22 18:30:52 2025.
