 Gaussian 16, Revision C.01,
 Gaussian 16:  ES64L-G16RevC.01  3-Jul-2019

 -----------------------------------------
 # sp b3lyp/6-311g** Force nosymm scf=(qc)
 -----------------------------------------

 -------------------
 Title Card Required
 -------------------
 Symbolic Z-matrix:
 Charge =  0 Multiplicity = 2

                          Input orientation:
 ---------------------------------------------------------------------
 Center     Atomic      Atomic             Coordinates (Angstroms)
 Number     Number       Type             X           Y           Z
 ---------------------------------------------------------------------
      1          1           0        0.000000    0.000000    0.000000
      2          1           0       -3.300000    0.000000    0.000000
      3          9           0        1.700000    0.000000    0.000000
 ---------------------------------------------------------------------

 SCF Done:  E(UB3LYP) =  -100.814655974     a.u. after   10 cycles

 Alpha  occ. eigenvalues --  -24.64168  -1.08781  -0.40917  -0.35944  -0.35944
 Alpha  occ. eigenvalues --   -0.34290
 Alpha virt. eigenvalues --   -0.18737   0.19979   0.27543   0.94905   0.94905
 Alpha virt. eigenvalues --    0.96607   1.07450   1.23211   1.23211   1.23367
 Alpha virt. eigenvalues --    1.27603   1.27603   1.70360   2.13383   2.15987

  Beta  occ. eigenvalues --  -24.64193  -1.08848  -0.40939  -0.35968  -0.35968
  Beta virt. eigenvalues --   -0.18846  -0.07313   0.23025   0.37742   0.94920
  Beta virt. eigenvalues --    0.94920   0.96680   1.07466   1.27809   1.27809
  Beta virt. eigenvalues --    1.44939   1.45423   1.45423   1.70521   2.16098

 Mulliken charges and spin densities:
               1          2
     1  H    0.324346   0.012295
     2  H    0.004326   0.995508
     3  F   -0.328672  -0.007802
 Sum of Mulliken charges =  -0.00000   1.00000

 Dipole moment (field-independent basis, Debye):
    X=             -2.8213    Y=             -0.0000    Z=             -0.0000  Tot=              2.8213
 Quadrupole moment (field-independent basis, Debye-Ang):
   XX=            -10.5269   YY=             -7.4201   ZZ=             -7.4201
   XY=             -0.0000   XZ=             -0.0000   YZ=              0.0000

  Exact polarizability:      21.844       0.000       2.103      -0.000      -0.000       2.103
 Approx polarizability:      48.436       0.000       2.016      -0.000       0.000       2.016

 ******    2 imaginary frequencies (negative Signs) ******

                      1                      2                      3
                      A                      A                      A
 Frequencies --  -1192.3428              -118.5443               862.9257
 Red. masses --      1.0567                 1.0549                 1.0276
 Frc consts  --      0.8851                 0.0087                 0.4508
 IR Inten    --     49.7662                 1.0351                99.0626

                      4
                      A
 Frequencies --    862.9257
 Red. masses --      1.0276
 Frc consts  --      0.4508
 IR Inten    --     99.0626

 - Thermochemistry -
 -------------------
 Temperature   298.150 Kelvin.  Pressure   1.00000 Atm.
 Atom     1 has atomic number  1 and mass   1.00783

 Molecular mass:    21.01405 amu.
 Principal axes and moments of inertia in atomic units:
                           1         2         3
     Eigenvalues --     0.00000  92.62802  92.62802
           X            1.00000  -0.00000   0.00000
           Y            0.00000   1.00000   0.00000
           Z            0.00000   0.00000   1.00000
 This molecule is a prolate symmetric top.
 Rotational symmetry number  1.
 Rotational temperature (Kelvin)      0.93507
 Rotational constant (GHZ):          19.483749
    2 imaginary frequencies ignored.
 Zero-point vibrational energy      10322.9 (Joules/Mol)
                                    2.46723 (Kcal/Mol)
 Vibrational temperatures:   1241.56  1241.56
          (Kelvin)

 Zero-point correction=                           0.003932 (Hartree/Particle)
 Thermal correction to Energy=                    0.006416
 Thermal correction to Enthalpy=                  0.007361
 Thermal correction to Gibbs Free Energy=        -0.016497
 Sum of electronic and zero-point Energies=           -100.810724
 Sum of electronic and thermal Energies=              -100.808240
 Sum of electronic and thermal Enthalpies=            -100.807295
 Sum of electronic and thermal Free Energies=         -100.831153

                     E (Thermal)             CV                S
                      KCal/Mol        Cal/Mol-Kelvin    Cal/Mol-Kelvin
 Total                    4.026              6.073             50.212
 Electronic               0.000              0.000              1.377
 Translational            0.889              2.981             35.068
 Rotational               0.592              1.987             13.443
 Vibrational              2.545              1.105              0.324

 Normal termination of Gaussian 16 at Fri Aug 22 16:38:38 2025.
