 Gaussian 16, Revision C.01,
 Gaussian 16:  ES64L-G16RevC.01  3-Jul-2019

 -----------------------------------------
 # sp b3lyp/6-311g** Force nosymm scf=(qc)
 -----------------------------------------

 -------------------
 Title Card Required
 -------------------
 Symbolic Z-matrix:
 Charge =  0 Multiplicity = 2

                          Input orientation:
 ---------------------------------------------------------------------
 Center     Atomic      Atomic             Coordinates (Angstroms)
 Number     Number       Type             X           Y           Z
 ---------------------------------------------------------------------
      1          1           0        0.000000    0.000000    0.000000
      2          1           0       -0.500000    0.000000    0.000000
      3          9           0        1.350000    0.000000    0.000000
 ---------------------------------------------------------------------

 SCF Done:  E(UB3LYP) =  -100.850500356     a.u. after    6 cycles

 Alpha  occ. eigenvalues --  -24.71209  -1.19200  -0.62229  -0.43190  -0.43190
 Alpha  occ. eigenvalues --   -0.42953
 Alpha virt. eigenvalues --    0.12782   0.19241   0.58413   0.87688   0.87688
 Alpha virt. eigenvalues --    0.95547   1.13759   1.13759   1.46798   1.63072
 Alpha virt. eigenvalues --    1.85056   1.96852   1.96852   2.47446   3.77612

  Beta  occ. eigenvalues --  -24.68484  -1.11899  -0.54674  -0.40581  -0.40581
  Beta virt. eigenvalues --   -0.21510   0.13658   0.19865   0.61143   0.88977
  Beta virt. eigenvalues --    0.88977   1.01613   1.15982   1.15982   1.50694
  Beta virt. eigenvalues --    1.66219   1.86062   1.98326   1.98326   2.51202

 Mulliken charges and spin densities:
               1          2
     1  H    0.172980  -0.016689
     2  H   -0.029868   0.221500
     3  F   -0.143112   0.795189
 Sum of Mulliken charges =   0.00000   1.00000

 Dipole moment (field-independent basis, Debye):
    X=             -0.9326    Y=             -0.0000    Z=             -0.0000  Tot=              0.9326
 Quadrupole moment (field-independent basis, Debye-Ang):
   XX=             -6.7165   YY=             -6.4361   ZZ=             -6.4361
   XY=             -0.0000   XZ=              0.0000   YZ=             -0.0000

  Exact polarizability:      12.723      -0.000       2.276       0.000       0.000       2.276
 Approx polarizability:      14.902      -0.000       2.339       0.000       0.000       2.339

 ******    2 imaginary frequencies (negative Signs) ******

                      1                      2                      3
                      A                      A                      A
 Frequencies --  -4966.8492             -4966.8492               946.7969
 Red. masses --      1.0102                 1.0102                 1.1085
 Frc consts  --     14.6837                14.6837                 0.5855
 IR Inten    --      0.3088                 0.3088                45.4456

                      4
                      A
 Frequencies --   9793.4776
 Red. masses --      1.0078
 Frc consts  --     56.9525
 IR Inten    --    407.6792

 - Thermochemistry -
 -------------------
 Temperature   298.150 Kelvin.  Pressure   1.00000 Atm.
 Atom     1 has atomic number  1 and mass   1.00783

 Molecular mass:    21.01405 amu.
 Principal axes and moments of inertia in atomic units:
                           1         2         3
     Eigenvalues --     0.00000  17.10930  17.10930
           X            1.00000  -0.00000   0.00000
           Y            0.00000   1.00000   0.00000
           Z            0.00000   0.00000   1.00000
 This molecule is a prolate symmetric top.
 Rotational symmetry number  1.
 Rotational temperature (Kelvin)      5.06239
 Rotational constant (GHZ):         105.483023
    2 imaginary frequencies ignored.
 Zero-point vibrational energy      64241.1 (Joules/Mol)
                                   15.35399 (Kcal/Mol)
 Vibrational temperatures:   1362.23 14090.63
          (Kelvin)

 Zero-point correction=                           0.024468 (Hartree/Particle)
 Thermal correction to Energy=                    0.026874
 Thermal correction to Enthalpy=                  0.027818
 Thermal correction to Gibbs Free Energy=         0.005654
 Sum of electronic and zero-point Energies=           -100.826032
 Sum of electronic and thermal Energies=              -100.823627
 Sum of electronic and thermal Enthalpies=            -100.822682
 Sum of electronic and thermal Free Energies=         -100.844846

                     E (Thermal)             CV                S
                      KCal/Mol        Cal/Mol-Kelvin    Cal/Mol-Kelvin
 Total                   16.864              5.407             46.648
 Electronic               0.000              0.000              1.377
 Translational            0.889              2.981             35.068
 Rotational               0.592              1.987             10.087
 Vibrational             15.382              0.439              0.116

 Normal termination of Gaussian 16 at Fri Aug 22 16:16:25 2025.
