 Gaussian 16, Revision C.01,
 Gaussian 16:  ES64L-G16RevC.01  3-Jul-2019

 -----------------------------------------
 # sp b3lyp/6-311g** Force nosymm scf=(qc)
 -----------------------------------------

 -------------------
 Title Card Required
 -------------------
 Symbolic Z-matrix:
 Charge =  0 Multiplicity = 2

                          Input orientation:
 ---------------------------------------------------------------------
 Center     Atomic      Atomic             Coordinates (Angstroms)
 Number     Number       Type             X           Y           Z
 ---------------------------------------------------------------------
      1          1           0        0.000000    0.000000    0.000000
      2          1           0       -1.150000    0.000000    0.000000
      3          9           0        2.150000    0.000000    0.000000
 ---------------------------------------------------------------------

 SCF Done:  E(UB3LYP) =  -100.884329851     a.u. after   12 cycles

 Alpha  occ. eigenvalues --  -24.73628  -1.19769  -0.53109  -0.44349  -0.44349
 Alpha  occ. eigenvalues --   -0.39093
 Alpha virt. eigenvalues --   -0.03419   0.21894   0.35387   0.88599   0.91907
 Alpha virt. eigenvalues --    0.91907   1.08042   1.09683   1.09683   1.35133
 Alpha virt. eigenvalues --    1.54980   1.54980   2.10834   2.30729   2.54512

  Beta  occ. eigenvalues --  -24.70696  -1.11420  -0.41427  -0.41427  -0.38788
  Beta virt. eigenvalues --   -0.25313  -0.02266   0.22554   0.35857   0.93258
  Beta virt. eigenvalues --    0.93258   0.95973   1.10506   1.10506   1.11000
  Beta virt. eigenvalues --    1.37661   1.55592   1.55592   2.11877   2.31661

 Mulliken charges and spin densities:
               1          2
     1  H    0.018519  -0.073751
     2  H    0.040998   0.151233
     3  F   -0.059517   0.922518
 Sum of Mulliken charges =  -0.00000   1.00000

 Dipole moment (field-independent basis, Debye):
    X=             -0.8539    Y=             -0.0000    Z=              0.0000  Tot=              0.8539
 Quadrupole moment (field-independent basis, Debye-Ang):
   XX=             -6.5343   YY=             -7.3716   ZZ=             -7.3716
   XY=              0.0000   XZ=             -0.0000   YZ=              0.0000

  Exact polarizability:      37.949       0.000       2.147      -0.000      -0.000       2.147
 Approx polarizability:      50.784      -0.000       2.155       0.000       0.000       2.155

 ******    1 imaginary frequencies (negative Signs) ******

                      1                      2                      3
                      A                      A                      A
 Frequencies --   -888.1553               285.2035              1432.7283
 Red. masses --      1.0320                 1.0807                 1.0121
 Frc consts  --      0.4796                 0.0518                 1.2241
 IR Inten    --    643.7532                34.0086                 0.0062

                      4
                      A
 Frequencies --   1432.7283
 Red. masses --      1.0121
 Frc consts  --      1.2241
 IR Inten    --      0.0062

 - Thermochemistry -
 -------------------
 Temperature   298.150 Kelvin.  Pressure   1.00000 Atm.
 Atom     1 has atomic number  1 and mass   1.00783

 Molecular mass:    21.01405 amu.
 Principal axes and moments of inertia in atomic units:
                           1         2         3
     Eigenvalues --     0.00000  50.70276  50.70276
           X            1.00000  -0.00000   0.00000
           Y            0.00000   1.00000   0.00000
           Z            0.00000   0.00000   1.00000
 This molecule is a prolate symmetric top.
 Rotational symmetry number  1.
 Rotational temperature (Kelvin)      1.70827
 Rotational constant (GHZ):          35.594534
    1 imaginary frequencies ignored.
 Zero-point vibrational energy      18845.1 (Joules/Mol)
                                    4.50409 (Kcal/Mol)
 Warning -- explicit consideration of   1 degrees of freedom as
           vibrations may cause significant error
 Vibrational temperatures:    410.34  2061.38  2061.38
          (Kelvin)

 Zero-point correction=                           0.007178 (Hartree/Particle)
 Thermal correction to Energy=                    0.009990
 Thermal correction to Enthalpy=                  0.010934
 Thermal correction to Gibbs Free Energy=        -0.012929
 Sum of electronic and zero-point Energies=           -100.877152
 Sum of electronic and thermal Energies=              -100.874340
 Sum of electronic and thermal Enthalpies=            -100.873396
 Sum of electronic and thermal Free Energies=         -100.897259

                     E (Thermal)             CV                S
                      KCal/Mol        Cal/Mol-Kelvin    Cal/Mol-Kelvin
 Total                    6.269              6.858             50.224
 Electronic               0.000              0.000              1.377
 Translational            0.889              2.981             35.068
 Rotational               0.592              1.987             12.245
 Vibrational              4.788              1.890              1.534
 Vibration     1          0.683              1.701              1.502

 Normal termination of Gaussian 16 at Fri Aug 22 17:06:52 2025.
