 Gaussian 16, Revision C.01,
 Gaussian 16:  ES64L-G16RevC.01  3-Jul-2019

 -----------------------------------------
 # sp b3lyp/6-311g** Force nosymm scf=(qc)
 -----------------------------------------

 -------------------
 Title Card Required
 -------------------
 Symbolic Z-matrix:
 Charge =  0 Multiplicity = 2

                          Input orientation:
 ---------------------------------------------------------------------
 Center     Atomic      Atomic             Coordinates (Angstroms)
 Number     Number       Type             X           Y           Z
 ---------------------------------------------------------------------
      1          1           0        0.000000    0.000000    0.000000
      2          1           0       -2.450000    0.000000    0.000000
      3          9           0        1.050000    0.000000    0.000000
 ---------------------------------------------------------------------

 SCF Done:  E(UB3LYP) =  -100.958809290     a.u. after    6 cycles

 Alpha  occ. eigenvalues --  -24.64077  -1.14744  -0.50560  -0.38290  -0.38290
 Alpha  occ. eigenvalues --   -0.35186
 Alpha virt. eigenvalues --    0.00326   0.24977   0.32288   0.93946   0.93946
 Alpha virt. eigenvalues --    0.99059   1.19540   1.22358   1.22358   1.35684
 Alpha virt. eigenvalues --    1.35684   1.37927   1.85343   2.13326   2.33761

  Beta  occ. eigenvalues --  -24.64047  -1.14668  -0.50425  -0.38263  -0.38263
  Beta virt. eigenvalues --   -0.10548   0.02300   0.32226   0.36842   0.93948
  Beta virt. eigenvalues --    0.93948   0.99161   1.28555   1.35624   1.35624
  Beta virt. eigenvalues --    1.43655   1.43655   1.49561   1.85406   2.32944

 Mulliken charges and spin densities:
               1          2
     1  H    0.324798   0.002526
     2  H    0.008569   0.988296
     3  F   -0.333367   0.009178
 Sum of Mulliken charges =   0.00000   1.00000

 Dipole moment (field-independent basis, Debye):
    X=             -2.2031    Y=              0.0000    Z=              0.0000  Tot=              2.2031
 Quadrupole moment (field-independent basis, Debye-Ang):
   XX=             -8.0978   YY=             -6.9975   ZZ=             -6.9975
   XY=             -0.0000   XZ=              0.0000   YZ=              0.0000

  Exact polarizability:       9.874      -0.000       2.412       0.000      -0.000       2.412
 Approx polarizability:      11.503       0.000       2.384      -0.000      -0.000       2.384

 ******    1 imaginary frequencies (negative Signs) ******

                      1                      2                      3
                      A                      A                      A
 Frequencies --   -114.6828              1098.0649              1098.0649
 Red. masses --      1.0524                 1.0306                 1.0306
 Frc consts  --      0.0082                 0.7321                 0.7321
 IR Inten    --      1.6372               146.6930               146.6930

                      4
                      A
 Frequencies --   2430.5967
 Red. masses --      1.0592
 Frc consts  --      3.6867
 IR Inten    --    129.0655

 - Thermochemistry -
 -------------------
 Temperature   298.150 Kelvin.  Pressure   1.00000 Atm.
 Atom     1 has atomic number  1 and mass   1.00783

 Molecular mass:    21.01405 amu.
 Principal axes and moments of inertia in atomic units:
                           1         2         3
     Eigenvalues --     0.00000  44.48237  44.48237
           X            1.00000  -0.00000   0.00000
           Y            0.00000   1.00000   0.00000
           Z            0.00000   0.00000   1.00000
 This molecule is a prolate symmetric top.
 Rotational symmetry number  1.
 Rotational temperature (Kelvin)      1.94715
 Rotational constant (GHZ):          40.572059
    1 imaginary frequencies ignored.
 Zero-point vibrational energy      27674.0 (Joules/Mol)
                                    6.61424 (Kcal/Mol)
 Vibrational temperatures:   1579.87  1579.87  3497.09
          (Kelvin)

 Zero-point correction=                           0.010540 (Hartree/Particle)
 Thermal correction to Energy=                    0.012951
 Thermal correction to Enthalpy=                  0.013895
 Thermal correction to Gibbs Free Energy=        -0.009175
 Sum of electronic and zero-point Energies=           -100.948269
 Sum of electronic and thermal Energies=              -100.945858
 Sum of electronic and thermal Enthalpies=            -100.944914
 Sum of electronic and thermal Free Energies=         -100.967985

                     E (Thermal)             CV                S
                      KCal/Mol        Cal/Mol-Kelvin    Cal/Mol-Kelvin
 Total                    8.127              5.533             48.557
 Electronic               0.000              0.000              1.377
 Translational            0.889              2.981             35.068
 Rotational               0.592              1.987             11.985
 Vibrational              6.646              0.565              0.126

 Normal termination of Gaussian 16 at Fri Aug 22 16:03:14 2025.
