 Gaussian 16, Revision C.01,
 Gaussian 16:  ES64L-G16RevC.01  3-Jul-2019

 -----------------------------------------
 # sp b3lyp/6-311g** Force nosymm scf=(qc)
 -----------------------------------------

 -------------------
 Title Card Required
 -------------------
 Symbolic Z-matrix:
 Charge =  0 Multiplicity = 2

                          Input orientation:
 ---------------------------------------------------------------------
 Center     Atomic      Atomic             Coordinates (Angstroms)
 Number     Number       Type             X           Y           Z
 ---------------------------------------------------------------------
      1          1           0        0.000000    0.000000    0.000000
      2          1           0       -0.850000    0.000000    0.000000
      3          9           0        1.750000    0.000000    0.000000
 ---------------------------------------------------------------------

 SCF Done:  E(UB3LYP) =  -100.932087683     a.u. after    7 cycles

 Alpha  occ. eigenvalues --  -24.72735  -1.19167  -0.53975  -0.43747  -0.43747
 Alpha  occ. eigenvalues --   -0.43021
 Alpha virt. eigenvalues --    0.05527   0.20431   0.40021   0.90146   0.90146
 Alpha virt. eigenvalues --    0.95145   1.06976   1.06976   1.15751   1.65612
 Alpha virt. eigenvalues --    1.73819   1.73819   2.10352   2.37398   2.86957

  Beta  occ. eigenvalues --  -24.69911  -1.11233  -0.44261  -0.40957  -0.40957
  Beta virt. eigenvalues --   -0.24694   0.06860   0.21278   0.41103   0.91347
  Beta virt. eigenvalues --    0.91347   1.02369   1.08474   1.08474   1.18853
  Beta virt. eigenvalues --    1.68080   1.74681   1.74681   2.11569   2.38970

 Mulliken charges and spin densities:
               1          2
     1  H    0.058450  -0.051728
     2  H    0.036751   0.176012
     3  F   -0.095200   0.875716
 Sum of Mulliken charges =   0.00000   1.00000

 Dipole moment (field-independent basis, Debye):
    X=             -0.9408    Y=              0.0000    Z=              0.0000  Tot=              0.9408
 Quadrupole moment (field-independent basis, Debye-Ang):
   XX=             -6.6308   YY=             -6.9791   ZZ=             -6.9791
   XY=              0.0000   XZ=              0.0000   YZ=              0.0000

  Exact polarizability:      24.119       0.000       2.218      -0.000       0.000       2.218
 Approx polarizability:      30.579      -0.000       2.253      -0.000      -0.000       2.253

 ******    1 imaginary frequencies (negative Signs) ******

                      1                      2                      3
                      A                      A                      A
 Frequencies --   -430.6126              1116.2914              1116.2914
 Red. masses --      1.1078                 1.0115                 1.0115
 Frc consts  --      0.1210                 0.7427                 0.7427
 IR Inten    --    103.9976                 0.0304                 0.0304

                      4
                      A
 Frequencies --   2873.8197
 Red. masses --      1.0084
 Frc consts  --      4.9069
 IR Inten    --    630.7336

 - Thermochemistry -
 -------------------
 Temperature   298.150 Kelvin.  Pressure   1.00000 Atm.
 Atom     1 has atomic number  1 and mass   1.00783

 Molecular mass:    21.01405 amu.
 Principal axes and moments of inertia in atomic units:
                           1         2         3
     Eigenvalues --     0.00000  32.08511  32.08511
           X            1.00000  -0.00000   0.00000
           Y            0.00000   1.00000   0.00000
           Z            0.00000   0.00000   1.00000
 This molecule is a prolate symmetric top.
 Rotational symmetry number  1.
 Rotational temperature (Kelvin)      2.69951
 Rotational constant (GHZ):          56.248564
    1 imaginary frequencies ignored.
 Zero-point vibrational energy      30543.1 (Joules/Mol)
                                    7.29997 (Kcal/Mol)
 Vibrational temperatures:   1606.09  1606.09  4134.79
          (Kelvin)

 Zero-point correction=                           0.011633 (Hartree/Particle)
 Thermal correction to Energy=                    0.014040
 Thermal correction to Enthalpy=                  0.014985
 Thermal correction to Gibbs Free Energy=        -0.007773
 Sum of electronic and zero-point Energies=           -100.920454
 Sum of electronic and thermal Energies=              -100.918047
 Sum of electronic and thermal Enthalpies=            -100.917103
 Sum of electronic and thermal Free Energies=         -100.939861

                     E (Thermal)             CV                S
                      KCal/Mol        Cal/Mol-Kelvin    Cal/Mol-Kelvin
 Total                    8.811              5.501             47.898
 Electronic               0.000              0.000              1.377
 Translational            0.889              2.981             35.068
 Rotational               0.592              1.987             11.336
 Vibrational              7.329              0.533              0.117

 Normal termination of Gaussian 16 at Fri Aug 22 16:39:24 2025.
