 Gaussian 16, Revision C.01,
 Gaussian 16:  ES64L-G16RevC.01  3-Jul-2019

 -----------------------------------------
 # sp b3lyp/6-311g** Force nosymm scf=(qc)
 -----------------------------------------

 -------------------
 Title Card Required
 -------------------
 Symbolic Z-matrix:
 Charge =  0 Multiplicity = 2

                          Input orientation:
 ---------------------------------------------------------------------
 Center     Atomic      Atomic             Coordinates (Angstroms)
 Number     Number       Type             X           Y           Z
 ---------------------------------------------------------------------
      1          1           0        0.000000    0.000000    0.000000
      2          1           0       -1.000000    0.000000    0.000000
      3          9           0        0.650000    0.000000    0.000000
 ---------------------------------------------------------------------

 SCF Done:  E(UB3LYP) =  -100.757022038     a.u. after    6 cycles

 Alpha  occ. eigenvalues --  -24.64767  -1.34407  -0.64522  -0.44159  -0.44159
 Alpha  occ. eigenvalues --   -0.33970
 Alpha virt. eigenvalues --    0.16316   0.19721   0.72885   0.88630   0.88630
 Alpha virt. eigenvalues --    0.91984   1.09635   1.09635   1.48054   1.70586
 Alpha virt. eigenvalues --    1.70586   1.76181   2.10521   2.39864   3.76703

  Beta  occ. eigenvalues --  -24.64360  -1.33144  -0.62264  -0.43830  -0.43830
  Beta virt. eigenvalues --   -0.12702   0.17076   0.26139   0.78254   0.89960
  Beta virt. eigenvalues --    0.89960   0.93107   1.17446   1.17446   1.48976
  Beta virt. eigenvalues --    1.76407   1.76407   1.82685   2.19310   2.54689

 Mulliken charges and spin densities:
               1          2
     1  H    0.255788  -0.004975
     2  H   -0.026598   0.949408
     3  F   -0.229189   0.055567
 Sum of Mulliken charges =   0.00000   1.00000

 Dipole moment (field-independent basis, Debye):
    X=             -1.1546    Y=             -0.0000    Z=              0.0000  Tot=              1.1546
 Quadrupole moment (field-independent basis, Debye-Ang):
   XX=             -7.3116   YY=             -6.4544   ZZ=             -6.4544
   XY=             -0.0000   XZ=              0.0000   YZ=              0.0000

  Exact polarizability:       7.494      -0.000       2.539      -0.000      -0.000       2.539
 Approx polarizability:       7.313       0.000       2.596      -0.000      -0.000       2.596

 ******    2 imaginary frequencies (negative Signs) ******

                      1                      2                      3
                      A                      A                      A
 Frequencies --  -4548.1737             -4548.1737              2106.5124
 Red. masses --      1.0239                 1.0239                 1.0550
 Frc consts  --     12.4792                12.4792                 2.7583
 IR Inten    --    135.6697               135.6697                84.5026

                      4
                      A
 Frequencies --  10847.6571
 Red. masses --      1.0565
 Frc consts  --     73.2479
 IR Inten    --     66.5360

 - Thermochemistry -
 -------------------
 Temperature   298.150 Kelvin.  Pressure   1.00000 Atm.
 Atom     1 has atomic number  1 and mass   1.00783

 Molecular mass:    21.01405 amu.
 Principal axes and moments of inertia in atomic units:
                           1         2         3
     Eigenvalues --     0.00000  10.40579  10.40579
           X            1.00000  -0.00000   0.00000
           Y            0.00000   1.00000   0.00000
           Z            0.00000   0.00000   1.00000
 This molecule is a prolate symmetric top.
 Rotational symmetry number  1.
 Rotational temperature (Kelvin)      8.32363
 Rotational constant (GHZ):         173.436229
    2 imaginary frequencies ignored.
 Zero-point vibrational energy      77483.1 (Joules/Mol)
                                   18.51891 (Kcal/Mol)
 Vibrational temperatures:   3030.80 15607.36
          (Kelvin)

 Zero-point correction=                           0.029512 (Hartree/Particle)
 Thermal correction to Energy=                    0.031873
 Thermal correction to Enthalpy=                  0.032817
 Thermal correction to Gibbs Free Energy=         0.011177
 Sum of electronic and zero-point Energies=           -100.727510
 Sum of electronic and thermal Energies=              -100.725149
 Sum of electronic and thermal Enthalpies=            -100.724205
 Sum of electronic and thermal Free Energies=         -100.745845

                     E (Thermal)             CV                S
                      KCal/Mol        Cal/Mol-Kelvin    Cal/Mol-Kelvin
 Total                   20.000              4.976             45.545
 Electronic               0.000              0.000              1.377
 Translational            0.889              2.981             35.068
 Rotational               0.592              1.987              9.098
 Vibrational             18.519              0.008              0.001

 Normal termination of Gaussian 16 at Fri Aug 22 15:43:22 2025.
