 Gaussian 16, Revision C.01,
 Gaussian 16:  ES64L-G16RevC.01  3-Jul-2019

 -----------------------------------------
 # sp b3lyp/6-311g** Force nosymm scf=(qc)
 -----------------------------------------

 -------------------
 Title Card Required
 -------------------
 Symbolic Z-matrix:
 Charge =  0 Multiplicity = 2

                          Input orientation:
 ---------------------------------------------------------------------
 Center     Atomic      Atomic             Coordinates (Angstroms)
 Number     Number       Type             X           Y           Z
 ---------------------------------------------------------------------
      1          1           0        0.000000    0.000000    0.000000
      2          1           0       -2.600000    0.000000    0.000000
      3          9           0        3.450000    0.000000    0.000000
 ---------------------------------------------------------------------

 SCF Done:  E(UB3LYP) =  -100.762127332     a.u. after   29 cycles

 Alpha  occ. eigenvalues --  -24.75351  -1.21316  -0.54473  -0.45737  -0.45737
 Alpha  occ. eigenvalues --   -0.32641
 Alpha virt. eigenvalues --   -0.09279   0.25542   0.34539   0.87774   0.91501
 Alpha virt. eigenvalues --    0.91501   1.01925   1.24974   1.24974   1.26537
 Alpha virt. eigenvalues --    1.41816   1.41816   1.42851   2.15905   2.37496

  Beta  occ. eigenvalues --  -24.72240  -1.12379  -0.42620  -0.42620  -0.33008
  Beta virt. eigenvalues --   -0.25476  -0.08718   0.25348   0.35357   0.92989
  Beta virt. eigenvalues --    0.92989   0.96908   1.05947   1.24537   1.24537
  Beta virt. eigenvalues --    1.26015   1.42696   1.42696   1.43734   2.16435

 Mulliken charges and spin densities:
               1          2
     1  H    0.010407  -0.963694
     2  H    0.001993   0.977534
     3  F   -0.012400   0.986160
 Sum of Mulliken charges =  -0.00000   1.00000

 Dipole moment (field-independent basis, Debye):
    X=             -0.2444    Y=             -0.0000    Z=              0.0000  Tot=              0.2444
 Quadrupole moment (field-independent basis, Debye-Ang):
   XX=             -7.2335   YY=             -7.6562   ZZ=             -7.6562
   XY=             -0.0000   XZ=              0.0000   YZ=              0.0000

  Exact polarizability:      32.740      -0.000       2.024       0.000       0.000       2.024
 Approx polarizability:      25.072      -0.000       1.929       0.000      -0.000       1.929

 ******    2 imaginary frequencies (negative Signs) ******

                      1                      2                      3
                      A                      A                      A
 Frequencies --   -586.8396              -145.5860               212.9553
 Red. masses --      1.0083                 1.1079                 1.0149
 Frc consts  --      0.2046                 0.0138                 0.0271
 IR Inten    --      7.3156                 6.8187                 0.0792

                      4
                      A
 Frequencies --    212.9553
 Red. masses --      1.0149
 Frc consts  --      0.0271
 IR Inten    --      0.0792

 - Thermochemistry -
 -------------------
 Temperature   298.150 Kelvin.  Pressure   1.00000 Atm.
 Atom     1 has atomic number  1 and mass   1.00783

 Molecular mass:    21.01405 amu.
 Principal axes and moments of inertia in atomic units:
                           1         2         3
     Eigenvalues --     0.00000 158.99214 158.99214
           X            1.00000  -0.00000   0.00000
           Y            0.00000   1.00000   0.00000
           Z            0.00000   0.00000   1.00000
 This molecule is a prolate symmetric top.
 Rotational symmetry number  1.
 Rotational temperature (Kelvin)      0.54477
 Rotational constant (GHZ):          11.351135
    2 imaginary frequencies ignored.
 Zero-point vibrational energy       2547.5 (Joules/Mol)
                                    0.60887 (Kcal/Mol)
 Warning -- explicit consideration of   2 degrees of freedom as
           vibrations may cause significant error
 Vibrational temperatures:    306.40   306.40
          (Kelvin)

 Zero-point correction=                           0.000970 (Hartree/Particle)
 Thermal correction to Energy=                    0.004412
 Thermal correction to Enthalpy=                  0.005356
 Thermal correction to Gibbs Free Energy=        -0.020775
 Sum of electronic and zero-point Energies=           -100.761157
 Sum of electronic and thermal Energies=              -100.757715
 Sum of electronic and thermal Enthalpies=            -100.756771
 Sum of electronic and thermal Free Energies=         -100.782902

                     E (Thermal)             CV                S
                      KCal/Mol        Cal/Mol-Kelvin    Cal/Mol-Kelvin
 Total                    2.769              8.610             54.998
 Electronic               0.000              0.000              1.377
 Translational            0.889              2.981             35.068
 Rotational               0.592              1.987             14.517
 Vibrational              1.287              3.642              4.036
 Vibration     1          0.644              1.821              2.018
 Vibration     2          0.644              1.821              2.018

 Normal termination of Gaussian 16 at Fri Aug 22 21:41:59 2025.
