 Gaussian 16, Revision C.01,
 Gaussian 16:  ES64L-G16RevC.01  3-Jul-2019

 -----------------------------------------
 # sp b3lyp/6-311g** Force nosymm scf=(qc)
 -----------------------------------------

 -------------------
 Title Card Required
 -------------------
 Symbolic Z-matrix:
 Charge =  0 Multiplicity = 2

                          Input orientation:
 ---------------------------------------------------------------------
 Center     Atomic      Atomic             Coordinates (Angstroms)
 Number     Number       Type             X           Y           Z
 ---------------------------------------------------------------------
      1          1           0        0.000000    0.000000    0.000000
      2          1           0       -2.300000    0.000000    0.000000
      3          9           0        2.000000    0.000000    0.000000
 ---------------------------------------------------------------------

 SCF Done:  E(UB3LYP) =  -100.793114511     a.u. after   12 cycles

 Alpha  occ. eigenvalues --  -24.68073  -1.14393  -0.47083  -0.39607  -0.39607
 Alpha  occ. eigenvalues --   -0.35427
 Alpha virt. eigenvalues --   -0.13853   0.24126   0.30818   0.89572   0.94998
 Alpha virt. eigenvalues --    0.94998   1.06069   1.22316   1.22316   1.26882
 Alpha virt. eigenvalues --    1.34566   1.34566   1.59688   2.12409   2.28747

  Beta  occ. eigenvalues --  -24.65701  -1.07763  -0.37601  -0.37269  -0.37269
  Beta virt. eigenvalues --   -0.20933  -0.10682   0.25418   0.33621   0.91970
  Beta virt. eigenvalues --    0.95676   0.95676   1.08793   1.22612   1.22612
  Beta virt. eigenvalues --    1.39363   1.39363   1.42412   1.53615   2.12654

 Mulliken charges and spin densities:
               1          2
     1  H    0.164746  -0.694885
     2  H    0.027002   0.949123
     3  F   -0.191748   0.745762
 Sum of Mulliken charges =  -0.00000   1.00000

 Dipole moment (field-independent basis, Debye):
    X=             -2.1963    Y=             -0.0000    Z=              0.0000  Tot=              2.1963
 Quadrupole moment (field-independent basis, Debye-Ang):
   XX=             -9.1683   YY=             -7.5335   ZZ=             -7.5335
   XY=             -0.0000   XZ=              0.0000   YZ=              0.0000

  Exact polarizability:      42.232      -0.000       2.058       0.000      -0.000       2.058
 Approx polarizability:      49.806      -0.000       1.954       0.000      -0.000       1.954

 ******    2 imaginary frequencies (negative Signs) ******

                      1                      2                      3
                      A                      A                      A
 Frequencies --  -1299.1636              -478.1695               543.0169
 Red. masses --      1.0341                 1.0784                 1.0197
 Frc consts  --      1.0283                 0.1453                 0.1772
 IR Inten    --     85.9547                25.5050                20.7353

                      4
                      A
 Frequencies --    543.0169
 Red. masses --      1.0197
 Frc consts  --      0.1772
 IR Inten    --     20.7353

 - Thermochemistry -
 -------------------
 Temperature   298.150 Kelvin.  Pressure   1.00000 Atm.
 Atom     1 has atomic number  1 and mass   1.00783

 Molecular mass:    21.01405 amu.
 Principal axes and moments of inertia in atomic units:
                           1         2         3
     Eigenvalues --     0.00000  74.09093  74.09093
           X            1.00000  -0.00000   0.00000
           Y            0.00000   1.00000   0.00000
           Z            0.00000   0.00000   1.00000
 This molecule is a prolate symmetric top.
 Rotational symmetry number  1.
 Rotational temperature (Kelvin)      1.16902
 Rotational constant (GHZ):          24.358462
    2 imaginary frequencies ignored.
 Zero-point vibrational energy       6495.9 (Joules/Mol)
                                    1.55256 (Kcal/Mol)
 Warning -- explicit consideration of   2 degrees of freedom as
           vibrations may cause significant error
 Vibrational temperatures:    781.28   781.28
          (Kelvin)

 Zero-point correction=                           0.002474 (Hartree/Particle)
 Thermal correction to Energy=                    0.005223
 Thermal correction to Enthalpy=                  0.006167
 Thermal correction to Gibbs Free Energy=        -0.017857
 Sum of electronic and zero-point Energies=           -100.790640
 Sum of electronic and thermal Energies=              -100.787892
 Sum of electronic and thermal Enthalpies=            -100.786947
 Sum of electronic and thermal Free Energies=         -100.810971

                     E (Thermal)             CV                S
                      KCal/Mol        Cal/Mol-Kelvin    Cal/Mol-Kelvin
 Total                    3.277              7.278             50.562
 Electronic               0.000              0.000              1.377
 Translational            0.889              2.981             35.068
 Rotational               0.592              1.987             12.999
 Vibrational              1.796              2.310              1.118
 Vibration     1          0.898              1.155              0.559
 Vibration     2          0.898              1.155              0.559

 Normal termination of Gaussian 16 at Fri Aug 22 16:56:45 2025.
