 Gaussian 16, Revision C.01,
 Gaussian 16:  ES64L-G16RevC.01  3-Jul-2019

 -----------------------------------------
 # sp b3lyp/6-311g** Force nosymm scf=(qc)
 -----------------------------------------

 -------------------
 Title Card Required
 -------------------
 Symbolic Z-matrix:
 Charge =  0 Multiplicity = 2

                          Input orientation:
 ---------------------------------------------------------------------
 Center     Atomic      Atomic             Coordinates (Angstroms)
 Number     Number       Type             X           Y           Z
 ---------------------------------------------------------------------
      1          1           0        0.000000    0.000000    0.000000
      2          1           0       -1.900000    0.000000    0.000000
      3          9           0        0.750000    0.000000    0.000000
 ---------------------------------------------------------------------

 SCF Done:  E(UB3LYP) =  -100.921456250     a.u. after    6 cycles

 Alpha  occ. eigenvalues --  -24.63280  -1.25358  -0.57504  -0.41045  -0.41045
 Alpha  occ. eigenvalues --   -0.35643
 Alpha virt. eigenvalues --    0.10108   0.23829   0.46850   0.94037   0.94037
 Alpha virt. eigenvalues --    0.96853   1.17682   1.21515   1.21515   1.42160
 Alpha virt. eigenvalues --    1.42160   1.54901   2.00002   2.17766   2.70765

  Beta  occ. eigenvalues --  -24.63230  -1.25221  -0.57240  -0.41007  -0.41007
  Beta virt. eigenvalues --   -0.11192   0.11726   0.34054   0.47979   0.94047
  Beta virt. eigenvalues --    0.94047   0.97054   1.26963   1.38963   1.38963
  Beta virt. eigenvalues --    1.44392   1.44392   1.62925   2.04186   2.38389

 Mulliken charges and spin densities:
               1          2
     1  H    0.252306   0.010183
     2  H    0.012209   0.979608
     3  F   -0.264515   0.010209
 Sum of Mulliken charges =   0.00000   1.00000

 Dipole moment (field-independent basis, Debye):
    X=             -1.7700    Y=              0.0000    Z=              0.0000  Tot=              1.7700
 Quadrupole moment (field-independent basis, Debye-Ang):
   XX=             -7.1412   YY=             -6.6728   ZZ=             -6.6728
   XY=              0.0000   XZ=              0.0000   YZ=             -0.0000

  Exact polarizability:       7.220       0.000       2.508      -0.000       0.000       2.508
 Approx polarizability:       7.202      -0.000       2.502       0.000       0.000       2.502

 ******    2 imaginary frequencies (negative Signs) ******

                      1                      2                      3
                      A                      A                      A
 Frequencies --  -2656.1501             -2656.1501               379.6461
 Red. masses --      1.0319                 1.0319                 1.0533
 Frc consts  --      4.2893                 4.2893                 0.0894
 IR Inten    --    165.5636               165.5636                 0.1344

                      4
                      A
 Frequencies --   7576.3166
 Red. masses --      1.0583
 Frc consts  --     35.7906
 IR Inten    --    155.9116

 - Thermochemistry -
 -------------------
 Temperature   298.150 Kelvin.  Pressure   1.00000 Atm.
 Atom     1 has atomic number  1 and mass   1.00783

 Molecular mass:    21.01405 amu.
 Principal axes and moments of inertia in atomic units:
                           1         2         3
     Eigenvalues --     0.00000  25.30314  25.30314
           X            1.00000  -0.00000   0.00000
           Y            0.00000   1.00000   0.00000
           Z            0.00000   0.00000   1.00000
 This molecule is a prolate symmetric top.
 Rotational symmetry number  1.
 Rotational temperature (Kelvin)      3.42305
 Rotational constant (GHZ):          71.324781
    2 imaginary frequencies ignored.
 Zero-point vibrational energy      47587.2 (Joules/Mol)
                                   11.37362 (Kcal/Mol)
 Warning -- explicit consideration of   1 degrees of freedom as
           vibrations may cause significant error
 Vibrational temperatures:    546.23 10900.63
          (Kelvin)

 Zero-point correction=                           0.018125 (Hartree/Particle)
 Thermal correction to Energy=                    0.020815
 Thermal correction to Enthalpy=                  0.021759
 Thermal correction to Gibbs Free Energy=        -0.001213
 Sum of electronic and zero-point Energies=           -100.903331
 Sum of electronic and thermal Energies=              -100.900641
 Sum of electronic and thermal Enthalpies=            -100.899697
 Sum of electronic and thermal Free Energies=         -100.922670

                     E (Thermal)             CV                S
                      KCal/Mol        Cal/Mol-Kelvin    Cal/Mol-Kelvin
 Total                   13.062              6.482             48.350
 Electronic               0.000              0.000              1.377
 Translational            0.889              2.981             35.068
 Rotational               0.592              1.987             10.864
 Vibrational             11.581              1.514              1.041
 Vibration     1          0.750              1.514              1.041

 Normal termination of Gaussian 16 at Fri Aug 22 15:48:41 2025.
