 Gaussian 16, Revision C.01,
 Gaussian 16:  ES64L-G16RevC.01  3-Jul-2019

 -----------------------------------------
 # sp b3lyp/6-311g** Force nosymm scf=(qc)
 -----------------------------------------

 -------------------
 Title Card Required
 -------------------
 Symbolic Z-matrix:
 Charge =  0 Multiplicity = 2

                          Input orientation:
 ---------------------------------------------------------------------
 Center     Atomic      Atomic             Coordinates (Angstroms)
 Number     Number       Type             X           Y           Z
 ---------------------------------------------------------------------
      1          1           0        0.000000    0.000000    0.000000
      2          1           0       -3.700000    0.000000    0.000000
      3          9           0        2.250000    0.000000    0.000000
 ---------------------------------------------------------------------

 SCF Done:  E(UB3LYP) =  -100.774167270     a.u. after   16 cycles

 Alpha  occ. eigenvalues --  -24.67409  -1.08837  -0.38673  -0.38673  -0.36522
 Alpha  occ. eigenvalues --   -0.32979
 Alpha virt. eigenvalues --   -0.22192   0.20705   0.27743   0.92020   0.95549
 Alpha virt. eigenvalues --    0.95549   1.08212   1.21535   1.21535   1.24484
 Alpha virt. eigenvalues --    1.24484   1.24500   1.39546   2.10401   2.15835

  Beta  occ. eigenvalues --  -24.70076  -1.16375  -0.49144  -0.41320  -0.41320
  Beta virt. eigenvalues --   -0.12164  -0.04528   0.31325   0.40211   0.88554
  Beta virt. eigenvalues --    0.94394   0.94394   1.06091   1.38101   1.38101
  Beta virt. eigenvalues --    1.48038   1.48038   1.48107   1.50178   2.32883

 Mulliken charges and spin densities:
               1          2
     1  H    0.134170   0.841128
     2  H    0.000642   0.999371
     3  F   -0.134812  -0.840499
 Sum of Mulliken charges =  -0.00000   1.00000

 Dipole moment (field-independent basis, Debye):
    X=             -1.5354    Y=              0.0000    Z=             -0.0000  Tot=              1.5354
 Quadrupole moment (field-independent basis, Debye-Ang):
   XX=             -9.8003   YY=             -7.5261   ZZ=             -7.5261
   XY=              0.0000   XZ=              0.0000   YZ=              0.0000

  Exact polarizability:      28.386       0.000       2.037       0.000      -0.000       2.037
 Approx polarizability:      39.139       0.000       1.927       0.000       0.000       1.927

 ******    1 imaginary frequencies (negative Signs) ******

                      1                      2                      3
                      A                      A                      A
 Frequencies --   -802.4518                58.9203               334.0917
 Red. masses --      1.0591                 1.0524                 1.0249
 Frc consts  --      0.4018                 0.0022                 0.0674
 IR Inten    --     97.6571                 0.0656                17.2888

                      4
                      A
 Frequencies --    334.0917
 Red. masses --      1.0249
 Frc consts  --      0.0674
 IR Inten    --     17.2888

 - Thermochemistry -
 -------------------
 Temperature   298.150 Kelvin.  Pressure   1.00000 Atm.
 Atom     1 has atomic number  1 and mass   1.00783

 Molecular mass:    21.01405 amu.
 Principal axes and moments of inertia in atomic units:
                           1         2         3
     Eigenvalues --     0.00000 134.02779 134.02779
           X            1.00000  -0.00000   0.00000
           Y            0.00000   1.00000   0.00000
           Z            0.00000   0.00000   1.00000
 This molecule is a prolate symmetric top.
 Rotational symmetry number  1.
 Rotational temperature (Kelvin)      0.64624
 Rotational constant (GHZ):          13.465425
    1 imaginary frequencies ignored.
 Zero-point vibrational energy       4349.0 (Joules/Mol)
                                    1.03945 (Kcal/Mol)
 Warning -- explicit consideration of   3 degrees of freedom as
           vibrations may cause significant error
 Vibrational temperatures:     84.77   480.68   480.68
          (Kelvin)

 Zero-point correction=                           0.001656 (Hartree/Particle)
 Thermal correction to Energy=                    0.005592
 Thermal correction to Enthalpy=                  0.006536
 Thermal correction to Gibbs Free Energy=        -0.020830
 Sum of electronic and zero-point Energies=           -100.772511
 Sum of electronic and thermal Energies=              -100.768576
 Sum of electronic and thermal Enthalpies=            -100.767631
 Sum of electronic and thermal Free Energies=         -100.794997

                     E (Thermal)             CV                S
                      KCal/Mol        Cal/Mol-Kelvin    Cal/Mol-Kelvin
 Total                    3.509             10.157             57.596
 Electronic               0.000              0.000              1.377
 Translational            0.889              2.981             35.068
 Rotational               0.592              1.987             14.177
 Vibrational              2.028              5.189              6.973
 Vibration     1          0.596              1.974              4.493
 Vibration     2          0.716              1.607              1.240
 Vibration     3          0.716              1.607              1.240

 Normal termination of Gaussian 16 at Fri Aug 22 17:18:00 2025.
