 Gaussian 16, Revision C.01,
 Gaussian 16:  ES64L-G16RevC.01  3-Jul-2019

 -----------------------------------------
 # sp b3lyp/6-311g** Force nosymm scf=(qc)
 -----------------------------------------

 -------------------
 Title Card Required
 -------------------
 Symbolic Z-matrix:
 Charge =  0 Multiplicity = 2

                          Input orientation:
 ---------------------------------------------------------------------
 Center     Atomic      Atomic             Coordinates (Angstroms)
 Number     Number       Type             X           Y           Z
 ---------------------------------------------------------------------
      1          1           0        0.000000    0.000000    0.000000
      2          1           0       -0.850000    0.000000    0.000000
      3          9           0        0.700000    0.000000    0.000000
 ---------------------------------------------------------------------

 SCF Done:  E(UB3LYP) =  -100.806289667     a.u. after    6 cycles

 Alpha  occ. eigenvalues --  -24.65896  -1.32761  -0.65971  -0.44377  -0.44377
 Alpha  occ. eigenvalues --   -0.32677
 Alpha virt. eigenvalues --    0.16678   0.18769   0.74891   0.87365   0.87365
 Alpha virt. eigenvalues --    0.93145   1.09114   1.09114   1.45620   1.73171
 Alpha virt. eigenvalues --    1.76757   1.76757   2.21554   2.41708   3.76515

  Beta  occ. eigenvalues --  -24.65253  -1.30850  -0.62493  -0.43837  -0.43837
  Beta virt. eigenvalues --   -0.12872   0.17389   0.24216   0.79820   0.89125
  Beta virt. eigenvalues --    0.89125   0.94972   1.15345   1.15345   1.47092
  Beta virt. eigenvalues --    1.79756   1.82491   1.82491   2.29934   2.51605

 Mulliken charges and spin densities:
               1          2
     1  H    0.261980  -0.020740
     2  H   -0.049173   0.916015
     3  F   -0.212807   0.104725
 Sum of Mulliken charges =   0.00000   1.00000

 Dipole moment (field-independent basis, Debye):
    X=             -1.0576    Y=             -0.0000    Z=              0.0000  Tot=              1.0576
 Quadrupole moment (field-independent basis, Debye-Ang):
   XX=             -7.4555   YY=             -6.4652   ZZ=             -6.4652
   XY=             -0.0000   XZ=              0.0000   YZ=              0.0000

  Exact polarizability:       8.441       0.000       2.535      -0.000      -0.000       2.535
 Approx polarizability:       8.466       0.000       2.605      -0.000      -0.000       2.605

 ******    2 imaginary frequencies (negative Signs) ******

                      1                      2                      3
                      A                      A                      A
 Frequencies --  -3820.9311             -3820.9311              2768.5970
 Red. masses --      1.0205                 1.0205                 1.0586
 Frc consts  --      8.7778                 8.7778                 4.7807
 IR Inten    --    116.8837               116.8837               138.4072

                      4
                      A
 Frequencies --   9058.2450
 Red. masses --      1.0530
 Frc consts  --     50.9048
 IR Inten    --     53.7971

 - Thermochemistry -
 -------------------
 Temperature   298.150 Kelvin.  Pressure   1.00000 Atm.
 Atom     1 has atomic number  1 and mass   1.00783

 Molecular mass:    21.01405 amu.
 Principal axes and moments of inertia in atomic units:
                           1         2         3
     Eigenvalues --     0.00000   9.53631   9.53631
           X            1.00000  -0.00000   0.00000
           Y            0.00000   1.00000   0.00000
           Z            0.00000   0.00000   1.00000
 This molecule is a prolate symmetric top.
 Rotational symmetry number  1.
 Rotational temperature (Kelvin)      9.08254
 Rotational constant (GHZ):         189.249433
    2 imaginary frequencies ignored.
 Zero-point vibrational energy      70740.2 (Joules/Mol)
                                   16.90732 (Kcal/Mol)
 Vibrational temperatures:   3983.39 13032.79
          (Kelvin)

 Zero-point correction=                           0.026944 (Hartree/Particle)
 Thermal correction to Energy=                    0.029304
 Thermal correction to Enthalpy=                  0.030248
 Thermal correction to Gibbs Free Energy=         0.008691
 Sum of electronic and zero-point Energies=           -100.779346
 Sum of electronic and thermal Energies=              -100.776986
 Sum of electronic and thermal Enthalpies=            -100.776041
 Sum of electronic and thermal Free Energies=         -100.797598

                     E (Thermal)             CV                S
                      KCal/Mol        Cal/Mol-Kelvin    Cal/Mol-Kelvin
 Total                   18.389              4.969             45.370
 Electronic               0.000              0.000              1.377
 Translational            0.889              2.981             35.068
 Rotational               0.592              1.987              8.925
 Vibrational             16.907              0.001              0.000

 Normal termination of Gaussian 16 at Fri Aug 22 15:45:37 2025.
