 Gaussian 16, Revision C.01,
 Gaussian 16:  ES64L-G16RevC.01  3-Jul-2019

 -----------------------------------------
 # sp b3lyp/6-311g** Force nosymm scf=(qc)
 -----------------------------------------

 -------------------
 Title Card Required
 -------------------
 Symbolic Z-matrix:
 Charge =  0 Multiplicity = 2

                          Input orientation:
 ---------------------------------------------------------------------
 Center     Atomic      Atomic             Coordinates (Angstroms)
 Number     Number       Type             X           Y           Z
 ---------------------------------------------------------------------
      1          1           0        0.000000    0.000000    0.000000
      2          1           0       -1.200000    0.000000    0.000000
      3          9           0        1.550000    0.000000    0.000000
 ---------------------------------------------------------------------

 SCF Done:  E(UB3LYP) =  -100.898210143     a.u. after   13 cycles

 Alpha  occ. eigenvalues --  -24.67696  -1.14577  -0.50330  -0.39762  -0.39660
 Alpha  occ. eigenvalues --   -0.39660
 Alpha virt. eigenvalues --   -0.02024   0.20322   0.31510   0.91575   0.91575
 Alpha virt. eigenvalues --    0.98616   1.07906   1.09863   1.09863   1.51912
 Alpha virt. eigenvalues --    1.51912   1.55357   2.07471   2.25226   2.50688

  Beta  occ. eigenvalues --  -24.65601  -1.08858  -0.42117  -0.37629  -0.37629
  Beta virt. eigenvalues --   -0.23215   0.00888   0.22423   0.32835   0.92233
  Beta virt. eigenvalues --    0.92233   1.04311   1.10867   1.13659   1.13659
  Beta virt. eigenvalues --    1.53730   1.53730   1.59465   2.10936   2.29207

 Mulliken charges and spin densities:
               1          2
     1  H    0.171473  -0.162593
     2  H    0.065838   0.518054
     3  F   -0.237311   0.644539
 Sum of Mulliken charges =  -0.00000   1.00000

 Dipole moment (field-independent basis, Debye):
    X=             -2.1679    Y=              0.0000    Z=              0.0000  Tot=              2.1679
 Quadrupole moment (field-independent basis, Debye-Ang):
   XX=             -7.6446   YY=             -7.1685   ZZ=             -7.1685
   XY=              0.0000   XZ=              0.0000   YZ=             -0.0000

  Exact polarizability:      34.292       0.000       2.338       0.000      -0.000       2.338
 Approx polarizability:      52.444       0.000       2.304       0.000       0.000       2.304

 ******    1 imaginary frequencies (negative Signs) ******

                      1                      2                      3
                      A                      A                      A
 Frequencies --  -2435.6141               330.1507              1242.1453
 Red. masses --      1.0233                 1.0904                 1.0151
 Frc consts  --      3.5765                 0.0700                 0.9228
 IR Inten    --   1027.9542                20.8688                 8.0522

                      4
                      A
 Frequencies --   1242.1453
 Red. masses --      1.0151
 Frc consts  --      0.9228
 IR Inten    --      8.0522

 - Thermochemistry -
 -------------------
 Temperature   298.150 Kelvin.  Pressure   1.00000 Atm.
 Atom     1 has atomic number  1 and mass   1.00783

 Molecular mass:    21.01405 amu.
 Principal axes and moments of inertia in atomic units:
                           1         2         3
     Eigenvalues --     0.00000  32.67262  32.67262
           X            1.00000  -0.00000   0.00000
           Y            0.00000   1.00000   0.00000
           Z            0.00000   0.00000   1.00000
 This molecule is a prolate symmetric top.
 Rotational symmetry number  1.
 Rotational temperature (Kelvin)      2.65096
 Rotational constant (GHZ):          55.237116
    1 imaginary frequencies ignored.
 Zero-point vibrational energy      16834.1 (Joules/Mol)
                                    4.02345 (Kcal/Mol)
 Warning -- explicit consideration of   1 degrees of freedom as
           vibrations may cause significant error
 Vibrational temperatures:    475.01  1787.17  1787.17
          (Kelvin)

 Zero-point correction=                           0.006412 (Hartree/Particle)
 Thermal correction to Energy=                    0.009184
 Thermal correction to Enthalpy=                  0.010129
 Thermal correction to Gibbs Free Energy=        -0.013223
 Sum of electronic and zero-point Energies=           -100.891798
 Sum of electronic and thermal Energies=              -100.889026
 Sum of electronic and thermal Enthalpies=            -100.888082
 Sum of electronic and thermal Free Energies=         -100.911433

                     E (Thermal)             CV                S
                      KCal/Mol        Cal/Mol-Kelvin    Cal/Mol-Kelvin
 Total                    5.763              6.941             49.146
 Electronic               0.000              0.000              1.377
 Translational            0.889              2.981             35.068
 Rotational               0.592              1.987             11.372
 Vibrational              4.282              1.973              1.329
 Vibration     1          0.713              1.615              1.259

 Normal termination of Gaussian 16 at Fri Aug 22 16:27:32 2025.
