 Gaussian 16, Revision C.01,
 Gaussian 16:  ES64L-G16RevC.01  3-Jul-2019

 -----------------------------------------
 # sp b3lyp/6-311g** Force nosymm scf=(qc)
 -----------------------------------------

 -------------------
 Title Card Required
 -------------------
 Symbolic Z-matrix:
 Charge =  0 Multiplicity = 2

                          Input orientation:
 ---------------------------------------------------------------------
 Center     Atomic      Atomic             Coordinates (Angstroms)
 Number     Number       Type             X           Y           Z
 ---------------------------------------------------------------------
      1          1           0        0.000000    0.000000    0.000000
      2          1           0       -3.100000    0.000000    0.000000
      3          9           0        2.950000    0.000000    0.000000
 ---------------------------------------------------------------------

 SCF Done:  E(UB3LYP) =  -100.762023058     a.u. after   21 cycles

 Alpha  occ. eigenvalues --  -24.73914  -1.19986  -0.53032  -0.44531  -0.44531
 Alpha  occ. eigenvalues --   -0.32708
 Alpha virt. eigenvalues --   -0.08971   0.24466   0.35304   0.89598   0.92378
 Alpha virt. eigenvalues --    0.92378   1.04227   1.24822   1.24822   1.25435
 Alpha virt. eigenvalues --    1.42679   1.42679   1.43144   2.15335   2.38942

  Beta  occ. eigenvalues --  -24.70899  -1.11350  -0.41514  -0.41514  -0.33879
  Beta virt. eigenvalues --   -0.24680  -0.07403   0.24514   0.37008   0.93836
  Beta virt. eigenvalues --    0.93836   0.98233   1.07959   1.23473   1.23473
  Beta virt. eigenvalues --    1.24418   1.44871   1.45012   1.45012   2.15637

 Mulliken charges and spin densities:
               1          2
     1  H    0.039321  -0.949483
     2  H    0.001353   0.994321
     3  F   -0.040674   0.955162
 Sum of Mulliken charges =  -0.00000   1.00000

 Dipole moment (field-independent basis, Debye):
    X=             -0.6361    Y=             -0.0000    Z=              0.0000  Tot=              0.6361
 Quadrupole moment (field-independent basis, Debye-Ang):
   XX=             -8.3256   YY=             -7.6161   ZZ=             -7.6161
   XY=             -0.0000   XZ=              0.0000   YZ=              0.0000

  Exact polarizability:      34.395      -0.000       2.022       0.000       0.000       2.022
 Approx polarizability:      34.823      -0.000       1.924       0.000      -0.000       1.924

 ******    2 imaginary frequencies (negative Signs) ******

                      1                      2                      3
                      A                      A                      A
 Frequencies --   -437.6944              -175.7189               160.5181
 Red. masses --      1.0328                 1.0798                 1.0186
 Frc consts  --      0.1166                 0.0196                 0.0155
 IR Inten    --     39.9500                 3.6900                 1.3988

                      4
                      A
 Frequencies --    160.5181
 Red. masses --      1.0186
 Frc consts  --      0.0155
 IR Inten    --      1.3988

 - Thermochemistry -
 -------------------
 Temperature   298.150 Kelvin.  Pressure   1.00000 Atm.
 Atom     1 has atomic number  1 and mass   1.00783

 Molecular mass:    21.01405 amu.
 Principal axes and moments of inertia in atomic units:
                           1         2         3
     Eigenvalues --     0.00000 149.07192 149.07192
           X            1.00000  -0.00000   0.00000
           Y            0.00000   1.00000   0.00000
           Z            0.00000   0.00000   1.00000
 This molecule is a prolate symmetric top.
 Rotational symmetry number  1.
 Rotational temperature (Kelvin)      0.58102
 Rotational constant (GHZ):          12.106513
    2 imaginary frequencies ignored.
 Zero-point vibrational energy       1920.2 (Joules/Mol)
                                    0.45894 (Kcal/Mol)
 Warning -- explicit consideration of   2 degrees of freedom as
           vibrations may cause significant error
 Vibrational temperatures:    230.95   230.95
          (Kelvin)

 Zero-point correction=                           0.000731 (Hartree/Particle)
 Thermal correction to Energy=                    0.004342
 Thermal correction to Enthalpy=                  0.005287
 Thermal correction to Gibbs Free Energy=        -0.021283
 Sum of electronic and zero-point Energies=           -100.761292
 Sum of electronic and thermal Energies=              -100.757681
 Sum of electronic and thermal Enthalpies=            -100.756737
 Sum of electronic and thermal Free Energies=         -100.783307

                     E (Thermal)             CV                S
                      KCal/Mol        Cal/Mol-Kelvin    Cal/Mol-Kelvin
 Total                    2.725              8.750             55.921
 Electronic               0.000              0.000              1.377
 Translational            0.889              2.981             35.068
 Rotational               0.592              1.987             14.388
 Vibrational              1.244              3.782              5.087
 Vibration     1          0.622              1.891              2.544
 Vibration     2          0.622              1.891              2.544

 Normal termination of Gaussian 16 at Fri Aug 22 19:18:33 2025.
