 Gaussian 16, Revision C.01,
 Gaussian 16:  ES64L-G16RevC.01  3-Jul-2019

 -----------------------------------------
 # sp b3lyp/6-311g** Force nosymm scf=(qc)
 -----------------------------------------

 -------------------
 Title Card Required
 -------------------
 Symbolic Z-matrix:
 Charge =  0 Multiplicity = 2

                          Input orientation:
 ---------------------------------------------------------------------
 Center     Atomic      Atomic             Coordinates (Angstroms)
 Number     Number       Type             X           Y           Z
 ---------------------------------------------------------------------
      1          1           0        0.000000    0.000000    0.000000
      2          1           0       -2.200000    0.000000    0.000000
      3          9           0        1.400000    0.000000    0.000000
 ---------------------------------------------------------------------

 SCF Done:  E(UB3LYP) =  -100.879878594     a.u. after    8 cycles

 Alpha  occ. eigenvalues --  -24.63834  -1.10028  -0.44706  -0.36405  -0.36284
 Alpha  occ. eigenvalues --   -0.36284
 Alpha virt. eigenvalues --   -0.10166   0.23734   0.26916   0.93609   0.93609
 Alpha virt. eigenvalues --    1.03287   1.11764   1.20964   1.20964   1.30760
 Alpha virt. eigenvalues --    1.33533   1.33533   1.72620   2.10745   2.24517

  Beta  occ. eigenvalues --  -24.63587  -1.09386  -0.43748  -0.36053  -0.36053
  Beta virt. eigenvalues --   -0.15694  -0.05881   0.26378   0.34385   0.93552
  Beta virt. eigenvalues --    0.93552   1.03907   1.15278   1.32605   1.32605
  Beta virt. eigenvalues --    1.40359   1.40359   1.45527   1.72656   2.19965

 Mulliken charges and spin densities:
               1          2
     1  H    0.334563  -0.041027
     2  H    0.028010   0.964361
     3  F   -0.362573   0.076666
 Sum of Mulliken charges =   0.00000   1.00000

 Dipole moment (field-independent basis, Debye):
    X=             -2.8248    Y=              0.0000    Z=             -0.0000  Tot=              2.8248
 Quadrupole moment (field-independent basis, Debye-Ang):
   XX=             -8.8552   YY=             -7.2500   ZZ=             -7.2500
   XY=              0.0000   XZ=              0.0000   YZ=             -0.0000

  Exact polarizability:      20.937      -0.000       2.265       0.000       0.000       2.265
 Approx polarizability:      29.976      -0.000       2.205      -0.000       0.000       2.205

 ******    2 imaginary frequencies (negative Signs) ******

                      1                      2                      3
                      A                      A                      A
 Frequencies --  -1285.9797              -274.6761              1060.9508
 Red. masses --      1.0406                 1.0714                 1.0242
 Frc consts  --      1.0139                 0.0476                 0.6793
 IR Inten    --    178.1297                 0.5709                95.5053

                      4
                      A
 Frequencies --   1060.9508
 Red. masses --      1.0242
 Frc consts  --      0.6793
 IR Inten    --     95.5053

 - Thermochemistry -
 -------------------
 Temperature   298.150 Kelvin.  Pressure   1.00000 Atm.
 Atom     1 has atomic number  1 and mass   1.00783

 Molecular mass:    21.01405 amu.
 Principal axes and moments of inertia in atomic units:
                           1         2         3
     Eigenvalues --     0.00000  49.38203  49.38203
           X            1.00000  -0.00000   0.00000
           Y            0.00000   1.00000   0.00000
           Z            0.00000   0.00000   1.00000
 This molecule is a prolate symmetric top.
 Rotational symmetry number  1.
 Rotational temperature (Kelvin)      1.75396
 Rotational constant (GHZ):          36.546514
    2 imaginary frequencies ignored.
 Zero-point vibrational energy      12691.8 (Joules/Mol)
                                    3.03341 (Kcal/Mol)
 Vibrational temperatures:   1526.47  1526.47
          (Kelvin)

 Zero-point correction=                           0.004834 (Hartree/Particle)
 Thermal correction to Energy=                    0.007253
 Thermal correction to Enthalpy=                  0.008197
 Thermal correction to Gibbs Free Energy=        -0.014982
 Sum of electronic and zero-point Energies=           -100.875045
 Sum of electronic and thermal Energies=              -100.872626
 Sum of electronic and thermal Enthalpies=            -100.871682
 Sum of electronic and thermal Free Energies=         -100.894861

                     E (Thermal)             CV                S
                      KCal/Mol        Cal/Mol-Kelvin    Cal/Mol-Kelvin
 Total                    4.551              5.598             48.785
 Electronic               0.000              0.000              1.377
 Translational            0.889              2.981             35.068
 Rotational               0.592              1.987             12.193
 Vibrational              3.070              0.630              0.146

 Normal termination of Gaussian 16 at Fri Aug 22 16:20:19 2025.
