 Gaussian 16, Revision C.01,
 Gaussian 16:  ES64L-G16RevC.01  3-Jul-2019

 -----------------------------------------
 # sp b3lyp/6-311g** Force nosymm scf=(qc)
 -----------------------------------------

 -------------------
 Title Card Required
 -------------------
 Symbolic Z-matrix:
 Charge =  0 Multiplicity = 2

                          Input orientation:
 ---------------------------------------------------------------------
 Center     Atomic      Atomic             Coordinates (Angstroms)
 Number     Number       Type             X           Y           Z
 ---------------------------------------------------------------------
      1          1           0        0.000000    0.000000    0.000000
      2          1           0       -1.800000    0.000000    0.000000
      3          9           0        1.950000    0.000000    0.000000
 ---------------------------------------------------------------------

 SCF Done:  E(UB3LYP) =  -100.812551253     a.u. after   12 cycles

 Alpha  occ. eigenvalues --  -24.68014  -1.14369  -0.47248  -0.39572  -0.39572
 Alpha  occ. eigenvalues --   -0.37248
 Alpha virt. eigenvalues --   -0.12788   0.23278   0.30529   0.86523   0.94806
 Alpha virt. eigenvalues --    0.94806   1.03676   1.20271   1.20271   1.28866
 Alpha virt. eigenvalues --    1.34284   1.34284   1.67250   2.13080   2.34820

  Beta  occ. eigenvalues --  -24.65656  -1.07784  -0.37606  -0.37250  -0.37250
  Beta virt. eigenvalues --   -0.21888  -0.11130   0.25875   0.30541   0.89421
  Beta virt. eigenvalues --    0.95494   0.95494   1.07696   1.22950   1.22950
  Beta virt. eigenvalues --    1.35241   1.35241   1.36004   1.67042   2.13945

 Mulliken charges and spin densities:
               1          2
     1  H    0.135737  -0.545195
     2  H    0.056757   0.804627
     3  F   -0.192494   0.740568
 Sum of Mulliken charges =   0.00000   1.00000

 Dipole moment (field-independent basis, Debye):
    X=             -2.3504    Y=              0.0000    Z=              0.0000  Tot=              2.3504
 Quadrupole moment (field-independent basis, Debye-Ang):
   XX=             -8.4128   YY=             -7.5343   ZZ=             -7.5343
   XY=             -0.0000   XZ=             -0.0000   YZ=             -0.0000

  Exact polarizability:      51.374      -0.000       2.085      -0.000       0.000       2.085
 Approx polarizability:      67.280      -0.000       2.003      -0.000      -0.000       2.003

 ******    2 imaginary frequencies (negative Signs) ******

                      1                      2                      3
                      A                      A                      A
 Frequencies --  -1884.6525              -594.4746               788.2303
 Red. masses --      1.0157                 1.0991                 1.0170
 Frc consts  --      2.1256                 0.2289                 0.3723
 IR Inten    --    238.0510                27.6119                 9.3713

                      4
                      A
 Frequencies --    788.2303
 Red. masses --      1.0170
 Frc consts  --      0.3723
 IR Inten    --      9.3713

 - Thermochemistry -
 -------------------
 Temperature   298.150 Kelvin.  Pressure   1.00000 Atm.
 Atom     1 has atomic number  1 and mass   1.00783

 Molecular mass:    21.01405 amu.
 Principal axes and moments of inertia in atomic units:
                           1         2         3
     Eigenvalues --     0.00000  58.68829  58.68829
           X            1.00000  -0.00000   0.00000
           Y            0.00000   1.00000   0.00000
           Z            0.00000   0.00000   1.00000
 This molecule is a prolate symmetric top.
 Rotational symmetry number  1.
 Rotational temperature (Kelvin)      1.47583
 Rotational constant (GHZ):          30.751300
    2 imaginary frequencies ignored.
 Zero-point vibrational energy       9429.3 (Joules/Mol)
                                    2.25366 (Kcal/Mol)
 Vibrational temperatures:   1134.09  1134.09
          (Kelvin)

 Zero-point correction=                           0.003591 (Hartree/Particle)
 Thermal correction to Energy=                    0.006116
 Thermal correction to Enthalpy=                  0.007060
 Thermal correction to Gibbs Free Energy=        -0.016419
 Sum of electronic and zero-point Energies=           -100.808960
 Sum of electronic and thermal Energies=              -100.806436
 Sum of electronic and thermal Enthalpies=            -100.805491
 Sum of electronic and thermal Free Energies=         -100.828970

                     E (Thermal)             CV                S
                      KCal/Mol        Cal/Mol-Kelvin    Cal/Mol-Kelvin
 Total                    3.838              6.309             49.416
 Electronic               0.000              0.000              1.377
 Translational            0.889              2.981             35.068
 Rotational               0.592              1.987             12.536
 Vibrational              2.356              1.341              0.434

 Normal termination of Gaussian 16 at Fri Aug 22 16:53:08 2025.
