 Gaussian 16, Revision C.01,
 Gaussian 16:  ES64L-G16RevC.01  3-Jul-2019

 -----------------------------------------
 # sp b3lyp/6-311g** Force nosymm scf=(qc)
 -----------------------------------------

 -------------------
 Title Card Required
 -------------------
 Symbolic Z-matrix:
 Charge =  0 Multiplicity = 2

                          Input orientation:
 ---------------------------------------------------------------------
 Center     Atomic      Atomic             Coordinates (Angstroms)
 Number     Number       Type             X           Y           Z
 ---------------------------------------------------------------------
      1          1           0        0.000000    0.000000    0.000000
      2          1           0       -0.600000    0.000000    0.000000
      3          9           0        3.300000    0.000000    0.000000
 ---------------------------------------------------------------------

 SCF Done:  E(UB3LYP) =  -100.914953869     a.u. after   48 cycles

 Alpha  occ. eigenvalues --  -24.76436  -1.22266  -0.55464  -0.46855  -0.46616
 Alpha  occ. eigenvalues --   -0.46328
 Alpha virt. eigenvalues --    0.08562   0.18934   0.51770   0.85971   0.90845
 Alpha virt. eigenvalues --    0.93674   1.03739   1.10272   1.10277   1.60946
 Alpha virt. eigenvalues --    1.83049   1.92819   1.92825   2.37286   3.64773

  Beta  occ. eigenvalues --  -24.73276  -1.13183  -0.46547  -0.43465  -0.43448
  Beta virt. eigenvalues --   -0.26095   0.08598   0.18953   0.51867   0.92344
  Beta virt. eigenvalues --    0.95349   0.95432   1.07558   1.10272   1.10277
  Beta virt. eigenvalues --    1.60960   1.83087   1.92819   1.92824   2.37289

 Mulliken charges and spin densities:
               1          2
     1  H   -0.004828  -0.000963
     2  H   -0.001759   0.000151
     3  F    0.006587   1.000811
 Sum of Mulliken charges =   0.00000   1.00000

 Dipole moment (field-independent basis, Debye):
    X=              0.0658    Y=             -0.0000    Z=              0.0000  Tot=              0.0658
 Quadrupole moment (field-independent basis, Debye-Ang):
   XX=             -6.0763   YY=             -6.0405   ZZ=             -6.5804
   XY=              0.0000   XZ=             -0.0000   YZ=             -0.3372

  Exact polarizability:       6.638       0.000       2.246      -0.000      -0.181       1.956
 Approx polarizability:       7.177       0.000       2.423      -0.000      -0.226       2.060

 ******    2 imaginary frequencies (negative Signs) ******

                      1                      2                      3
                      A                      A                      A
 Frequencies --  -2759.6249             -2759.1574                33.5536
 Red. masses --      1.0085                 1.0085                 1.1085
 Frc consts  --      4.5252                 4.5237                 0.0007
 IR Inten    --      0.0151                 0.0136                 0.1554

                      4
                      A
 Frequencies --   7042.2860
 Red. masses --      1.0078
 Frc consts  --     29.4485
 IR Inten    --      0.1016

 - Thermochemistry -
 -------------------
 Temperature   298.150 Kelvin.  Pressure   1.00000 Atm.
 Atom     1 has atomic number  1 and mass   1.00783

 Molecular mass:    21.01405 amu.
 Principal axes and moments of inertia in atomic units:
                           1         2         3
     Eigenvalues --     0.00000  84.98618  84.98618
           X            1.00000  -0.00000   0.00000
           Y            0.00000   1.00000   0.00000
           Z            0.00000   0.00000   1.00000
 This molecule is a prolate symmetric top.
 Rotational symmetry number  1.
 Rotational temperature (Kelvin)      1.01915
 Rotational constant (GHZ):          21.235702
    2 imaginary frequencies ignored.
 Zero-point vibrational energy      42322.9 (Joules/Mol)
                                   10.11542 (Kcal/Mol)
 Warning -- explicit consideration of   1 degrees of freedom as
           vibrations may cause significant error
 Vibrational temperatures:     48.28 10132.28
          (Kelvin)

 Zero-point correction=                           0.016120 (Hartree/Particle)
 Thermal correction to Energy=                    0.019350
 Thermal correction to Enthalpy=                  0.020294
 Thermal correction to Gibbs Free Energy=        -0.005992
 Sum of electronic and zero-point Energies=           -100.898834
 Sum of electronic and thermal Energies=              -100.895604
 Sum of electronic and thermal Enthalpies=            -100.894659
 Sum of electronic and thermal Free Energies=         -100.920946

                     E (Thermal)             CV                S
                      KCal/Mol        Cal/Mol-Kelvin    Cal/Mol-Kelvin
 Total                   12.142              6.951             55.325
 Electronic               0.000              0.000              1.377
 Translational            0.889              2.981             35.068
 Rotational               0.592              1.987             13.272
 Vibrational             10.661              1.983              5.607
 Vibration     1          0.594              1.983              5.607

 Normal termination of Gaussian 16 at Fri Aug 22 20:38:00 2025.
