 Gaussian 16, Revision C.01,
 Gaussian 16:  ES64L-G16RevC.01  3-Jul-2019

 -----------------------------------------
 # sp b3lyp/6-311g** Force nosymm scf=(qc)
 -----------------------------------------

 -------------------
 Title Card Required
 -------------------
 Symbolic Z-matrix:
 Charge =  0 Multiplicity = 2

                          Input orientation:
 ---------------------------------------------------------------------
 Center     Atomic      Atomic             Coordinates (Angstroms)
 Number     Number       Type             X           Y           Z
 ---------------------------------------------------------------------
      1          1           0        0.000000    0.000000    0.000000
      2          1           0       -0.500000    0.000000    0.000000
      3          9           0        0.950000    0.000000    0.000000
 ---------------------------------------------------------------------

 SCF Done:  E(UB3LYP) =  -100.790734197     a.u. after    7 cycles

 Alpha  occ. eigenvalues --  -24.68118  -1.24208  -0.69693  -0.43206  -0.43206
 Alpha  occ. eigenvalues --   -0.32721
 Alpha virt. eigenvalues --    0.14244   0.18193   0.71789   0.86219   0.86219
 Alpha virt. eigenvalues --    0.92962   1.13767   1.13767   1.50395   1.71065
 Alpha virt. eigenvalues --    1.85768   1.91833   1.91833   2.85575   3.77747

  Beta  occ. eigenvalues --  -24.66196  -1.19318  -0.61792  -0.41474  -0.41474
  Beta virt. eigenvalues --   -0.14375   0.16653   0.18733   0.76186   0.88113
  Beta virt. eigenvalues --    0.88113   0.96800   1.17505   1.17505   1.52510
  Beta virt. eigenvalues --    1.76982   1.89116   1.95857   1.95857   2.91440

 Mulliken charges and spin densities:
               1          2
     1  H    0.271832  -0.025496
     2  H   -0.093848   0.570798
     3  F   -0.177985   0.454698
 Sum of Mulliken charges =   0.00000   1.00000

 Dipole moment (field-independent basis, Debye):
    X=             -1.0885    Y=             -0.0000    Z=              0.0000  Tot=              1.0885
 Quadrupole moment (field-independent basis, Debye-Ang):
   XX=             -7.2689   YY=             -6.3355   ZZ=             -6.3355
   XY=             -0.0000   XZ=              0.0000   YZ=             -0.0000

  Exact polarizability:      10.626      -0.000       2.452       0.000       0.000       2.452
 Approx polarizability:      12.052       0.000       2.536      -0.000      -0.000       2.536

 ******    2 imaginary frequencies (negative Signs) ******

                      1                      2                      3
                      A                      A                      A
 Frequencies --  -5367.2265             -5367.2265              2791.3343
 Red. masses --      1.0120                 1.0120                 1.1085
 Frc consts  --     17.1769                17.1769                 5.0887
 IR Inten    --     22.8385                22.8385                53.0038

                      4
                      A
 Frequencies --   9747.3916
 Red. masses --      1.0078
 Frc consts  --     56.4180
 IR Inten    --     38.7393

 - Thermochemistry -
 -------------------
 Temperature   298.150 Kelvin.  Pressure   1.00000 Atm.
 Atom     1 has atomic number  1 and mass   1.00783

 Molecular mass:    21.01405 amu.
 Principal axes and moments of inertia in atomic units:
                           1         2         3
     Eigenvalues --     0.00000   9.82080   9.82080
           X            1.00000  -0.00000   0.00000
           Y            0.00000   1.00000   0.00000
           Z            0.00000   0.00000   1.00000
 This molecule is a prolate symmetric top.
 Rotational symmetry number  1.
 Rotational temperature (Kelvin)      8.81943
 Rotational constant (GHZ):         183.767139
    2 imaginary frequencies ignored.
 Zero-point vibrational energy      74998.2 (Joules/Mol)
                                   17.92501 (Kcal/Mol)
 Vibrational temperatures:   4016.11 14024.32
          (Kelvin)

 Zero-point correction=                           0.028565 (Hartree/Particle)
 Thermal correction to Energy=                    0.030926
 Thermal correction to Enthalpy=                  0.031870
 Thermal correction to Gibbs Free Energy=         0.010285
 Sum of electronic and zero-point Energies=           -100.762169
 Sum of electronic and thermal Energies=              -100.759808
 Sum of electronic and thermal Enthalpies=            -100.758864
 Sum of electronic and thermal Free Energies=         -100.780449

                     E (Thermal)             CV                S
                      KCal/Mol        Cal/Mol-Kelvin    Cal/Mol-Kelvin
 Total                   19.406              4.969             45.429
 Electronic               0.000              0.000              1.377
 Translational            0.889              2.981             35.068
 Rotational               0.592              1.987              8.983
 Vibrational             17.925              0.001              0.000

 Normal termination of Gaussian 16 at Fri Aug 22 15:57:06 2025.
