 Gaussian 16, Revision C.01,
 Gaussian 16:  ES64L-G16RevC.01  3-Jul-2019

 -----------------------------------------
 # sp b3lyp/6-311g** Force nosymm scf=(qc)
 -----------------------------------------

 -------------------
 Title Card Required
 -------------------
 Symbolic Z-matrix:
 Charge =  0 Multiplicity = 2

                          Input orientation:
 ---------------------------------------------------------------------
 Center     Atomic      Atomic             Coordinates (Angstroms)
 Number     Number       Type             X           Y           Z
 ---------------------------------------------------------------------
      1          1           0        0.000000    0.000000    0.000000
      2          1           0       -0.500000    0.000000    0.000000
      3          9           0        1.650000    0.000000    0.000000
 ---------------------------------------------------------------------

 SCF Done:  E(UB3LYP) =  -100.858743210     a.u. after    6 cycles

 Alpha  occ. eigenvalues --  -24.73847  -1.20392  -0.58243  -0.47407  -0.44759
 Alpha  occ. eigenvalues --   -0.44759
 Alpha virt. eigenvalues --    0.12362   0.19690   0.53789   0.89037   0.89037
 Alpha virt. eigenvalues --    0.96011   1.12213   1.12213   1.29125   1.68001
 Alpha virt. eigenvalues --    1.84943   1.99099   1.99099   2.51084   3.69801

  Beta  occ. eigenvalues --  -24.70863  -1.12035  -0.52107  -0.41819  -0.41819
  Beta virt. eigenvalues --   -0.24233   0.12910   0.20341   0.55347   0.90307
  Beta virt. eigenvalues --    0.90307   1.03061   1.13350   1.13350   1.32792
  Beta virt. eigenvalues --    1.69917   1.85732   1.99583   1.99583   2.52675

 Mulliken charges and spin densities:
               1          2
     1  H    0.060739  -0.023935
     2  H    0.005720   0.106971
     3  F   -0.066459   0.916963
 Sum of Mulliken charges =   0.00000   1.00000

 Dipole moment (field-independent basis, Debye):
    X=             -0.5258    Y=             -0.0000    Z=              0.0000  Tot=              0.5258
 Quadrupole moment (field-independent basis, Debye-Ang):
   XX=             -6.1834   YY=             -6.5166   ZZ=             -6.5166
   XY=             -0.0000   XZ=              0.0000   YZ=              0.0000

  Exact polarizability:      12.061       0.000       2.111       0.000       0.000       2.111
 Approx polarizability:      13.171      -0.000       2.179       0.000      -0.000       2.179

 ******    2 imaginary frequencies (negative Signs) ******

                      1                      2                      3
                      A                      A                      A
 Frequencies --  -4883.2499             -4883.2499               491.4552
 Red. masses --      1.0095                 1.0095                 1.1085
 Frc consts  --     14.1839                14.1839                 0.1577
 IR Inten    --      0.2514                 0.2514                34.9068

                      4
                      A
 Frequencies --   9896.1706
 Red. masses --      1.0078
 Frc consts  --     58.1527
 IR Inten    --    271.3131

 - Thermochemistry -
 -------------------
 Temperature   298.150 Kelvin.  Pressure   1.00000 Atm.
 Atom     1 has atomic number  1 and mass   1.00783

 Molecular mass:    21.01405 amu.
 Principal axes and moments of inertia in atomic units:
                           1         2         3
     Eigenvalues --     0.00000  23.94227  23.94227
           X            1.00000  -0.00000   0.00000
           Y            0.00000   1.00000   0.00000
           Z            0.00000   0.00000   1.00000
 This molecule is a prolate symmetric top.
 Rotational symmetry number  1.
 Rotational temperature (Kelvin)      3.61761
 Rotational constant (GHZ):          75.378856
    2 imaginary frequencies ignored.
 Zero-point vibrational energy      62131.8 (Joules/Mol)
                                   14.84986 (Kcal/Mol)
 Warning -- explicit consideration of   1 degrees of freedom as
           vibrations may cause significant error
 Vibrational temperatures:    707.09 14238.38
          (Kelvin)

 Zero-point correction=                           0.023665 (Hartree/Particle)
 Thermal correction to Energy=                    0.026256
 Thermal correction to Enthalpy=                  0.027200
 Thermal correction to Gibbs Free Energy=         0.004451
 Sum of electronic and zero-point Energies=           -100.835078
 Sum of electronic and thermal Energies=              -100.832487
 Sum of electronic and thermal Enthalpies=            -100.831543
 Sum of electronic and thermal Free Energies=         -100.854292

                     E (Thermal)             CV                S
                      KCal/Mol        Cal/Mol-Kelvin    Cal/Mol-Kelvin
 Total                   16.476              6.237             47.880
 Electronic               0.000              0.000              1.377
 Translational            0.889              2.981             35.068
 Rotational               0.592              1.987             10.754
 Vibrational             14.994              1.269              0.680
 Vibration     1          0.847              1.269              0.680

 Normal termination of Gaussian 16 at Fri Aug 22 16:32:59 2025.
