 Gaussian 16, Revision C.01,
 Gaussian 16:  ES64L-G16RevC.01  3-Jul-2019

 -----------------------------------------
 # sp b3lyp/6-311g** Force nosymm scf=(qc)
 -----------------------------------------

 -------------------
 Title Card Required
 -------------------
 Symbolic Z-matrix:
 Charge =  0 Multiplicity = 2

                          Input orientation:
 ---------------------------------------------------------------------
 Center     Atomic      Atomic             Coordinates (Angstroms)
 Number     Number       Type             X           Y           Z
 ---------------------------------------------------------------------
      1          1           0        0.000000    0.000000    0.000000
      2          1           0       -3.600000    0.000000    0.000000
      3          9           0        2.850000    0.000000    0.000000
 ---------------------------------------------------------------------

 SCF Done:  E(UB3LYP) =  -100.762224632     a.u. after   23 cycles

 Alpha  occ. eigenvalues --  -24.73494  -1.19597  -0.52612  -0.44180  -0.44180
 Alpha  occ. eigenvalues --   -0.32605
 Alpha virt. eigenvalues --   -0.08595   0.23834   0.35964   0.89775   0.92627
 Alpha virt. eigenvalues --    0.92627   1.04762   1.24899   1.24899   1.25010
 Alpha virt. eigenvalues --    1.43329   1.43329   1.43986   2.14604   2.39402

  Beta  occ. eigenvalues --  -24.70509  -1.11055  -0.41195  -0.41195  -0.34135
  Beta virt. eigenvalues --   -0.24431  -0.06454   0.23908   0.37977   0.94073
  Beta virt. eigenvalues --    0.94073   0.98153   1.08264   1.23180   1.23180
  Beta virt. eigenvalues --    1.24331   1.45985   1.46234   1.46234   2.14389

 Mulliken charges and spin densities:
               1          2
     1  H    0.049170  -0.943783
     2  H    0.000434   0.998395
     3  F   -0.049604   0.945388
 Sum of Mulliken charges =  -0.00000   1.00000

 Dipole moment (field-independent basis, Debye):
    X=             -0.7325    Y=             -0.0000    Z=              0.0000  Tot=              0.7325
 Quadrupole moment (field-independent basis, Debye-Ang):
   XX=             -8.6253   YY=             -7.6002   ZZ=             -7.6002
   XY=             -0.0000   XZ=             -0.0000   YZ=              0.0000

  Exact polarizability:      32.018      -0.000       2.025      -0.000      -0.000       2.025
 Approx polarizability:      35.176      -0.000       1.924      -0.000      -0.000       1.924

 ******    2 imaginary frequencies (negative Signs) ******

                      1                      2                      3
                      A                      A                      A
 Frequencies --   -433.1621              -107.3059               156.3984
 Red. masses --      1.0513                 1.0602                 1.0210
 Frc consts  --      0.1162                 0.0072                 0.0147
 IR Inten    --     50.8021                 0.3203                 2.2997

                      4
                      A
 Frequencies --    156.3984
 Red. masses --      1.0210
 Frc consts  --      0.0147
 IR Inten    --      2.2997

 - Thermochemistry -
 -------------------
 Temperature   298.150 Kelvin.  Pressure   1.00000 Atm.
 Atom     1 has atomic number  1 and mass   1.00783

 Molecular mass:    21.01405 amu.
 Principal axes and moments of inertia in atomic units:
                           1         2         3
     Eigenvalues --     0.00000 164.03193 164.03193
           X            1.00000  -0.00000   0.00000
           Y            0.00000   1.00000   0.00000
           Z            0.00000   0.00000   1.00000
 This molecule is a prolate symmetric top.
 Rotational symmetry number  1.
 Rotational temperature (Kelvin)      0.52803
 Rotational constant (GHZ):          11.002378
    2 imaginary frequencies ignored.
 Zero-point vibrational energy       1870.9 (Joules/Mol)
                                    0.44717 (Kcal/Mol)
 Warning -- explicit consideration of   2 degrees of freedom as
           vibrations may cause significant error
 Vibrational temperatures:    225.02   225.02
          (Kelvin)

 Zero-point correction=                           0.000713 (Hartree/Particle)
 Thermal correction to Energy=                    0.004338
 Thermal correction to Enthalpy=                  0.005282
 Thermal correction to Gibbs Free Energy=        -0.021425
 Sum of electronic and zero-point Energies=           -100.761512
 Sum of electronic and thermal Energies=              -100.757887
 Sum of electronic and thermal Enthalpies=            -100.756943
 Sum of electronic and thermal Free Energies=         -100.783650

                     E (Thermal)             CV                S
                      KCal/Mol        Cal/Mol-Kelvin    Cal/Mol-Kelvin
 Total                    2.722              8.759             56.210
 Electronic               0.000              0.000              1.377
 Translational            0.889              2.981             35.068
 Rotational               0.592              1.987             14.579
 Vibrational              1.241              3.791              5.186
 Vibration     1          0.620              1.896              2.593
 Vibration     2          0.620              1.896              2.593

 Normal termination of Gaussian 16 at Fri Aug 22 18:55:02 2025.
