 Gaussian 16, Revision C.01,
 Gaussian 16:  ES64L-G16RevC.01  3-Jul-2019

 -----------------------------------------
 # sp b3lyp/6-311g** Force nosymm scf=(qc)
 -----------------------------------------

 -------------------
 Title Card Required
 -------------------
 Symbolic Z-matrix:
 Charge =  0 Multiplicity = 2

                          Input orientation:
 ---------------------------------------------------------------------
 Center     Atomic      Atomic             Coordinates (Angstroms)
 Number     Number       Type             X           Y           Z
 ---------------------------------------------------------------------
      1          1           0        0.000000    0.000000    0.000000
      2          1           0       -2.150000    0.000000    0.000000
      3          9           0        1.950000    0.000000    0.000000
 ---------------------------------------------------------------------

 SCF Done:  E(UB3LYP) =  -100.799403557     a.u. after   12 cycles

 Alpha  occ. eigenvalues --  -24.67637  -1.13957  -0.46667  -0.39233  -0.39233
 Alpha  occ. eigenvalues --   -0.36062
 Alpha virt. eigenvalues --   -0.13816   0.24008   0.30505   0.89696   0.95057
 Alpha virt. eigenvalues --    0.95057   1.05643   1.21765   1.21765   1.27722
 Alpha virt. eigenvalues --    1.34111   1.34111   1.61823   2.11255   2.29153

  Beta  occ. eigenvalues --  -24.65343  -1.07564  -0.37794  -0.36977  -0.36977
  Beta virt. eigenvalues --   -0.20817  -0.11133   0.25649   0.32725   0.91991
  Beta virt. eigenvalues --    0.95620   0.95620   1.08674   1.23167   1.23167
  Beta virt. eigenvalues --    1.37782   1.37782   1.41544   1.56958   2.12186

 Mulliken charges and spin densities:
               1          2
     1  H    0.168213  -0.645911
     2  H    0.036420   0.925210
     3  F   -0.204633   0.720701
 Sum of Mulliken charges =   0.00000   1.00000

 Dipole moment (field-independent basis, Debye):
    X=             -2.3468    Y=              0.0000    Z=             -0.0000  Tot=              2.3468
 Quadrupole moment (field-independent basis, Debye-Ang):
   XX=             -8.9907   YY=             -7.5269   ZZ=             -7.5269
   XY=              0.0000   XZ=             -0.0000   YZ=             -0.0000

  Exact polarizability:      44.706      -0.000       2.069       0.000      -0.000       2.069
 Approx polarizability:      53.289      -0.000       1.969       0.000       0.000       1.969

 ******    2 imaginary frequencies (negative Signs) ******

                      1                      2                      3
                      A                      A                      A
 Frequencies --  -1462.6912              -539.0604               608.8107
 Red. masses --      1.0291                 1.0838                 1.0192
 Frc consts  --      1.2972                 0.1856                 0.2226
 IR Inten    --     93.5631                28.5575                20.0071

                      4
                      A
 Frequencies --    608.8107
 Red. masses --      1.0192
 Frc consts  --      0.2226
 IR Inten    --     20.0071

 - Thermochemistry -
 -------------------
 Temperature   298.150 Kelvin.  Pressure   1.00000 Atm.
 Atom     1 has atomic number  1 and mass   1.00783

 Molecular mass:    21.01405 amu.
 Principal axes and moments of inertia in atomic units:
                           1         2         3
     Eigenvalues --     0.00000  67.86672  67.86672
           X            1.00000  -0.00000   0.00000
           Y            0.00000   1.00000   0.00000
           Z            0.00000   0.00000   1.00000
 This molecule is a prolate symmetric top.
 Rotational symmetry number  1.
 Rotational temperature (Kelvin)      1.27624
 Rotational constant (GHZ):          26.592433
    2 imaginary frequencies ignored.
 Zero-point vibrational energy       7283.0 (Joules/Mol)
                                    1.74068 (Kcal/Mol)
 Warning -- explicit consideration of   2 degrees of freedom as
           vibrations may cause significant error
 Vibrational temperatures:    875.94   875.94
          (Kelvin)

 Zero-point correction=                           0.002774 (Hartree/Particle)
 Thermal correction to Energy=                    0.005445
 Thermal correction to Enthalpy=                  0.006389
 Thermal correction to Gibbs Free Energy=        -0.017434
 Sum of electronic and zero-point Energies=           -100.796630
 Sum of electronic and thermal Energies=              -100.793959
 Sum of electronic and thermal Enthalpies=            -100.793015
 Sum of electronic and thermal Free Energies=         -100.816838

                     E (Thermal)             CV                S
                      KCal/Mol        Cal/Mol-Kelvin    Cal/Mol-Kelvin
 Total                    3.417              6.994             50.140
 Electronic               0.000              0.000              1.377
 Translational            0.889              2.981             35.068
 Rotational               0.592              1.987             12.825
 Vibrational              1.935              2.026              0.869
 Vibration     1          0.968              1.013              0.435
 Vibration     2          0.968              1.013              0.435

 Normal termination of Gaussian 16 at Fri Aug 22 16:53:26 2025.
