 Gaussian 16, Revision C.01,
 Gaussian 16:  ES64L-G16RevC.01  3-Jul-2019

 -----------------------------------------
 # sp b3lyp/6-311g** Force nosymm scf=(qc)
 -----------------------------------------

 -------------------
 Title Card Required
 -------------------
 Symbolic Z-matrix:
 Charge =  0 Multiplicity = 2

                          Input orientation:
 ---------------------------------------------------------------------
 Center     Atomic      Atomic             Coordinates (Angstroms)
 Number     Number       Type             X           Y           Z
 ---------------------------------------------------------------------
      1          1           0        0.000000    0.000000    0.000000
      2          1           0       -1.000000    0.000000    0.000000
      3          9           0        0.550000    0.000000    0.000000
 ---------------------------------------------------------------------

 SCF Done:  E(UB3LYP) =  -100.466949418     a.u. after    7 cycles

 Alpha  occ. eigenvalues --  -24.65069  -1.42457  -0.66721  -0.45977  -0.45977
 Alpha  occ. eigenvalues --   -0.33277
 Alpha virt. eigenvalues --    0.16450   0.20450   0.81052   0.86978   0.86978
 Alpha virt. eigenvalues --    0.88748   1.10898   1.10898   1.50408   1.73466
 Alpha virt. eigenvalues --    1.77722   1.77722   2.23407   2.44890   3.74982

  Beta  occ. eigenvalues --  -24.64728  -1.41284  -0.65151  -0.45718  -0.45718
  Beta virt. eigenvalues --   -0.11309   0.17190   0.27769   0.85295   0.88138
  Beta virt. eigenvalues --    0.88138   0.90925   1.19541   1.19541   1.51046
  Beta virt. eigenvalues --    1.79600   1.83332   1.83332   2.35764   2.58802

 Mulliken charges and spin densities:
               1          2
     1  H    0.226034  -0.007655
     2  H   -0.043408   0.982099
     3  F   -0.182627   0.025557
 Sum of Mulliken charges =   0.00000   1.00000

 Dipole moment (field-independent basis, Debye):
    X=             -0.9061    Y=             -0.0000    Z=             -0.0000  Tot=              0.9061
 Quadrupole moment (field-independent basis, Debye-Ang):
   XX=             -7.1855   YY=             -6.3753   ZZ=             -6.3753
   XY=             -0.0000   XZ=             -0.0000   YZ=             -0.0000

  Exact polarizability:       6.378      -0.000       2.492      -0.000       0.000       2.492
 Approx polarizability:       6.073      -0.000       2.556      -0.000       0.000       2.556

 ******    2 imaginary frequencies (negative Signs) ******

                      1                      2                      3
                      A                      A                      A
 Frequencies --  -7281.6876             -7281.6876              2271.8332
 Red. masses --      1.0265                 1.0265                 1.0544
 Frc consts  --     32.0688                32.0688                 3.2062
 IR Inten    --    166.3586               166.3586               105.4906

                      4
                      A
 Frequencies --  15796.0673
 Red. masses --      1.0572
 Frc consts  --    155.4173
 IR Inten    --     38.0107

 - Thermochemistry -
 -------------------
 Temperature   298.150 Kelvin.  Pressure   1.00000 Atm.
 Atom     1 has atomic number  1 and mass   1.00783

 Molecular mass:    21.01405 amu.
 Principal axes and moments of inertia in atomic units:
                           1         2         3
     Eigenvalues --     0.00000   8.97412   8.97412
           X            1.00000  -0.00000   0.00000
           Y            0.00000   1.00000   0.00000
           Z            0.00000   0.00000   1.00000
 This molecule is a prolate symmetric top.
 Rotational symmetry number  1.
 Rotational temperature (Kelvin)      9.65152
 Rotational constant (GHZ):         201.105053
    2 imaginary frequencies ignored.
 Zero-point vibrational energy     108070.0 (Joules/Mol)
                                   25.82936 (Kcal/Mol)
 Vibrational temperatures:   3268.66 22727.02
          (Kelvin)

 Zero-point correction=                           0.041162 (Hartree/Particle)
 Thermal correction to Energy=                    0.043522
 Thermal correction to Enthalpy=                  0.044467
 Thermal correction to Gibbs Free Energy=         0.022967
 Sum of electronic and zero-point Energies=           -100.425788
 Sum of electronic and thermal Energies=              -100.423427
 Sum of electronic and thermal Enthalpies=            -100.422483
 Sum of electronic and thermal Free Energies=         -100.443983

                     E (Thermal)             CV                S
                      KCal/Mol        Cal/Mol-Kelvin    Cal/Mol-Kelvin
 Total                   27.311              4.972             45.250
 Electronic               0.000              0.000              1.377
 Translational            0.889              2.981             35.068
 Rotational               0.592              1.987              8.804
 Vibrational             25.829              0.004              0.000

 Normal termination of Gaussian 16 at Fri Aug 22 15:38:39 2025.
