 Gaussian 16, Revision C.01,
 Gaussian 16:  ES64L-G16RevC.01  3-Jul-2019

 -----------------------------------------
 # sp b3lyp/6-311g** Force nosymm scf=(qc)
 -----------------------------------------

 -------------------
 Title Card Required
 -------------------
 Symbolic Z-matrix:
 Charge =  0 Multiplicity = 2

                          Input orientation:
 ---------------------------------------------------------------------
 Center     Atomic      Atomic             Coordinates (Angstroms)
 Number     Number       Type             X           Y           Z
 ---------------------------------------------------------------------
      1          1           0        0.000000    0.000000    0.000000
      2          1           0       -1.600000    0.000000    0.000000
      3          9           0        3.250000    0.000000    0.000000
 ---------------------------------------------------------------------

 SCF Done:  E(UB3LYP) =  -100.806363941     a.u. after   46 cycles

 Alpha  occ. eigenvalues --  -24.75960  -1.21871  -0.55052  -0.46283  -0.46257
 Alpha  occ. eigenvalues --   -0.33610
 Alpha virt. eigenvalues --   -0.10527   0.25196   0.30296   0.87078   0.91079
 Alpha virt. eigenvalues --    0.92136   1.02261   1.06347   1.22051   1.22053
 Alpha virt. eigenvalues --    1.39168   1.39170   1.74471   2.19191   2.44337

  Beta  occ. eigenvalues --  -24.72831  -1.12876  -0.43157  -0.43120  -0.33538
  Beta virt. eigenvalues --   -0.25925  -0.10455   0.25298   0.30496   0.92572
  Beta virt. eigenvalues --    0.93206   0.96722   1.06267   1.06418   1.22109
  Beta virt. eigenvalues --    1.22111   1.39238   1.39239   1.74640   2.19646

 Mulliken charges and spin densities:
               1          2
     1  H   -0.000350  -0.453541
     2  H    0.004859   0.461558
     3  F   -0.004509   0.991983
 Sum of Mulliken charges =  -0.00000   1.00000

 Dipole moment (field-independent basis, Debye):
    X=             -0.1252    Y=              0.0014    Z=              0.0005  Tot=              0.1252
 Quadrupole moment (field-independent basis, Debye-Ang):
   XX=             -6.2531   YY=             -7.4015   ZZ=             -7.7147
   XY=              0.4023   XZ=              0.1490   YZ=              0.1345

  Exact polarizability:     -70.108      -0.064       2.220       0.253       0.074       2.048
 Approx polarizability:      52.209       0.195       2.248       0.072       0.091       2.037

 ******    1 imaginary frequencies (negative Signs) ******

                      1                      2                      3
                      A                      A                      A
 Frequencies --  -1854.9286               179.0200              1049.3183
 Red. masses --      1.0080                 1.1083                 1.0116
 Frc consts  --      2.0434                 0.0209                 0.6563
 IR Inten    --   2685.4299               168.3098                 1.0615

                      4
                      A
 Frequencies --   1049.8303
 Red. masses --      1.0116
 Frc consts  --      0.6569
 IR Inten    --      1.4693

 - Thermochemistry -
 -------------------
 Temperature   298.150 Kelvin.  Pressure   1.00000 Atm.
 Atom     1 has atomic number  1 and mass   1.00783

 Molecular mass:    21.01405 amu.
 Principal axes and moments of inertia in atomic units:
                           1         2         3
     Eigenvalues --     0.00000 111.34747 111.34747
           X            1.00000  -0.00000   0.00000
           Y            0.00000   1.00000   0.00000
           Z            0.00000   0.00000   1.00000
 This molecule is a prolate symmetric top.
 Rotational symmetry number  1.
 Rotational temperature (Kelvin)      0.77787
 Rotational constant (GHZ):          16.208193
    1 imaginary frequencies ignored.
 Zero-point vibrational energy      13626.5 (Joules/Mol)
                                    3.25681 (Kcal/Mol)
 Warning -- explicit consideration of   1 degrees of freedom as
           vibrations may cause significant error
 Vibrational temperatures:    257.57  1509.73  1510.47
          (Kelvin)

 Zero-point correction=                           0.005190 (Hartree/Particle)
 Thermal correction to Energy=                    0.008206
 Thermal correction to Enthalpy=                  0.009150
 Thermal correction to Gibbs Free Energy=        -0.015911
 Sum of electronic and zero-point Energies=           -100.801174
 Sum of electronic and thermal Energies=              -100.798158
 Sum of electronic and thermal Enthalpies=            -100.797214
 Sum of electronic and thermal Free Energies=         -100.822275

                     E (Thermal)             CV                S
                      KCal/Mol        Cal/Mol-Kelvin    Cal/Mol-Kelvin
 Total                    5.149              7.488             52.746
 Electronic               0.000              0.000              1.377
 Translational            0.889              2.981             35.068
 Rotational               0.592              1.987             13.809
 Vibrational              3.668              2.520              2.492
 Vibration     1          0.629              1.868              2.339

 Normal termination of Gaussian 16 at Fri Aug 22 20:33:42 2025.
