 Gaussian 16, Revision C.01,
 Gaussian 16:  ES64L-G16RevC.01  3-Jul-2019

 -----------------------------------------
 # sp b3lyp/6-311g** Force nosymm scf=(qc)
 -----------------------------------------

 -------------------
 Title Card Required
 -------------------
 Symbolic Z-matrix:
 Charge =  0 Multiplicity = 2

                          Input orientation:
 ---------------------------------------------------------------------
 Center     Atomic      Atomic             Coordinates (Angstroms)
 Number     Number       Type             X           Y           Z
 ---------------------------------------------------------------------
      1          1           0        0.000000    0.000000    0.000000
      2          1           0       -3.800000    0.000000    0.000000
      3          9           0        2.250000    0.000000    0.000000
 ---------------------------------------------------------------------

 SCF Done:  E(UB3LYP) =  -100.774189771     a.u. after   17 cycles

 Alpha  occ. eigenvalues --  -24.67419  -1.08844  -0.38681  -0.38681  -0.36516
 Alpha  occ. eigenvalues --   -0.32948
 Alpha virt. eigenvalues --   -0.22197   0.20749   0.27568   0.91983   0.95543
 Alpha virt. eigenvalues --    0.95543   1.08191   1.21534   1.21534   1.24524
 Alpha virt. eigenvalues --    1.24524   1.24526   1.39535   2.10194   2.15894

  Beta  occ. eigenvalues --  -24.70087  -1.16385  -0.49154  -0.41329  -0.41329
  Beta virt. eigenvalues --   -0.12138  -0.04493   0.31291   0.40159   0.88520
  Beta virt. eigenvalues --    0.94387   0.94387   1.06053   1.38101   1.38101
  Beta virt. eigenvalues --    1.48077   1.48077   1.48157   1.50146   2.32761

 Mulliken charges and spin densities:
               1          2
     1  H    0.134158   0.841187
     2  H    0.000488   0.999522
     3  F   -0.134646  -0.840709
 Sum of Mulliken charges =   0.00000   1.00000

 Dipole moment (field-independent basis, Debye):
    X=             -1.5309    Y=             -0.0000    Z=             -0.0000  Tot=              1.5309
 Quadrupole moment (field-independent basis, Debye-Ang):
   XX=             -9.8040   YY=             -7.5266   ZZ=             -7.5266
   XY=             -0.0000   XZ=             -0.0000   YZ=              0.0000

  Exact polarizability:      28.063      -0.000       2.038      -0.000      -0.000       2.038
 Approx polarizability:      38.792      -0.000       1.927      -0.000      -0.000       1.927

 ******    1 imaginary frequencies (negative Signs) ******

                      1                      2                      3
                      A                      A                      A
 Frequencies --   -803.2036                53.7219               334.9385
 Red. masses --      1.0590                 1.0526                 1.0254
 Frc consts  --      0.4025                 0.0018                 0.0678
 IR Inten    --     98.8517                 0.0381                17.3762

                      4
                      A
 Frequencies --    334.9385
 Red. masses --      1.0254
 Frc consts  --      0.0678
 IR Inten    --     17.3762

 - Thermochemistry -
 -------------------
 Temperature   298.150 Kelvin.  Pressure   1.00000 Atm.
 Atom     1 has atomic number  1 and mass   1.00783

 Molecular mass:    21.01405 amu.
 Principal axes and moments of inertia in atomic units:
                           1         2         3
     Eigenvalues --     0.00000 138.06180 138.06180
           X            1.00000  -0.00000   0.00000
           Y            0.00000   1.00000   0.00000
           Z            0.00000   0.00000   1.00000
 This molecule is a prolate symmetric top.
 Rotational symmetry number  1.
 Rotational temperature (Kelvin)      0.62736
 Rotational constant (GHZ):          13.071981
    1 imaginary frequencies ignored.
 Zero-point vibrational energy       4328.1 (Joules/Mol)
                                    1.03444 (Kcal/Mol)
 Warning -- explicit consideration of   3 degrees of freedom as
           vibrations may cause significant error
 Vibrational temperatures:     77.29   481.90   481.90
          (Kelvin)

 Zero-point correction=                           0.001648 (Hartree/Particle)
 Thermal correction to Energy=                    0.005593
 Thermal correction to Enthalpy=                  0.006537
 Thermal correction to Gibbs Free Energy=        -0.020940
 Sum of electronic and zero-point Energies=           -100.772541
 Sum of electronic and thermal Energies=              -100.768597
 Sum of electronic and thermal Enthalpies=            -100.767653
 Sum of electronic and thermal Free Energies=         -100.795130

                     E (Thermal)             CV                S
                      KCal/Mol        Cal/Mol-Kelvin    Cal/Mol-Kelvin
 Total                    3.509             10.156             57.829
 Electronic               0.000              0.000              1.377
 Translational            0.889              2.981             35.068
 Rotational               0.592              1.987             14.236
 Vibrational              2.028              5.188              7.148
 Vibration     1          0.596              1.976              4.675
 Vibration     2          0.716              1.606              1.236
 Vibration     3          0.716              1.606              1.236

 Normal termination of Gaussian 16 at Fri Aug 22 17:18:05 2025.
