 Gaussian 16, Revision C.01,
 Gaussian 16:  ES64L-G16RevC.01  3-Jul-2019

 -----------------------------------------
 # sp b3lyp/6-311g** Force nosymm scf=(qc)
 -----------------------------------------

 -------------------
 Title Card Required
 -------------------
 Symbolic Z-matrix:
 Charge =  0 Multiplicity = 2

                          Input orientation:
 ---------------------------------------------------------------------
 Center     Atomic      Atomic             Coordinates (Angstroms)
 Number     Number       Type             X           Y           Z
 ---------------------------------------------------------------------
      1          1           0        0.000000    0.000000    0.000000
      2          1           0       -4.000000    0.000000    0.000000
      3          9           0        2.300000    0.000000    0.000000
 ---------------------------------------------------------------------

 SCF Done:  E(UB3LYP) =  -100.772647868     a.u. after   16 cycles

 Alpha  occ. eigenvalues --  -24.70468  -1.16751  -0.49547  -0.41649  -0.41649
 Alpha  occ. eigenvalues --   -0.32882
 Alpha virt. eigenvalues --   -0.11564   0.23181   0.33911   0.88661   0.94223
 Alpha virt. eigenvalues --    0.94223   1.06067   1.24619   1.24619   1.24619
 Alpha virt. eigenvalues --    1.38566   1.38566   1.48424   2.13881   2.34012

  Beta  occ. eigenvalues --  -24.67756  -1.09073  -0.38954  -0.38954  -0.36260
  Beta virt. eigenvalues --   -0.22467  -0.06095   0.23363   0.38093   0.92715
  Beta virt. eigenvalues --    0.95440   0.95440   1.08194   1.21596   1.21596
  Beta virt. eigenvalues --    1.37153   1.46544   1.46687   1.46687   2.11451

 Mulliken charges and spin densities:
               1          2
     1  H    0.123818  -0.854472
     2  H    0.000316   0.999384
     3  F   -0.124134   0.855088
 Sum of Mulliken charges =  -0.00000   1.00000

 Dipole moment (field-independent basis, Debye):
    X=             -1.4443    Y=             -0.0000    Z=              0.0000  Tot=              1.4443
 Quadrupole moment (field-independent basis, Debye-Ang):
   XX=             -9.7096   YY=             -7.5399   ZZ=             -7.5399
   XY=             -0.0000   XZ=              0.0000   YZ=              0.0000

  Exact polarizability:      28.014      -0.000       2.034       0.000       0.000       2.034
 Approx polarizability:      38.178      -0.000       1.924       0.000      -0.000       1.924

 ******    2 imaginary frequencies (negative Signs) ******

                      1                      2                      3
                      A                      A                      A
 Frequencies --   -763.0670               -68.1381               315.1848
 Red. masses --      1.0574                 1.0541                 1.0258
 Frc consts  --      0.3628                 0.0029                 0.0600
 IR Inten    --     97.9645                 0.0282                14.9709

                      4
                      A
 Frequencies --    315.1848
 Red. masses --      1.0258
 Frc consts  --      0.0600
 IR Inten    --     14.9709

 - Thermochemistry -
 -------------------
 Temperature   298.150 Kelvin.  Pressure   1.00000 Atm.
 Atom     1 has atomic number  1 and mass   1.00783

 Molecular mass:    21.01405 amu.
 Principal axes and moments of inertia in atomic units:
                           1         2         3
     Eigenvalues --     0.00000 149.11740 149.11740
           X            1.00000  -0.00000   0.00000
           Y            0.00000   1.00000   0.00000
           Z            0.00000   0.00000   1.00000
 This molecule is a prolate symmetric top.
 Rotational symmetry number  1.
 Rotational temperature (Kelvin)      0.58084
 Rotational constant (GHZ):          12.102821
    2 imaginary frequencies ignored.
 Zero-point vibrational energy       3770.4 (Joules/Mol)
                                    0.90116 (Kcal/Mol)
 Warning -- explicit consideration of   2 degrees of freedom as
           vibrations may cause significant error
 Vibrational temperatures:    453.48   453.48
          (Kelvin)

 Zero-point correction=                           0.001436 (Hartree/Particle)
 Thermal correction to Energy=                    0.004600
 Thermal correction to Enthalpy=                  0.005544
 Thermal correction to Gibbs Free Energy=        -0.019878
 Sum of electronic and zero-point Energies=           -100.771212
 Sum of electronic and thermal Energies=              -100.768048
 Sum of electronic and thermal Enthalpies=            -100.767104
 Sum of electronic and thermal Free Energies=         -100.792526

                     E (Thermal)             CV                S
                      KCal/Mol        Cal/Mol-Kelvin    Cal/Mol-Kelvin
 Total                    2.886              8.257             53.504
 Electronic               0.000              0.000              1.377
 Translational            0.889              2.981             35.068
 Rotational               0.592              1.987             14.389
 Vibrational              1.405              3.289              2.670
 Vibration     1          0.703              1.645              1.335
 Vibration     2          0.703              1.645              1.335

 Normal termination of Gaussian 16 at Fri Aug 22 17:23:39 2025.
