 Gaussian 16, Revision C.01,
 Gaussian 16:  ES64L-G16RevC.01  3-Jul-2019

 -----------------------------------------
 # sp b3lyp/6-311g** Force nosymm scf=(qc)
 -----------------------------------------

 -------------------
 Title Card Required
 -------------------
 Symbolic Z-matrix:
 Charge =  0 Multiplicity = 2

                          Input orientation:
 ---------------------------------------------------------------------
 Center     Atomic      Atomic             Coordinates (Angstroms)
 Number     Number       Type             X           Y           Z
 ---------------------------------------------------------------------
      1          1           0        0.000000    0.000000    0.000000
      2          1           0       -2.450000    0.000000    0.000000
      3          9           0        2.950000    0.000000    0.000000
 ---------------------------------------------------------------------

 SCF Done:  E(UB3LYP) =  -100.765755788     a.u. after   22 cycles

 Alpha  occ. eigenvalues --  -24.73976  -1.20040  -0.53092  -0.44579  -0.44579
 Alpha  occ. eigenvalues --   -0.33185
 Alpha virt. eigenvalues --   -0.10722   0.25362   0.33401   0.89722   0.92345
 Alpha virt. eigenvalues --    0.92345   1.04262   1.24489   1.24489   1.26365
 Alpha virt. eigenvalues --    1.39470   1.39470   1.41698   2.15113   2.36056

  Beta  occ. eigenvalues --  -24.70958  -1.11394  -0.41560  -0.41560  -0.33919
  Beta virt. eigenvalues --   -0.24732  -0.09478   0.25623   0.34637   0.93803
  Beta virt. eigenvalues --    0.93803   0.98427   1.08153   1.23604   1.23604
  Beta virt. eigenvalues --    1.25364   1.41490   1.41490   1.43566   2.16106

 Mulliken charges and spin densities:
               1          2
     1  H    0.032513  -0.922027
     2  H    0.006809   0.965921
     3  F   -0.039322   0.956106
 Sum of Mulliken charges =  -0.00000   1.00000

 Dipole moment (field-independent basis, Debye):
    X=             -0.6746    Y=             -0.0000    Z=             -0.0000  Tot=              0.6746
 Quadrupole moment (field-independent basis, Debye-Ang):
   XX=             -7.9845   YY=             -7.6539   ZZ=             -7.6539
   XY=             -0.0000   XZ=             -0.0000   YZ=             -0.0000

  Exact polarizability:      45.668      -0.000       2.013      -0.000      -0.000       2.013
 Approx polarizability:      41.542      -0.000       1.921      -0.000       0.000       1.921

 ******    2 imaginary frequencies (negative Signs) ******

                      1                      2                      3
                      A                      A                      A
 Frequencies --   -754.6679              -248.3173               284.4025
 Red. masses --      1.0098                 1.1061                 1.0158
 Frc consts  --      0.3388                 0.0402                 0.0484
 IR Inten    --     24.5607                21.8993                 0.8009

                      4
                      A
 Frequencies --    284.4025
 Red. masses --      1.0158
 Frc consts  --      0.0484
 IR Inten    --      0.8009

 - Thermochemistry -
 -------------------
 Temperature   298.150 Kelvin.  Pressure   1.00000 Atm.
 Atom     1 has atomic number  1 and mass   1.00783

 Molecular mass:    21.01405 amu.
 Principal axes and moments of inertia in atomic units:
                           1         2         3
     Eigenvalues --     0.00000 124.23288 124.23288
           X            1.00000  -0.00000   0.00000
           Y            0.00000   1.00000   0.00000
           Z            0.00000   0.00000   1.00000
 This molecule is a prolate symmetric top.
 Rotational symmetry number  1.
 Rotational temperature (Kelvin)      0.69719
 Rotational constant (GHZ):          14.527082
    2 imaginary frequencies ignored.
 Zero-point vibrational energy       3402.2 (Joules/Mol)
                                    0.81315 (Kcal/Mol)
 Warning -- explicit consideration of   2 degrees of freedom as
           vibrations may cause significant error
 Vibrational temperatures:    409.19   409.19
          (Kelvin)

 Zero-point correction=                           0.001296 (Hartree/Particle)
 Thermal correction to Energy=                    0.004536
 Thermal correction to Enthalpy=                  0.005481
 Thermal correction to Gibbs Free Energy=        -0.019932
 Sum of electronic and zero-point Energies=           -100.764460
 Sum of electronic and thermal Energies=              -100.761219
 Sum of electronic and thermal Enthalpies=            -100.760275
 Sum of electronic and thermal Free Energies=         -100.785688

                     E (Thermal)             CV                S
                      KCal/Mol        Cal/Mol-Kelvin    Cal/Mol-Kelvin
 Total                    2.847              8.373             53.486
 Electronic               0.000              0.000              1.377
 Translational            0.889              2.981             35.068
 Rotational               0.592              1.987             14.026
 Vibrational              1.365              3.405              3.014
 Vibration     1          0.683              1.703              1.507
 Vibration     2          0.683              1.703              1.507

 Normal termination of Gaussian 16 at Fri Aug 22 19:17:51 2025.
