 Gaussian 16, Revision C.01,
 Gaussian 16:  ES64L-G16RevC.01  3-Jul-2019

 -----------------------------------------
 # sp b3lyp/6-311g** Force nosymm scf=(qc)
 -----------------------------------------

 -------------------
 Title Card Required
 -------------------
 Symbolic Z-matrix:
 Charge =  0 Multiplicity = 2

                          Input orientation:
 ---------------------------------------------------------------------
 Center     Atomic      Atomic             Coordinates (Angstroms)
 Number     Number       Type             X           Y           Z
 ---------------------------------------------------------------------
      1          1           0        0.000000    0.000000    0.000000
      2          1           0       -1.050000    0.000000    0.000000
      3          9           0        0.700000    0.000000    0.000000
 ---------------------------------------------------------------------

 SCF Done:  E(UB3LYP) =  -100.842212998     a.u. after    6 cycles

 Alpha  occ. eigenvalues --  -24.64477  -1.30464  -0.62797  -0.43046  -0.43046
 Alpha  occ. eigenvalues --   -0.34731
 Alpha virt. eigenvalues --    0.15960   0.19586   0.66196   0.89834   0.89834
 Alpha virt. eigenvalues --    0.93332   1.09508   1.09508   1.46893   1.65184
 Alpha virt. eigenvalues --    1.65184   1.77455   2.01701   2.37196   3.70074

  Beta  occ. eigenvalues --  -24.64075  -1.29284  -0.60402  -0.42716  -0.42716
  Beta virt. eigenvalues --   -0.13542   0.16820   0.25679   0.71752   0.91090
  Beta virt. eigenvalues --    0.91090   0.94233   1.17406   1.17406   1.47939
  Beta virt. eigenvalues --    1.71032   1.71032   1.86188   2.06842   2.53257

 Mulliken charges and spin densities:
               1          2
     1  H    0.255532  -0.000619
     2  H   -0.012946   0.935474
     3  F   -0.242586   0.065145
 Sum of Mulliken charges =   0.00000   1.00000

 Dipole moment (field-independent basis, Debye):
    X=             -1.3438    Y=             -0.0000    Z=             -0.0000  Tot=              1.3438
 Quadrupole moment (field-independent basis, Debye-Ang):
   XX=             -7.3394   YY=             -6.4996   ZZ=             -6.4996
   XY=             -0.0000   XZ=             -0.0000   YZ=              0.0000

  Exact polarizability:       8.108       0.000       2.560      -0.000      -0.000       2.560
 Approx polarizability:       8.017      -0.000       2.608       0.000      -0.000       2.608

 ******    2 imaginary frequencies (negative Signs) ******

                      1                      2                      3
                      A                      A                      A
 Frequencies --  -3568.8965             -3568.8965              1834.6931
 Red. masses --      1.0235                 1.0235                 1.0549
 Frc consts  --      7.6810                 7.6810                 2.0921
 IR Inten    --    125.0981               125.0981                61.2788

                      4
                      A
 Frequencies --   9005.4776
 Red. masses --      1.0567
 Frc consts  --     50.4898
 IR Inten    --     85.2976

 - Thermochemistry -
 -------------------
 Temperature   298.150 Kelvin.  Pressure   1.00000 Atm.
 Atom     1 has atomic number  1 and mass   1.00783

 Molecular mass:    21.01405 amu.
 Principal axes and moments of inertia in atomic units:
                           1         2         3
     Eigenvalues --     0.00000  11.74940  11.74940
           X            1.00000  -0.00000   0.00000
           Y            0.00000   1.00000   0.00000
           Z            0.00000   0.00000   1.00000
 This molecule is a prolate symmetric top.
 Rotational symmetry number  1.
 Rotational temperature (Kelvin)      7.37177
 Rotational constant (GHZ):         153.602776
    2 imaginary frequencies ignored.
 Zero-point vibrational energy      64838.6 (Joules/Mol)
                                   15.49680 (Kcal/Mol)
 Vibrational temperatures:   2639.71 12956.87
          (Kelvin)

 Zero-point correction=                           0.024696 (Hartree/Particle)
 Thermal correction to Energy=                    0.027057
 Thermal correction to Enthalpy=                  0.028002
 Thermal correction to Gibbs Free Energy=         0.006246
 Sum of electronic and zero-point Energies=           -100.817517
 Sum of electronic and thermal Energies=              -100.815156
 Sum of electronic and thermal Enthalpies=            -100.814211
 Sum of electronic and thermal Free Energies=         -100.835967

                     E (Thermal)             CV                S
                      KCal/Mol        Cal/Mol-Kelvin    Cal/Mol-Kelvin
 Total                   16.979              4.990             45.788
 Electronic               0.000              0.000              1.377
 Translational            0.889              2.981             35.068
 Rotational               0.592              1.987              9.340
 Vibrational             15.498              0.022              0.003

 Normal termination of Gaussian 16 at Fri Aug 22 15:45:46 2025.
