 Gaussian 16, Revision C.01,
 Gaussian 16:  ES64L-G16RevC.01  3-Jul-2019

 -----------------------------------------
 # sp b3lyp/6-311g** Force nosymm scf=(qc)
 -----------------------------------------

 -------------------
 Title Card Required
 -------------------
 Symbolic Z-matrix:
 Charge =  0 Multiplicity = 2

                          Input orientation:
 ---------------------------------------------------------------------
 Center     Atomic      Atomic             Coordinates (Angstroms)
 Number     Number       Type             X           Y           Z
 ---------------------------------------------------------------------
      1          1           0        0.000000    0.000000    0.000000
      2          1           0       -2.550000    0.000000    0.000000
      3          9           0        2.450000    0.000000    0.000000
 ---------------------------------------------------------------------

 SCF Done:  E(UB3LYP) =  -100.771774903     a.u. after   17 cycles

 Alpha  occ. eigenvalues --  -24.71440  -1.17666  -0.50534  -0.42451  -0.42451
 Alpha  occ. eigenvalues --   -0.33802
 Alpha virt. eigenvalues --   -0.11998   0.24686   0.33161   0.89902   0.93785
 Alpha virt. eigenvalues --    0.93785   1.06654   1.23832   1.23832   1.26565
 Alpha virt. eigenvalues --    1.37936   1.37936   1.43881   2.14777   2.33173

  Beta  occ. eigenvalues --  -24.68626  -1.09666  -0.39648  -0.39648  -0.35513
  Beta virt. eigenvalues --   -0.23180  -0.09429   0.25677   0.34889   0.95125
  Beta virt. eigenvalues --    0.95125   0.96344   1.09289   1.22164   1.22164
  Beta virt. eigenvalues --    1.31698   1.41926   1.41926   1.43413   2.14170

 Mulliken charges and spin densities:
               1          2
     1  H    0.086434  -0.863142
     2  H    0.010312   0.974485
     3  F   -0.096746   0.888657
 Sum of Mulliken charges =  -0.00000   1.00000

 Dipole moment (field-independent basis, Debye):
    X=             -1.3292    Y=              0.0000    Z=             -0.0000  Tot=              1.3292
 Quadrupole moment (field-independent basis, Debye-Ang):
   XX=             -8.9510   YY=             -7.6011   ZZ=             -7.6011
   XY=              0.0000   XZ=             -0.0000   YZ=              0.0000

  Exact polarizability:      41.887       0.000       2.018      -0.000       0.000       2.018
 Approx polarizability:      46.324      -0.000       1.919       0.000      -0.000       1.919

 ******    2 imaginary frequencies (negative Signs) ******

                      1                      2                      3
                      A                      A                      A
 Frequencies --   -808.6970              -336.4630               323.1540
 Red. masses --      1.0251                 1.0883                 1.0184
 Frc consts  --      0.3950                 0.0726                 0.0627
 IR Inten    --     61.2884                20.5951                 6.2308

                      4
                      A
 Frequencies --    323.1540
 Red. masses --      1.0184
 Frc consts  --      0.0627
 IR Inten    --      6.2308

 - Thermochemistry -
 -------------------
 Temperature   298.150 Kelvin.  Pressure   1.00000 Atm.
 Atom     1 has atomic number  1 and mass   1.00783

 Molecular mass:    21.01405 amu.
 Principal axes and moments of inertia in atomic units:
                           1         2         3
     Eigenvalues --     0.00000 101.99815 101.99815
           X            1.00000  -0.00000   0.00000
           Y            0.00000   1.00000   0.00000
           Z            0.00000   0.00000   1.00000
 This molecule is a prolate symmetric top.
 Rotational symmetry number  1.
 Rotational temperature (Kelvin)      0.84917
 Rotational constant (GHZ):          17.693863
    2 imaginary frequencies ignored.
 Zero-point vibrational energy       3865.8 (Joules/Mol)
                                    0.92394 (Kcal/Mol)
 Warning -- explicit consideration of   2 degrees of freedom as
           vibrations may cause significant error
 Vibrational temperatures:    464.95   464.95
          (Kelvin)

 Zero-point correction=                           0.001472 (Hartree/Particle)
 Thermal correction to Energy=                    0.004617
 Thermal correction to Enthalpy=                  0.005561
 Thermal correction to Gibbs Free Energy=        -0.019463
 Sum of electronic and zero-point Energies=           -100.770303
 Sum of electronic and thermal Energies=              -100.767158
 Sum of electronic and thermal Enthalpies=            -100.766214
 Sum of electronic and thermal Free Energies=         -100.791238

                     E (Thermal)             CV                S
                      KCal/Mol        Cal/Mol-Kelvin    Cal/Mol-Kelvin
 Total                    2.897              8.226             52.668
 Electronic               0.000              0.000              1.377
 Translational            0.889              2.981             35.068
 Rotational               0.592              1.987             13.634
 Vibrational              1.416              3.258              2.588
 Vibration     1          0.708              1.629              1.294
 Vibration     2          0.708              1.629              1.294

 Normal termination of Gaussian 16 at Fri Aug 22 17:38:51 2025.
