 Gaussian 16, Revision C.01,
 Gaussian 16:  ES64L-G16RevC.01  3-Jul-2019

 -----------------------------------------
 # sp b3lyp/6-311g** Force nosymm scf=(qc)
 -----------------------------------------

 -------------------
 Title Card Required
 -------------------
 Symbolic Z-matrix:
 Charge =  0 Multiplicity = 2

                          Input orientation:
 ---------------------------------------------------------------------
 Center     Atomic      Atomic             Coordinates (Angstroms)
 Number     Number       Type             X           Y           Z
 ---------------------------------------------------------------------
      1          1           0        0.000000    0.000000    0.000000
      2          1           0       -1.250000    0.000000    0.000000
      3          9           0        1.900000    0.000000    0.000000
 ---------------------------------------------------------------------

 SCF Done:  E(UB3LYP) =  -100.873209747     a.u. after   13 cycles

 Alpha  occ. eigenvalues --  -24.70891  -1.17274  -0.50873  -0.42112  -0.42112
 Alpha  occ. eigenvalues --   -0.39311
 Alpha virt. eigenvalues --   -0.05535   0.21571   0.32683   0.89430   0.92478
 Alpha virt. eigenvalues --    0.92478   1.05137   1.11049   1.11049   1.40187
 Alpha virt. eigenvalues --    1.48997   1.48997   2.03748   2.26496   2.52414

  Beta  occ. eigenvalues --  -24.68237  -1.09811  -0.39487  -0.39487  -0.39125
  Beta virt. eigenvalues --   -0.24323  -0.03565   0.22935   0.33161   0.93555
  Beta virt. eigenvalues --    0.93555   0.95214   1.08419   1.12887   1.12887
  Beta virt. eigenvalues --    1.43887   1.50087   1.50087   2.05851   2.27965

 Mulliken charges and spin densities:
               1          2
     1  H    0.071225  -0.166611
     2  H    0.059082   0.336547
     3  F   -0.130307   0.830063
 Sum of Mulliken charges =   0.00000   1.00000

 Dipole moment (field-independent basis, Debye):
    X=             -1.5599    Y=             -0.0000    Z=             -0.0000  Tot=              1.5599
 Quadrupole moment (field-independent basis, Debye-Ang):
   XX=             -7.2113   YY=             -7.3766   ZZ=             -7.3766
   XY=             -0.0000   XZ=             -0.0000   YZ=             -0.0000

  Exact polarizability:      42.791      -0.000       2.195      -0.000       0.000       2.195
 Approx polarizability:      64.910       0.000       2.174       0.000       0.000       2.174

 ******    2 imaginary frequencies (negative Signs) ******

                      1                      2                      3
                      A                      A                      A
 Frequencies --  -1833.4977              -252.2362              1315.5363
 Red. masses --      1.0166                 1.0981                 1.0137
 Frc consts  --      2.0136                 0.0412                 1.0336
 IR Inten    --   1168.6336                 0.0527                 0.6706

                      4
                      A
 Frequencies --   1315.5363
 Red. masses --      1.0137
 Frc consts  --      1.0336
 IR Inten    --      0.6706

 - Thermochemistry -
 -------------------
 Temperature   298.150 Kelvin.  Pressure   1.00000 Atm.
 Atom     1 has atomic number  1 and mass   1.00783

 Molecular mass:    21.01405 amu.
 Principal axes and moments of inertia in atomic units:
                           1         2         3
     Eigenvalues --     0.00000  44.30168  44.30168
           X            1.00000  -0.00000   0.00000
           Y            0.00000   1.00000   0.00000
           Z            0.00000   0.00000   1.00000
 This molecule is a prolate symmetric top.
 Rotational symmetry number  1.
 Rotational temperature (Kelvin)      1.95509
 Rotational constant (GHZ):          40.737539
    2 imaginary frequencies ignored.
 Zero-point vibrational energy      15737.3 (Joules/Mol)
                                    3.76131 (Kcal/Mol)
 Vibrational temperatures:   1892.76  1892.76
          (Kelvin)

 Zero-point correction=                           0.005994 (Hartree/Particle)
 Thermal correction to Energy=                    0.008375
 Thermal correction to Enthalpy=                  0.009320
 Thermal correction to Gibbs Free Energy=        -0.013712
 Sum of electronic and zero-point Energies=           -100.867216
 Sum of electronic and thermal Energies=              -100.864834
 Sum of electronic and thermal Enthalpies=            -100.863890
 Sum of electronic and thermal Free Energies=         -100.886922

                     E (Thermal)             CV                S
                      KCal/Mol        Cal/Mol-Kelvin    Cal/Mol-Kelvin
 Total                    5.256              5.249             48.474
 Electronic               0.000              0.000              1.377
 Translational            0.889              2.981             35.068
 Rotational               0.592              1.987             11.977
 Vibrational              3.774              0.281              0.051

 Normal termination of Gaussian 16 at Fri Aug 22 16:49:19 2025.
