 Gaussian 16, Revision C.01,
 Gaussian 16:  ES64L-G16RevC.01  3-Jul-2019

 -----------------------------------------
 # sp b3lyp/6-311g** Force nosymm scf=(qc)
 -----------------------------------------

 -------------------
 Title Card Required
 -------------------
 Symbolic Z-matrix:
 Charge =  0 Multiplicity = 2

                          Input orientation:
 ---------------------------------------------------------------------
 Center     Atomic      Atomic             Coordinates (Angstroms)
 Number     Number       Type             X           Y           Z
 ---------------------------------------------------------------------
      1          1           0        0.000000    0.000000    0.000000
      2          1           0       -3.450000    0.000000    0.000000
      3          9           0        3.100000    0.000000    0.000000
 ---------------------------------------------------------------------

 SCF Done:  E(UB3LYP) =  -100.760522218     a.u. after   21 cycles

 Alpha  occ. eigenvalues --  -24.74423  -1.20458  -0.53543  -0.44957  -0.44957
 Alpha  occ. eigenvalues --   -0.32503
 Alpha virt. eigenvalues --   -0.07921   0.24137   0.36196   0.89040   0.92072
 Alpha virt. eigenvalues --    0.92072   1.03361   1.25005   1.25005   1.25194
 Alpha virt. eigenvalues --    1.44172   1.44172   1.44411   2.14937   2.40407

  Beta  occ. eigenvalues --  -24.71372  -1.11710  -0.41903  -0.41903  -0.33503
  Beta virt. eigenvalues --   -0.24965  -0.06634   0.24013   0.37810   0.93541
  Beta virt. eigenvalues --    0.93541   0.97854   1.07171   1.23851   1.23851
  Beta virt. eigenvalues --    1.24159   1.45730   1.45986   1.45986   2.15228

 Mulliken charges and spin densities:
               1          2
     1  H    0.029807  -0.964482
     2  H    0.000435   0.997653
     3  F   -0.030242   0.966829
 Sum of Mulliken charges =  -0.00000   1.00000

 Dipole moment (field-independent basis, Debye):
    X=             -0.4889    Y=             -0.0000    Z=              0.0000  Tot=              0.4889
 Quadrupole moment (field-independent basis, Debye-Ang):
   XX=             -8.0969   YY=             -7.6142   ZZ=             -7.6142
   XY=              0.0000   XZ=             -0.0000   YZ=              0.0000

  Exact polarizability:      31.286       0.000       2.027      -0.000       0.000       2.027
 Approx polarizability:      30.109       0.000       1.928      -0.000      -0.000       1.928

 ******    2 imaginary frequencies (negative Signs) ******

                      1                      2                      3
                      A                      A                      A
 Frequencies --   -347.2317              -122.0985               121.3307
 Red. masses --      1.0419                 1.0700                 1.0193
 Frc consts  --      0.0740                 0.0094                 0.0088
 IR Inten    --     32.1417                 1.0132                 0.8218

                      4
                      A
 Frequencies --    121.3307
 Red. masses --      1.0193
 Frc consts  --      0.0088
 IR Inten    --      0.8218

 - Thermochemistry -
 -------------------
 Temperature   298.150 Kelvin.  Pressure   1.00000 Atm.
 Atom     1 has atomic number  1 and mass   1.00783

 Molecular mass:    21.01405 amu.
 Principal axes and moments of inertia in atomic units:
                           1         2         3
     Eigenvalues --     0.00000 172.91935 172.91935
           X            1.00000  -0.00000   0.00000
           Y            0.00000   1.00000   0.00000
           Z            0.00000   0.00000   1.00000
 This molecule is a prolate symmetric top.
 Rotational symmetry number  1.
 Rotational temperature (Kelvin)      0.50089
 Rotational constant (GHZ):          10.436896
    2 imaginary frequencies ignored.
 Zero-point vibrational energy       1451.4 (Joules/Mol)
                                    0.34690 (Kcal/Mol)
 Warning -- explicit consideration of   2 degrees of freedom as
           vibrations may cause significant error
 Vibrational temperatures:    174.57   174.57
          (Kelvin)

 Zero-point correction=                           0.000553 (Hartree/Particle)
 Thermal correction to Energy=                    0.004302
 Thermal correction to Enthalpy=                  0.005247
 Thermal correction to Gibbs Free Energy=        -0.021972
 Sum of electronic and zero-point Energies=           -100.759969
 Sum of electronic and thermal Energies=              -100.756220
 Sum of electronic and thermal Enthalpies=            -100.755276
 Sum of electronic and thermal Free Energies=         -100.782494

                     E (Thermal)             CV                S
                      KCal/Mol        Cal/Mol-Kelvin    Cal/Mol-Kelvin
 Total                    2.700              8.831             57.287
 Electronic               0.000              0.000              1.377
 Translational            0.889              2.981             35.068
 Rotational               0.592              1.987             14.683
 Vibrational              1.219              3.863              6.158
 Vibration     1          0.609              1.931              3.079
 Vibration     2          0.609              1.931              3.079

 Normal termination of Gaussian 16 at Fri Aug 22 19:56:16 2025.
