 Gaussian 16, Revision C.01,
 Gaussian 16:  ES64L-G16RevC.01  3-Jul-2019

 -----------------------------------------
 # sp b3lyp/6-311g** Force nosymm scf=(qc)
 -----------------------------------------

 -------------------
 Title Card Required
 -------------------
 Symbolic Z-matrix:
 Charge =  0 Multiplicity = 2

                          Input orientation:
 ---------------------------------------------------------------------
 Center     Atomic      Atomic             Coordinates (Angstroms)
 Number     Number       Type             X           Y           Z
 ---------------------------------------------------------------------
      1          1           0        0.000000    0.000000    0.000000
      2          1           0       -2.400000    0.000000    0.000000
      3          9           0        3.400000    0.000000    0.000000
 ---------------------------------------------------------------------

 SCF Done:  E(UB3LYP) =  -100.764402036     a.u. after   27 cycles

 Alpha  occ. eigenvalues --  -24.75289  -1.21258  -0.54410  -0.45685  -0.45685
 Alpha  occ. eigenvalues --   -0.32808
 Alpha virt. eigenvalues --   -0.10002   0.25722   0.33829   0.87952   0.91538
 Alpha virt. eigenvalues --    0.91538   1.02063   1.24893   1.24893   1.26183
 Alpha virt. eigenvalues --    1.40444   1.40444   1.42962   2.15297   2.36167

  Beta  occ. eigenvalues --  -24.72183  -1.12336  -0.42572  -0.42572  -0.33121
  Beta virt. eigenvalues --   -0.25451  -0.09452   0.25573   0.34613   0.93025
  Beta virt. eigenvalues --    0.93025   0.97062   1.06079   1.24510   1.24510
  Beta virt. eigenvalues --    1.25724   1.41299   1.41299   1.43800   2.15994

 Mulliken charges and spin densities:
               1          2
     1  H    0.010188  -0.944322
     2  H    0.003504   0.959701
     3  F   -0.013691   0.984621
 Sum of Mulliken charges =   0.00000   1.00000

 Dipole moment (field-independent basis, Debye):
    X=             -0.2790    Y=              0.0000    Z=              0.0000  Tot=              0.2790
 Quadrupole moment (field-independent basis, Debye-Ang):
   XX=             -7.1734   YY=             -7.6733   ZZ=             -7.6733
   XY=             -0.0000   XZ=             -0.0000   YZ=              0.0000

  Exact polarizability:      38.430      -0.000       2.019      -0.000      -0.000       2.019
 Approx polarizability:      29.576      -0.000       1.927      -0.000       0.000       1.927

 ******    2 imaginary frequencies (negative Signs) ******

                      1                      2                      3
                      A                      A                      A
 Frequencies --   -774.0034              -155.5973               288.2635
 Red. masses --      1.0080                 1.1083                 1.0143
 Frc consts  --      0.3558                 0.0158                 0.0497
 IR Inten    --      8.5361                 8.9269                 0.0660

                      4
                      A
 Frequencies --    288.2635
 Red. masses --      1.0143
 Frc consts  --      0.0497
 IR Inten    --      0.0660

 - Thermochemistry -
 -------------------
 Temperature   298.150 Kelvin.  Pressure   1.00000 Atm.
 Atom     1 has atomic number  1 and mass   1.00783

 Molecular mass:    21.01405 amu.
 Principal axes and moments of inertia in atomic units:
                           1         2         3
     Eigenvalues --     0.00000 148.06574 148.06574
           X            1.00000  -0.00000   0.00000
           Y            0.00000   1.00000   0.00000
           Z            0.00000   0.00000   1.00000
 This molecule is a prolate symmetric top.
 Rotational symmetry number  1.
 Rotational temperature (Kelvin)      0.58497
 Rotational constant (GHZ):          12.188783
    2 imaginary frequencies ignored.
 Zero-point vibrational energy       3448.4 (Joules/Mol)
                                    0.82419 (Kcal/Mol)
 Warning -- explicit consideration of   2 degrees of freedom as
           vibrations may cause significant error
 Vibrational temperatures:    414.75   414.75
          (Kelvin)

 Zero-point correction=                           0.001313 (Hartree/Particle)
 Thermal correction to Energy=                    0.004544
 Thermal correction to Enthalpy=                  0.005488
 Thermal correction to Gibbs Free Energy=        -0.020069
 Sum of electronic and zero-point Energies=           -100.763089
 Sum of electronic and thermal Energies=              -100.759858
 Sum of electronic and thermal Enthalpies=            -100.758914
 Sum of electronic and thermal Free Energies=         -100.784471

                     E (Thermal)             CV                S
                      KCal/Mol        Cal/Mol-Kelvin    Cal/Mol-Kelvin
 Total                    2.851              8.359             53.789
 Electronic               0.000              0.000              1.377
 Translational            0.889              2.981             35.068
 Rotational               0.592              1.987             14.375
 Vibrational              1.370              3.391              2.968
 Vibration     1          0.685              1.696              1.484
 Vibration     2          0.685              1.696              1.484

 Normal termination of Gaussian 16 at Fri Aug 22 21:17:15 2025.
