 Gaussian 16, Revision C.01,
 Gaussian 16:  ES64L-G16RevC.01  3-Jul-2019

 -----------------------------------------
 # sp b3lyp/6-311g** Force nosymm scf=(qc)
 -----------------------------------------

 -------------------
 Title Card Required
 -------------------
 Symbolic Z-matrix:
 Charge =  0 Multiplicity = 2

                          Input orientation:
 ---------------------------------------------------------------------
 Center     Atomic      Atomic             Coordinates (Angstroms)
 Number     Number       Type             X           Y           Z
 ---------------------------------------------------------------------
      1          1           0        0.000000    0.000000    0.000000
      2          1           0       -2.600000    0.000000    0.000000
      3          9           0        1.000000    0.000000    0.000000
 ---------------------------------------------------------------------

 SCF Done:  E(UB3LYP) =  -100.966484556     a.u. after    6 cycles

 Alpha  occ. eigenvalues --  -24.64082  -1.15974  -0.51614  -0.38714  -0.38714
 Alpha  occ. eigenvalues --   -0.34817
 Alpha virt. eigenvalues --    0.01493   0.25126   0.34220   0.94122   0.94122
 Alpha virt. eigenvalues --    0.98573   1.20604   1.22730   1.22730   1.36021
 Alpha virt. eigenvalues --    1.36021   1.36163   1.90934   2.13901   2.34406

  Beta  occ. eigenvalues --  -24.64065  -1.15930  -0.51541  -0.38699  -0.38699
  Beta virt. eigenvalues --   -0.09439   0.03178   0.34108   0.37576   0.94124
  Beta virt. eigenvalues --    0.94124   0.98621   1.29635   1.35994   1.35994
  Beta virt. eigenvalues --    1.44880   1.44880   1.49685   1.91069   2.34022

 Mulliken charges and spin densities:
               1          2
     1  H    0.315861   0.002508
     2  H    0.005889   0.991968
     3  F   -0.321750   0.005523
 Sum of Mulliken charges =   0.00000   1.00000

 Dipole moment (field-independent basis, Debye):
    X=             -2.1039    Y=             -0.0000    Z=              0.0000  Tot=              2.1039
 Quadrupole moment (field-independent basis, Debye-Ang):
   XX=             -8.0112   YY=             -6.9571   ZZ=             -6.9571
   XY=             -0.0000   XZ=              0.0000   YZ=             -0.0000

  Exact polarizability:       8.549       0.000       2.422      -0.000       0.000       2.422
 Approx polarizability:       9.821      -0.000       2.397      -0.000       0.000       2.397

 ******    1 imaginary frequencies (negative Signs) ******

                      1                      2                      3
                      A                      A                      A
 Frequencies --    -89.4438               967.3377               967.3377
 Red. masses --      1.0529                 1.0323                 1.0323
 Frc consts  --      0.0050                 0.5691                 0.5691
 IR Inten    --      0.8083               156.7474               156.7474

                      4
                      A
 Frequencies --   3016.4726
 Red. masses --      1.0586
 Frc consts  --      5.6754
 IR Inten    --    118.6092

 - Thermochemistry -
 -------------------
 Temperature   298.150 Kelvin.  Pressure   1.00000 Atm.
 Atom     1 has atomic number  1 and mass   1.00783

 Molecular mass:    21.01405 amu.
 Principal axes and moments of inertia in atomic units:
                           1         2         3
     Eigenvalues --     0.00000  46.58980  46.58980
           X            1.00000  -0.00000   0.00000
           Y            0.00000   1.00000   0.00000
           Z            0.00000   0.00000   1.00000
 This molecule is a prolate symmetric top.
 Rotational symmetry number  1.
 Rotational temperature (Kelvin)      1.85907
 Rotational constant (GHZ):          38.736833
    1 imaginary frequencies ignored.
 Zero-point vibrational energy      29614.4 (Joules/Mol)
                                    7.07802 (Kcal/Mol)
 Vibrational temperatures:   1391.78  1391.78  4340.03
          (Kelvin)

 Zero-point correction=                           0.011280 (Hartree/Particle)
 Thermal correction to Energy=                    0.013724
 Thermal correction to Enthalpy=                  0.014668
 Thermal correction to Gibbs Free Energy=        -0.008488
 Sum of electronic and zero-point Energies=           -100.955205
 Sum of electronic and thermal Energies=              -100.952761
 Sum of electronic and thermal Enthalpies=            -100.951817
 Sum of electronic and thermal Free Energies=         -100.974973

                     E (Thermal)             CV                S
                      KCal/Mol        Cal/Mol-Kelvin    Cal/Mol-Kelvin
 Total                    8.612              5.797             48.736
 Electronic               0.000              0.000              1.377
 Translational            0.889              2.981             35.068
 Rotational               0.592              1.987             12.077
 Vibrational              7.130              0.829              0.213

 Normal termination of Gaussian 16 at Fri Aug 22 16:00:58 2025.
