 Gaussian 16, Revision C.01,
 Gaussian 16:  ES64L-G16RevC.01  3-Jul-2019

 -----------------------------------------
 # sp b3lyp/6-311g** Force nosymm scf=(qc)
 -----------------------------------------

 -------------------
 Title Card Required
 -------------------
 Symbolic Z-matrix:
 Charge =  0 Multiplicity = 2

                          Input orientation:
 ---------------------------------------------------------------------
 Center     Atomic      Atomic             Coordinates (Angstroms)
 Number     Number       Type             X           Y           Z
 ---------------------------------------------------------------------
      1          1           0        0.000000    0.000000    0.000000
      2          1           0       -3.400000    0.000000    0.000000
      3          9           0        2.350000    0.000000    0.000000
 ---------------------------------------------------------------------

 SCF Done:  E(UB3LYP) =  -100.771403276     a.u. after   16 cycles

 Alpha  occ. eigenvalues --  -24.70806  -1.17072  -0.49892  -0.41930  -0.41930
 Alpha  occ. eigenvalues --   -0.33099
 Alpha virt. eigenvalues --   -0.11243   0.23297   0.34532   0.89064   0.94076
 Alpha virt. eigenvalues --    0.94076   1.06313   1.24416   1.24416   1.24646
 Alpha virt. eigenvalues --    1.39092   1.39092   1.47260   2.14465   2.34559

  Beta  occ. eigenvalues --  -24.68056  -1.09276  -0.39196  -0.39196  -0.36018
  Beta virt. eigenvalues --   -0.22710  -0.07011   0.23804   0.37750   0.93802
  Beta virt. eigenvalues --    0.95342   0.95342   1.08401   1.21709   1.21709
  Beta virt. eigenvalues --    1.34940   1.45487   1.45718   1.45718   2.12368

 Mulliken charges and spin densities:
               1          2
     1  H    0.113269  -0.864636
     2  H    0.001388   0.997262
     3  F   -0.114657   0.867373
 Sum of Mulliken charges =   0.00000   1.00000

 Dipole moment (field-independent basis, Debye):
    X=             -1.3842    Y=              0.0000    Z=             -0.0000  Tot=              1.3842
 Quadrupole moment (field-independent basis, Debye-Ang):
   XX=             -9.5391   YY=             -7.5535   ZZ=             -7.5535
   XY=              0.0000   XZ=             -0.0000   YZ=              0.0000

  Exact polarizability:      30.117       0.000       2.030      -0.000       0.000       2.030
 Approx polarizability:      39.380       0.000       1.922      -0.000      -0.000       1.922

 ******    2 imaginary frequencies (negative Signs) ******

                      1                      2                      3
                      A                      A                      A
 Frequencies --   -730.3595              -136.0304               295.1976
 Red. masses --      1.0546                 1.0570                 1.0230
 Frc consts  --      0.3314                 0.0115                 0.0525
 IR Inten    --     92.7108                 0.4122                12.1392

                      4
                      A
 Frequencies --    295.1976
 Red. masses --      1.0230
 Frc consts  --      0.0525
 IR Inten    --     12.1392

 - Thermochemistry -
 -------------------
 Temperature   298.150 Kelvin.  Pressure   1.00000 Atm.
 Atom     1 has atomic number  1 and mass   1.00783

 Molecular mass:    21.01405 amu.
 Principal axes and moments of inertia in atomic units:
                           1         2         3
     Eigenvalues --     0.00000 127.54300 127.54300
           X            1.00000  -0.00000   0.00000
           Y            0.00000   1.00000   0.00000
           Z            0.00000   0.00000   1.00000
 This molecule is a prolate symmetric top.
 Rotational symmetry number  1.
 Rotational temperature (Kelvin)      0.67910
 Rotational constant (GHZ):          14.150060
    2 imaginary frequencies ignored.
 Zero-point vibrational energy       3531.3 (Joules/Mol)
                                    0.84401 (Kcal/Mol)
 Warning -- explicit consideration of   2 degrees of freedom as
           vibrations may cause significant error
 Vibrational temperatures:    424.72   424.72
          (Kelvin)

 Zero-point correction=                           0.001345 (Hartree/Particle)
 Thermal correction to Energy=                    0.004558
 Thermal correction to Enthalpy=                  0.005502
 Thermal correction to Gibbs Free Energy=        -0.019876
 Sum of electronic and zero-point Energies=           -100.770058
 Sum of electronic and thermal Energies=              -100.766845
 Sum of electronic and thermal Enthalpies=            -100.765901
 Sum of electronic and thermal Free Energies=         -100.791279

                     E (Thermal)             CV                S
                      KCal/Mol        Cal/Mol-Kelvin    Cal/Mol-Kelvin
 Total                    2.860              8.333             53.412
 Electronic               0.000              0.000              1.377
 Translational            0.889              2.981             35.068
 Rotational               0.592              1.987             14.079
 Vibrational              1.379              3.365              2.888
 Vibration     1          0.689              1.683              1.444
 Vibration     2          0.689              1.683              1.444

 Normal termination of Gaussian 16 at Fri Aug 22 17:27:39 2025.
