 Gaussian 16, Revision C.01,
 Gaussian 16:  ES64L-G16RevC.01  3-Jul-2019

 -----------------------------------------
 # sp b3lyp/6-311g** Force nosymm scf=(qc)
 -----------------------------------------

 -------------------
 Title Card Required
 -------------------
 Symbolic Z-matrix:
 Charge =  0 Multiplicity = 2

                          Input orientation:
 ---------------------------------------------------------------------
 Center     Atomic      Atomic             Coordinates (Angstroms)
 Number     Number       Type             X           Y           Z
 ---------------------------------------------------------------------
      1          1           0        0.000000    0.000000    0.000000
      2          1           0       -0.800000    0.000000    0.000000
      3          9           0        2.300000    0.000000    0.000000
 ---------------------------------------------------------------------

 SCF Done:  E(UB3LYP) =  -100.932362329     a.u. after    5 cycles

 Alpha  occ. eigenvalues --  -24.75666  -1.21619  -0.55023  -0.46020  -0.46020
 Alpha  occ. eigenvalues --   -0.43164
 Alpha virt. eigenvalues --    0.05300   0.20372   0.45210   0.89739   0.91013
 Alpha virt. eigenvalues --    0.91013   1.07298   1.07298   1.13055   1.53224
 Alpha virt. eigenvalues --    1.77945   1.77945   2.04289   2.38829   3.04320

  Beta  occ. eigenvalues --  -24.72571  -1.12746  -0.43158  -0.42923  -0.42923
  Beta virt. eigenvalues --   -0.26048   0.05903   0.20759   0.45481   0.92463
  Beta virt. eigenvalues --    0.92463   0.98042   1.07586   1.07586   1.17114
  Beta virt. eigenvalues --    1.53815   1.78114   1.78114   2.04552   2.39144

 Mulliken charges and spin densities:
               1          2
     1  H   -0.010601  -0.015062
     2  H    0.022953   0.038322
     3  F   -0.012352   0.976740
 Sum of Mulliken charges =   0.00000   1.00000

 Dipole moment (field-independent basis, Debye):
    X=             -0.2289    Y=             -0.0000    Z=              0.0000  Tot=              0.2289
 Quadrupole moment (field-independent basis, Debye-Ang):
   XX=             -5.7622   YY=             -7.0044   ZZ=             -7.0044
   XY=             -0.0000   XZ=              0.0000   YZ=             -0.0000

  Exact polarizability:      16.246       0.000       2.026       0.000      -0.000       2.026
 Approx polarizability:      17.684       0.000       2.106       0.000      -0.000       2.106

 ******    1 imaginary frequencies (negative Signs) ******

                      1                      2                      3
                      A                      A                      A
 Frequencies --   -168.2125              1076.1470              1076.1470
 Red. masses --      1.1085                 1.0100                 1.0100
 Frc consts  --      0.0185                 0.6892                 0.6892
 IR Inten    --      9.9890                 0.6621                 0.6621

                      4
                      A
 Frequencies --   3652.8610
 Red. masses --      1.0078
 Frc consts  --      7.9233
 IR Inten    --     97.7672

 - Thermochemistry -
 -------------------
 Temperature   298.150 Kelvin.  Pressure   1.00000 Atm.
 Atom     1 has atomic number  1 and mass   1.00783

 Molecular mass:    21.01405 amu.
 Principal axes and moments of inertia in atomic units:
                           1         2         3
     Eigenvalues --     0.00000  48.59201  48.59201
           X            1.00000  -0.00000   0.00000
           Y            0.00000   1.00000   0.00000
           Z            0.00000   0.00000   1.00000
 This molecule is a prolate symmetric top.
 Rotational symmetry number  1.
 Rotational temperature (Kelvin)      1.78247
 Rotational constant (GHZ):          37.140699
    1 imaginary frequencies ignored.
 Zero-point vibrational energy      34722.5 (Joules/Mol)
                                    8.29889 (Kcal/Mol)
 Vibrational temperatures:   1548.34  1548.34  5255.65
          (Kelvin)

 Zero-point correction=                           0.013225 (Hartree/Particle)
 Thermal correction to Energy=                    0.015640
 Thermal correction to Enthalpy=                  0.016585
 Thermal correction to Gibbs Free Energy=        -0.006575
 Sum of electronic and zero-point Energies=           -100.919137
 Sum of electronic and thermal Energies=              -100.916722
 Sum of electronic and thermal Enthalpies=            -100.915778
 Sum of electronic and thermal Free Energies=         -100.938938

                     E (Thermal)             CV                S
                      KCal/Mol        Cal/Mol-Kelvin    Cal/Mol-Kelvin
 Total                    9.814              5.570             48.744
 Electronic               0.000              0.000              1.377
 Translational            0.889              2.981             35.068
 Rotational               0.592              1.987             12.161
 Vibrational              8.333              0.602              0.137

 Normal termination of Gaussian 16 at Fri Aug 22 17:20:43 2025.
