 Gaussian 16, Revision C.01,
 Gaussian 16:  ES64L-G16RevC.01  3-Jul-2019

 -----------------------------------------
 # sp b3lyp/6-311g** Force nosymm scf=(qc)
 -----------------------------------------

 -------------------
 Title Card Required
 -------------------
 Symbolic Z-matrix:
 Charge =  0 Multiplicity = 2

                          Input orientation:
 ---------------------------------------------------------------------
 Center     Atomic      Atomic             Coordinates (Angstroms)
 Number     Number       Type             X           Y           Z
 ---------------------------------------------------------------------
      1          1           0        0.000000    0.000000    0.000000
      2          1           0       -1.350000    0.000000    0.000000
      3          9           0        2.650000    0.000000    0.000000
 ---------------------------------------------------------------------

 SCF Done:  E(UB3LYP) =  -100.846101589     a.u. after   52 cycles

 Alpha  occ. eigenvalues --  -24.75180  -1.21161  -0.54330  -0.45642  -0.45613
 Alpha  occ. eigenvalues --   -0.35891
 Alpha virt. eigenvalues --   -0.07813   0.23496   0.32230   0.88999   0.91512
 Alpha virt. eigenvalues --    0.92016   1.06536   1.13456   1.15522   1.15523
 Alpha virt. eigenvalues --    1.46129   1.46130   1.93514   2.26248   2.51779

  Beta  occ. eigenvalues --  -24.72114  -1.12367  -0.42583  -0.42544  -0.35636
  Beta virt. eigenvalues --   -0.25793  -0.07354   0.23817   0.32672   0.92969
  Beta virt. eigenvalues --    0.93145   0.97684   1.09603   1.15123   1.15811
  Beta virt. eigenvalues --    1.15812   1.46384   1.46385   1.93876   2.26686

 Mulliken charges and spin densities:
               1          2
     1  H    0.000099  -0.067601
     2  H    0.021339   0.097305
     3  F   -0.021438   0.970296
 Sum of Mulliken charges =  -0.00000   1.00000

 Dipole moment (field-independent basis, Debye):
    X=             -0.4313    Y=              0.0000    Z=              0.0021  Tot=              0.4313
 Quadrupole moment (field-independent basis, Debye-Ang):
   XX=             -6.1717   YY=             -7.6122   ZZ=             -7.5114
   XY=              0.0012   XZ=              0.2724   YZ=              0.0004

  Exact polarizability:     -67.016      -0.004       2.057      -1.614       0.000       2.098
 Approx polarizability:      57.761       0.000       2.080       0.050       0.000       2.148

 ******    1 imaginary frequencies (negative Signs) ******

                      1                      2                      3
                      A                      A                      A
 Frequencies --   -861.0959               231.9871              1333.1261
 Red. masses --      1.0105                 1.1052                 1.0118
 Frc consts  --      0.4415                 0.0350                 1.0595
 IR Inten    --   1722.6007               429.1667                 0.1047

                      4
                      A
 Frequencies --   1339.2466
 Red. masses --      1.0119
 Frc consts  --      1.0693
 IR Inten    --    138.1010

 - Thermochemistry -
 -------------------
 Temperature   298.150 Kelvin.  Pressure   1.00000 Atm.
 Atom     1 has atomic number  1 and mass   1.00783

 Molecular mass:    21.01405 amu.
 Principal axes and moments of inertia in atomic units:
                           1         2         3
     Eigenvalues --     0.00000  75.22506  75.22506
           X            1.00000  -0.00000   0.00000
           Y            0.00000   1.00000   0.00000
           Z            0.00000   0.00000   1.00000
 This molecule is a prolate symmetric top.
 Rotational symmetry number  1.
 Rotational temperature (Kelvin)      1.15140
 Rotational constant (GHZ):          23.991222
    1 imaginary frequencies ignored.
 Zero-point vibrational energy      17371.9 (Joules/Mol)
                                    4.15199 (Kcal/Mol)
 Warning -- explicit consideration of   1 degrees of freedom as
           vibrations may cause significant error
 Vibrational temperatures:    333.78  1918.07  1926.88
          (Kelvin)

 Zero-point correction=                           0.006617 (Hartree/Particle)
 Thermal correction to Energy=                    0.009509
 Thermal correction to Enthalpy=                  0.010453
 Thermal correction to Gibbs Free Energy=        -0.013962
 Sum of electronic and zero-point Energies=           -100.839485
 Sum of electronic and thermal Energies=              -100.836593
 Sum of electronic and thermal Enthalpies=            -100.835649
 Sum of electronic and thermal Free Energies=         -100.860064

                     E (Thermal)             CV                S
                      KCal/Mol        Cal/Mol-Kelvin    Cal/Mol-Kelvin
 Total                    5.967              7.023             51.385
 Electronic               0.000              0.000              1.377
 Translational            0.889              2.981             35.068
 Rotational               0.592              1.987             13.029
 Vibrational              4.486              2.055              1.910
 Vibration     1          0.653              1.792              1.864

 Normal termination of Gaussian 16 at Fri Aug 22 18:13:31 2025.
