 Gaussian 16, Revision C.01,
 Gaussian 16:  ES64L-G16RevC.01  3-Jul-2019

 -----------------------------------------
 # sp b3lyp/6-311g** Force nosymm scf=(qc)
 -----------------------------------------

 -------------------
 Title Card Required
 -------------------
 Symbolic Z-matrix:
 Charge =  0 Multiplicity = 2

                          Input orientation:
 ---------------------------------------------------------------------
 Center     Atomic      Atomic             Coordinates (Angstroms)
 Number     Number       Type             X           Y           Z
 ---------------------------------------------------------------------
      1          1           0        0.000000    0.000000    0.000000
      2          1           0       -1.650000    0.000000    0.000000
      3          9           0        1.350000    0.000000    0.000000
 ---------------------------------------------------------------------

 SCF Done:  E(UB3LYP) =  -100.898208605     a.u. after   11 cycles

 Alpha  occ. eigenvalues --  -24.63561  -1.10592  -0.46957  -0.37769  -0.36320
 Alpha  occ. eigenvalues --   -0.36320
 Alpha virt. eigenvalues --   -0.05239   0.21512   0.28257   0.93717   0.93717
 Alpha virt. eigenvalues --    1.00984   1.03263   1.17203   1.17203   1.37546
 Alpha virt. eigenvalues --    1.37546   1.49629   1.76432   2.16215   2.36441

  Beta  occ. eigenvalues --  -24.62893  -1.08858  -0.43718  -0.35695  -0.35695
  Beta virt. eigenvalues --   -0.19253  -0.01483   0.25596   0.30979   0.93713
  Beta virt. eigenvalues --    0.93713   1.04245   1.08034   1.27537   1.27537
  Beta virt. eigenvalues --    1.40589   1.40589   1.54878   1.80997   2.23547

 Mulliken charges and spin densities:
               1          2
     1  H    0.302507  -0.089777
     2  H    0.058782   0.885525
     3  F   -0.361290   0.204252
 Sum of Mulliken charges =   0.00000   1.00000

 Dipole moment (field-independent basis, Debye):
    X=             -2.9381    Y=              0.0000    Z=             -0.0000  Tot=              2.9381
 Quadrupole moment (field-independent basis, Debye-Ang):
   XX=             -8.2802   YY=             -7.1416   ZZ=             -7.1416
   XY=              0.0000   XZ=             -0.0000   YZ=              0.0000

  Exact polarizability:      25.029       0.000       2.345      -0.000       0.000       2.345
 Approx polarizability:      33.670       0.000       2.298      -0.000       0.000       2.298

 ******    2 imaginary frequencies (negative Signs) ******

                      1                      2                      3
                      A                      A                      A
 Frequencies --  -1965.6105              -205.3356              1087.5066
 Red. masses --      1.0250                 1.0885                 1.0206
 Frc consts  --      2.3332                 0.0270                 0.7111
 IR Inten    --     37.1125                10.2448                61.2629

                      4
                      A
 Frequencies --   1087.5066
 Red. masses --      1.0206
 Frc consts  --      0.7111
 IR Inten    --     61.2629

 - Thermochemistry -
 -------------------
 Temperature   298.150 Kelvin.  Pressure   1.00000 Atm.
 Atom     1 has atomic number  1 and mass   1.00783

 Molecular mass:    21.01405 amu.
 Principal axes and moments of inertia in atomic units:
                           1         2         3
     Eigenvalues --     0.00000  35.68412  35.68412
           X            1.00000  -0.00000   0.00000
           Y            0.00000   1.00000   0.00000
           Z            0.00000   0.00000   1.00000
 This molecule is a prolate symmetric top.
 Rotational symmetry number  1.
 Rotational temperature (Kelvin)      2.42724
 Rotational constant (GHZ):          50.575478
    2 imaginary frequencies ignored.
 Zero-point vibrational energy      13009.5 (Joules/Mol)
                                    3.10934 (Kcal/Mol)
 Vibrational temperatures:   1564.68  1564.68
          (Kelvin)

 Zero-point correction=                           0.004955 (Hartree/Particle)
 Thermal correction to Energy=                    0.007368
 Thermal correction to Enthalpy=                  0.008312
 Thermal correction to Gibbs Free Energy=        -0.014553
 Sum of electronic and zero-point Energies=           -100.893254
 Sum of electronic and thermal Energies=              -100.890841
 Sum of electronic and thermal Enthalpies=            -100.889897
 Sum of electronic and thermal Free Energies=         -100.912762

                     E (Thermal)             CV                S
                      KCal/Mol        Cal/Mol-Kelvin    Cal/Mol-Kelvin
 Total                    4.623              5.550             48.124
 Electronic               0.000              0.000              1.377
 Translational            0.889              2.981             35.068
 Rotational               0.592              1.987             11.547
 Vibrational              3.142              0.582              0.131

 Normal termination of Gaussian 16 at Fri Aug 22 16:17:21 2025.
