 Gaussian 16, Revision C.01,
 Gaussian 16:  ES64L-G16RevC.01  3-Jul-2019

 -----------------------------------------
 # sp b3lyp/6-311g** Force nosymm scf=(qc)
 -----------------------------------------

 -------------------
 Title Card Required
 -------------------
 Symbolic Z-matrix:
 Charge =  0 Multiplicity = 2

                          Input orientation:
 ---------------------------------------------------------------------
 Center     Atomic      Atomic             Coordinates (Angstroms)
 Number     Number       Type             X           Y           Z
 ---------------------------------------------------------------------
      1          1           0        0.000000    0.000000    0.000000
      2          1           0       -0.550000    0.000000    0.000000
      3          9           0        3.000000    0.000000    0.000000
 ---------------------------------------------------------------------

 SCF Done:  E(UB3LYP) =  -100.894678207     a.u. after  321 cycles

 Alpha  occ. eigenvalues --  -24.76571  -1.22370  -0.55564  -0.47916  -0.46713
 Alpha  occ. eigenvalues --   -0.46609
 Alpha virt. eigenvalues --    0.09630   0.18786   0.54304   0.85902   0.90775
 Alpha virt. eigenvalues --    0.93991   1.07230   1.11199   1.11207   1.61945
 Alpha virt. eigenvalues --    1.83619   1.96329   1.96338   2.37225   3.64698

  Beta  occ. eigenvalues --  -24.73409  -1.13282  -0.47802  -0.43549  -0.43543
  Beta virt. eigenvalues --   -0.26185   0.09691   0.18822   0.54425   0.92273
  Beta virt. eigenvalues --    0.95359   0.95877   1.10784   1.11199   1.11206
  Beta virt. eigenvalues --    1.61968   1.83659   1.96328   1.96338   2.37230

 Mulliken charges and spin densities:
               1          2
     1  H   -0.008566  -0.001724
     2  H   -0.001607   0.000333
     3  F    0.010173   1.001391
 Sum of Mulliken charges =   0.00000   1.00000

 Dipole moment (field-independent basis, Debye):
    X=              0.0903    Y=             -0.0000    Z=             -0.0000  Tot=              0.0903
 Quadrupole moment (field-independent basis, Debye-Ang):
   XX=             -5.9899   YY=             -6.4771   ZZ=             -6.0023
   XY=             -0.0000   XZ=              0.0000   YZ=             -0.3606

  Exact polarizability:       6.298      -0.000       1.945       0.000      -0.192       2.198
 Approx polarizability:       6.676      -0.000       2.054       0.000      -0.241       2.371

 ******    2 imaginary frequencies (negative Signs) ******

                      1                      2                      3
                      A                      A                      A
 Frequencies --  -3688.8219             -3688.4723                66.7815
 Red. masses --      1.0085                 1.0085                 1.1085
 Frc consts  --      8.0857                 8.0841                 0.0029
 IR Inten    --      0.0524                 0.0519                 0.1631

                      4
                      A
 Frequencies --   8342.8915
 Red. masses --      1.0078
 Frc consts  --     41.3303
 IR Inten    --      0.3048

 - Thermochemistry -
 -------------------
 Temperature   298.150 Kelvin.  Pressure   1.00000 Atm.
 Atom     1 has atomic number  1 and mass   1.00783

 Molecular mass:    21.01405 amu.
 Principal axes and moments of inertia in atomic units:
                           1         2         3
     Eigenvalues --     0.00000  70.34231  70.34231
           X            1.00000  -0.00000   0.00000
           Y            0.00000   1.00000   0.00000
           Z            0.00000   0.00000   1.00000
 This molecule is a prolate symmetric top.
 Rotational symmetry number  1.
 Rotational temperature (Kelvin)      1.23132
 Rotational constant (GHZ):          25.656552
    2 imaginary frequencies ignored.
 Zero-point vibrational energy      50301.0 (Joules/Mol)
                                   12.02223 (Kcal/Mol)
 Warning -- explicit consideration of   1 degrees of freedom as
           vibrations may cause significant error
 Vibrational temperatures:     96.08 12003.56
          (Kelvin)

 Zero-point correction=                           0.019159 (Hartree/Particle)
 Thermal correction to Energy=                    0.022319
 Thermal correction to Enthalpy=                  0.023263
 Thermal correction to Gibbs Free Energy=        -0.002198
 Sum of electronic and zero-point Energies=           -100.875520
 Sum of electronic and thermal Energies=              -100.872359
 Sum of electronic and thermal Enthalpies=            -100.871415
 Sum of electronic and thermal Free Energies=         -100.896876

                     E (Thermal)             CV                S
                      KCal/Mol        Cal/Mol-Kelvin    Cal/Mol-Kelvin
 Total                   14.006              6.938             53.587
 Electronic               0.000              0.000              1.377
 Translational            0.889              2.981             35.068
 Rotational               0.592              1.987             12.896
 Vibrational             12.524              1.970              4.246
 Vibration     1          0.598              1.970              4.246

 Normal termination of Gaussian 16 at Fri Aug 22 19:20:35 2025.
