 Gaussian 16, Revision C.01,
 Gaussian 16:  ES64L-G16RevC.01  3-Jul-2019

 -----------------------------------------
 # sp b3lyp/6-311g** Force nosymm scf=(qc)
 -----------------------------------------

 -------------------
 Title Card Required
 -------------------
 Symbolic Z-matrix:
 Charge =  0 Multiplicity = 2

                          Input orientation:
 ---------------------------------------------------------------------
 Center     Atomic      Atomic             Coordinates (Angstroms)
 Number     Number       Type             X           Y           Z
 ---------------------------------------------------------------------
      1          1           0        0.000000    0.000000    0.000000
      2          1           0       -3.700000    0.000000    0.000000
      3          9           0        3.050000    0.000000    0.000000
 ---------------------------------------------------------------------

 SCF Done:  E(UB3LYP) =  -100.760616121     a.u. after   22 cycles

 Alpha  occ. eigenvalues --  -24.74252  -1.20300  -0.53372  -0.44815  -0.44815
 Alpha  occ. eigenvalues --   -0.32475
 Alpha virt. eigenvalues --   -0.07784   0.23942   0.36284   0.89192   0.92175
 Alpha virt. eigenvalues --    0.92175   1.03609   1.25025   1.25025   1.25097
 Alpha virt. eigenvalues --    1.44430   1.44430   1.44741   2.14601   2.40624

  Beta  occ. eigenvalues --  -24.71213  -1.11588  -0.41772  -0.41772  -0.33607
  Beta virt. eigenvalues --   -0.24869  -0.06252   0.23823   0.38062   0.93640
  Beta virt. eigenvalues --    0.93640   0.97941   1.07370   1.23729   1.23729
  Beta virt. eigenvalues --    1.24025   1.46207   1.46419   1.46419   2.14770

 Mulliken charges and spin densities:
               1          2
     1  H    0.033439  -0.961823
     2  H    0.000247   0.998736
     3  F   -0.033686   0.963087
 Sum of Mulliken charges =  -0.00000   1.00000

 Dipole moment (field-independent basis, Debye):
    X=             -0.5321    Y=              0.0000    Z=             -0.0000  Tot=              0.5321
 Quadrupole moment (field-independent basis, Debye-Ang):
   XX=             -8.2262   YY=             -7.6090   ZZ=             -7.6090
   XY=              0.0000   XZ=             -0.0000   YZ=              0.0000

  Exact polarizability:      30.966       0.000       2.027      -0.000       0.000       2.027
 Approx polarizability:      30.894       0.000       1.927      -0.000      -0.000       1.927

 ******    2 imaginary frequencies (negative Signs) ******

                      1                      2                      3
                      A                      A                      A
 Frequencies --   -352.3297               -95.5720               121.9952
 Red. masses --      1.0498                 1.0618                 1.0204
 Frc consts  --      0.0768                 0.0057                 0.0089
 IR Inten    --     36.0968                 0.2960                 1.0574

                      4
                      A
 Frequencies --    121.9952
 Red. masses --      1.0204
 Frc consts  --      0.0089
 IR Inten    --      1.0574

 - Thermochemistry -
 -------------------
 Temperature   298.150 Kelvin.  Pressure   1.00000 Atm.
 Atom     1 has atomic number  1 and mass   1.00783

 Molecular mass:    21.01405 amu.
 Principal axes and moments of inertia in atomic units:
                           1         2         3
     Eigenvalues --     0.00000 180.88244 180.88244
           X            1.00000  -0.00000   0.00000
           Y            0.00000   1.00000   0.00000
           Z            0.00000   0.00000   1.00000
 This molecule is a prolate symmetric top.
 Rotational symmetry number  1.
 Rotational temperature (Kelvin)      0.47884
 Rotational constant (GHZ):           9.977426
    2 imaginary frequencies ignored.
 Zero-point vibrational energy       1459.4 (Joules/Mol)
                                    0.34880 (Kcal/Mol)
 Warning -- explicit consideration of   2 degrees of freedom as
           vibrations may cause significant error
 Vibrational temperatures:    175.52   175.52
          (Kelvin)

 Zero-point correction=                           0.000556 (Hartree/Particle)
 Thermal correction to Energy=                    0.004303
 Thermal correction to Enthalpy=                  0.005247
 Thermal correction to Gibbs Free Energy=        -0.022004
 Sum of electronic and zero-point Energies=           -100.760060
 Sum of electronic and thermal Energies=              -100.756313
 Sum of electronic and thermal Enthalpies=            -100.755369
 Sum of electronic and thermal Free Energies=         -100.782620

                     E (Thermal)             CV                S
                      KCal/Mol        Cal/Mol-Kelvin    Cal/Mol-Kelvin
 Total                    2.700              8.830             57.355
 Electronic               0.000              0.000              1.377
 Translational            0.889              2.981             35.068
 Rotational               0.592              1.987             14.773
 Vibrational              1.219              3.862              6.137
 Vibration     1          0.609              1.931              3.069
 Vibration     2          0.609              1.931              3.069

 Normal termination of Gaussian 16 at Fri Aug 22 19:45:32 2025.
