 Gaussian 16, Revision C.01,
 Gaussian 16:  ES64L-G16RevC.01  3-Jul-2019

 -----------------------------------------
 # sp b3lyp/6-311g** Force nosymm scf=(qc)
 -----------------------------------------

 -------------------
 Title Card Required
 -------------------
 Symbolic Z-matrix:
 Charge =  0 Multiplicity = 2

                          Input orientation:
 ---------------------------------------------------------------------
 Center     Atomic      Atomic             Coordinates (Angstroms)
 Number     Number       Type             X           Y           Z
 ---------------------------------------------------------------------
      1          1           0        0.000000    0.000000    0.000000
      2          1           0       -1.000000    0.000000    0.000000
      3          9           0        3.600000    0.000000    0.000000
 ---------------------------------------------------------------------

 SCF Done:  E(UB3LYP) =  -100.906583979     a.u. after    7 cycles

 Alpha  occ. eigenvalues --  -24.76164  -1.22071  -0.55288  -0.46434  -0.46434
 Alpha  occ. eigenvalues --   -0.39108
 Alpha virt. eigenvalues --    0.00102   0.21220   0.38334   0.87489   0.90959
 Alpha virt. eigenvalues --    0.90959   1.01452   1.08995   1.08995   1.37393
 Alpha virt. eigenvalues --    1.65639   1.65639   2.21703   2.35927   2.58710

  Beta  occ. eigenvalues --  -24.73014  -1.13009  -0.43275  -0.43275  -0.39103
  Beta virt. eigenvalues --   -0.26016   0.00133   0.21247   0.38476   0.92458
  Beta virt. eigenvalues --    0.92458   0.96736   1.05585   1.09002   1.09002
  Beta virt. eigenvalues --    1.37411   1.65645   1.65645   2.21730   2.35939

 Mulliken charges and spin densities:
               1          2
     1  H   -0.004731  -0.000737
     2  H    0.004252   0.001817
     3  F    0.000479   0.998920
 Sum of Mulliken charges =   0.00000   1.00000

 Dipole moment (field-independent basis, Debye):
    X=             -0.0136    Y=              0.0000    Z=              0.0000  Tot=              0.0136
 Quadrupole moment (field-independent basis, Debye-Ang):
   XX=             -5.4993   YY=             -7.2709   ZZ=             -7.2709
   XY=              0.0000   XZ=              0.0000   YZ=              0.0000

  Exact polarizability:      12.969       0.000       2.057      -0.000      -0.000       2.057
 Approx polarizability:      16.798      -0.000       2.108      -0.000      -0.000       2.108

 ******    1 imaginary frequencies (negative Signs) ******

                      1                      2                      3
                      A                      A                      A
 Frequencies --    -29.4482              1539.5550              1539.5550
 Red. masses --      1.1085                 1.0093                 1.0093
 Frc consts  --      0.0006                 1.4095                 1.4095
 IR Inten    --      0.0162                 0.0231                 0.0231

                      4
                      A
 Frequencies --   1792.9910
 Red. masses --      1.0078
 Frc consts  --      1.9089
 IR Inten    --      0.3668

 - Thermochemistry -
 -------------------
 Temperature   298.150 Kelvin.  Pressure   1.00000 Atm.
 Atom     1 has atomic number  1 and mass   1.00783

 Molecular mass:    21.01405 amu.
 Principal axes and moments of inertia in atomic units:
                           1         2         3
     Eigenvalues --     0.00000 111.19208 111.19208
           X            1.00000  -0.00000   0.00000
           Y            0.00000   1.00000   0.00000
           Z            0.00000   0.00000   1.00000
 This molecule is a prolate symmetric top.
 Rotational symmetry number  1.
 Rotational temperature (Kelvin)      0.77896
 Rotational constant (GHZ):          16.230843
    1 imaginary frequencies ignored.
 Zero-point vibrational energy      29141.6 (Joules/Mol)
                                    6.96502 (Kcal/Mol)
 Vibrational temperatures:   2215.08  2215.08  2579.71
          (Kelvin)

 Zero-point correction=                           0.011099 (Hartree/Particle)
 Thermal correction to Energy=                    0.013470
 Thermal correction to Enthalpy=                  0.014414
 Thermal correction to Gibbs Free Energy=        -0.009473
 Sum of electronic and zero-point Energies=           -100.895485
 Sum of electronic and thermal Energies=              -100.893114
 Sum of electronic and thermal Enthalpies=            -100.892170
 Sum of electronic and thermal Free Energies=         -100.916057

                     E (Thermal)             CV                S
                      KCal/Mol        Cal/Mol-Kelvin    Cal/Mol-Kelvin
 Total                    8.452              5.124             50.275
 Electronic               0.000              0.000              1.377
 Translational            0.889              2.981             35.068
 Rotational               0.592              1.987             13.806
 Vibrational              6.971              0.156              0.023

 Normal termination of Gaussian 16 at Fri Aug 22 22:50:02 2025.
