 Gaussian 16, Revision C.01,
 Gaussian 16:  ES64L-G16RevC.01  3-Jul-2019

 -----------------------------------------
 # sp b3lyp/6-311g** Force nosymm scf=(qc)
 -----------------------------------------

 -------------------
 Title Card Required
 -------------------
 Symbolic Z-matrix:
 Charge =  0 Multiplicity = 2

                          Input orientation:
 ---------------------------------------------------------------------
 Center     Atomic      Atomic             Coordinates (Angstroms)
 Number     Number       Type             X           Y           Z
 ---------------------------------------------------------------------
      1          1           0        0.000000    0.000000    0.000000
      2          1           0       -2.950000    0.000000    0.000000
      3          9           0        1.950000    0.000000    0.000000
 ---------------------------------------------------------------------

 SCF Done:  E(UB3LYP) =  -100.791730661     a.u. after   13 cycles

 Alpha  occ. eigenvalues --  -24.67799  -1.14103  -0.46750  -0.39389  -0.39389
 Alpha  occ. eigenvalues --   -0.34101
 Alpha virt. eigenvalues --   -0.14036   0.22924   0.31123   0.89886   0.94910
 Alpha virt. eigenvalues --    0.94910   1.05960   1.23449   1.23449   1.24314
 Alpha virt. eigenvalues --    1.34872   1.34872   1.62911   2.14213   2.28860

  Beta  occ. eigenvalues --  -24.65517  -1.07744  -0.38200  -0.37145  -0.37145
  Beta virt. eigenvalues --   -0.20429  -0.08351   0.23422   0.36567   0.91265
  Beta virt. eigenvalues --    0.95403   0.95403   1.08344   1.22370   1.22370
  Beta virt. eigenvalues --    1.43641   1.44023   1.44023   1.56885   2.12830

 Mulliken charges and spin densities:
               1          2
     1  H    0.201165  -0.707951
     2  H    0.006663   0.990346
     3  F   -0.207829   0.717605
 Sum of Mulliken charges =   0.00000   1.00000

 Dipole moment (field-independent basis, Debye):
    X=             -2.0904    Y=              0.0000    Z=             -0.0000  Tot=              2.0904
 Quadrupole moment (field-independent basis, Debye-Ang):
   XX=             -9.8285   YY=             -7.4900   ZZ=             -7.4900
   XY=             -0.0000   XZ=             -0.0000   YZ=             -0.0000

  Exact polarizability:      29.459      -0.000       2.068       0.000      -0.000       2.068
 Approx polarizability:      39.879      -0.000       1.956       0.000       0.000       1.956

 ******    2 imaginary frequencies (negative Signs) ******

                      1                      2                      3
                      A                      A                      A
 Frequencies --  -1231.0865              -231.4152               519.1974
 Red. masses --      1.0542                 1.0573                 1.0237
 Frc consts  --      0.9414                 0.0334                 0.1626
 IR Inten    --    116.7844                 2.8374                36.1108

                      4
                      A
 Frequencies --    519.1974
 Red. masses --      1.0237
 Frc consts  --      0.1626
 IR Inten    --     36.1108

 - Thermochemistry -
 -------------------
 Temperature   298.150 Kelvin.  Pressure   1.00000 Atm.
 Atom     1 has atomic number  1 and mass   1.00783

 Molecular mass:    21.01405 amu.
 Principal axes and moments of inertia in atomic units:
                           1         2         3
     Eigenvalues --     0.00000  91.99828  91.99828
           X            1.00000  -0.00000   0.00000
           Y            0.00000   1.00000   0.00000
           Z            0.00000   0.00000   1.00000
 This molecule is a prolate symmetric top.
 Rotational symmetry number  1.
 Rotational temperature (Kelvin)      0.94147
 Rotational constant (GHZ):          19.617120
    2 imaginary frequencies ignored.
 Zero-point vibrational energy       6211.0 (Joules/Mol)
                                    1.48446 (Kcal/Mol)
 Warning -- explicit consideration of   2 degrees of freedom as
           vibrations may cause significant error
 Vibrational temperatures:    747.01   747.01
          (Kelvin)

 Zero-point correction=                           0.002366 (Hartree/Particle)
 Thermal correction to Energy=                    0.005147
 Thermal correction to Enthalpy=                  0.006091
 Thermal correction to Gibbs Free Energy=        -0.018188
 Sum of electronic and zero-point Energies=           -100.789365
 Sum of electronic and thermal Energies=              -100.786584
 Sum of electronic and thermal Enthalpies=            -100.785640
 Sum of electronic and thermal Free Energies=         -100.809918

                     E (Thermal)             CV                S
                      KCal/Mol        Cal/Mol-Kelvin    Cal/Mol-Kelvin
 Total                    3.230              7.383             51.098
 Electronic               0.000              0.000              1.377
 Translational            0.889              2.981             35.068
 Rotational               0.592              1.987             13.429
 Vibrational              1.748              2.415              1.224
 Vibration     1          0.874              1.207              0.612
 Vibration     2          0.874              1.207              0.612

 Normal termination of Gaussian 16 at Fri Aug 22 16:54:06 2025.
