 Gaussian 16, Revision C.01,
 Gaussian 16:  ES64L-G16RevC.01  3-Jul-2019

 -----------------------------------------
 # sp b3lyp/6-311g** Force nosymm scf=(qc)
 -----------------------------------------

 -------------------
 Title Card Required
 -------------------
 Symbolic Z-matrix:
 Charge =  0 Multiplicity = 2

                          Input orientation:
 ---------------------------------------------------------------------
 Center     Atomic      Atomic             Coordinates (Angstroms)
 Number     Number       Type             X           Y           Z
 ---------------------------------------------------------------------
      1          1           0        0.000000    0.000000    0.000000
      2          1           0       -3.950000    0.000000    0.000000
      3          9           0        2.750000    0.000000    0.000000
 ---------------------------------------------------------------------

 SCF Done:  E(UB3LYP) =  -100.763150742     a.u. after   22 cycles

 Alpha  occ. eigenvalues --  -24.73043  -1.19178  -0.52159  -0.43803  -0.43803
 Alpha  occ. eigenvalues --   -0.32584
 Alpha virt. eigenvalues --   -0.08761   0.23709   0.35898   0.89880   0.92890
 Alpha virt. eigenvalues --    0.92890   1.05280   1.24914   1.24914   1.24933
 Alpha virt. eigenvalues --    1.42566   1.42566   1.44547   2.14239   2.39767

  Beta  occ. eigenvalues --  -24.70092  -1.10743  -0.40853  -0.40853  -0.34436
  Beta virt. eigenvalues --   -0.24160  -0.06006   0.23788   0.38120   0.94322
  Beta virt. eigenvalues --    0.94322   0.97893   1.08491   1.22875   1.22875
  Beta virt. eigenvalues --    1.24986   1.46559   1.46699   1.46699   2.13550

 Mulliken charges and spin densities:
               1          2
     1  H    0.059347  -0.933556
     2  H    0.000200   0.999322
     3  F   -0.059547   0.934234
 Sum of Mulliken charges =  -0.00000   1.00000

 Dipole moment (field-independent basis, Debye):
    X=             -0.8421    Y=              0.0000    Z=             -0.0000  Tot=              0.8421
 Quadrupole moment (field-independent basis, Debye-Ang):
   XX=             -8.8640   YY=             -7.5902   ZZ=             -7.5902
   XY=             -0.0000   XZ=              0.0000   YZ=             -0.0000

  Exact polarizability:      31.160      -0.000       2.025       0.000       0.000       2.025
 Approx polarizability:      36.212      -0.000       1.923       0.000       0.000       1.923

 ******    2 imaginary frequencies (negative Signs) ******

                      1                      2                      3
                      A                      A                      A
 Frequencies --   -471.8333               -72.8892               173.9790
 Red. masses --      1.0558                 1.0558                 1.0229
 Frc consts  --      0.1385                 0.0033                 0.0182
 IR Inten    --     59.0363                 0.0537                 3.4337

                      4
                      A
 Frequencies --    173.9790
 Red. masses --      1.0229
 Frc consts  --      0.0182
 IR Inten    --      3.4337

 - Thermochemistry -
 -------------------
 Temperature   298.150 Kelvin.  Pressure   1.00000 Atm.
 Atom     1 has atomic number  1 and mass   1.00783

 Molecular mass:    21.01405 amu.
 Principal axes and moments of inertia in atomic units:
                           1         2         3
     Eigenvalues --     0.00000 173.36277 173.36277
           X            1.00000  -0.00000   0.00000
           Y            0.00000   1.00000   0.00000
           Z            0.00000   0.00000   1.00000
 This molecule is a prolate symmetric top.
 Rotational symmetry number  1.
 Rotational temperature (Kelvin)      0.49961
 Rotational constant (GHZ):          10.410201
    2 imaginary frequencies ignored.
 Zero-point vibrational energy       2081.3 (Joules/Mol)
                                    0.49743 (Kcal/Mol)
 Warning -- explicit consideration of   2 degrees of freedom as
           vibrations may cause significant error
 Vibrational temperatures:    250.32   250.32
          (Kelvin)

 Zero-point correction=                           0.000793 (Hartree/Particle)
 Thermal correction to Energy=                    0.004358
 Thermal correction to Enthalpy=                  0.005303
 Thermal correction to Gibbs Free Energy=        -0.021266
 Sum of electronic and zero-point Energies=           -100.762358
 Sum of electronic and thermal Energies=              -100.758792
 Sum of electronic and thermal Enthalpies=            -100.757848
 Sum of electronic and thermal Free Energies=         -100.784417

                     E (Thermal)             CV                S
                      KCal/Mol        Cal/Mol-Kelvin    Cal/Mol-Kelvin
 Total                    2.735              8.717             55.918
 Electronic               0.000              0.000              1.377
 Translational            0.889              2.981             35.068
 Rotational               0.592              1.987             14.688
 Vibrational              1.254              3.749              4.784
 Vibration     1          0.627              1.874              2.392
 Vibration     2          0.627              1.874              2.392

 Normal termination of Gaussian 16 at Fri Aug 22 18:35:37 2025.
