 Gaussian 16, Revision C.01,
 Gaussian 16:  ES64L-G16RevC.01  3-Jul-2019

 -----------------------------------------
 # sp b3lyp/6-311g** Force nosymm scf=(qc)
 -----------------------------------------

 -------------------
 Title Card Required
 -------------------
 Symbolic Z-matrix:
 Charge =  0 Multiplicity = 2

                          Input orientation:
 ---------------------------------------------------------------------
 Center     Atomic      Atomic             Coordinates (Angstroms)
 Number     Number       Type             X           Y           Z
 ---------------------------------------------------------------------
      1          1           0        0.000000    0.000000    0.000000
      2          1           0       -2.500000    0.000000    0.000000
      3          9           0        1.250000    0.000000    0.000000
 ---------------------------------------------------------------------

 SCF Done:  E(UB3LYP) =  -100.914264047     a.u. after    6 cycles

 Alpha  occ. eigenvalues --  -24.64129  -1.11482  -0.46825  -0.37090  -0.37090
 Alpha  occ. eigenvalues --   -0.35386
 Alpha virt. eigenvalues --   -0.06489   0.24243   0.27740   0.93250   0.93250
 Alpha virt. eigenvalues --    1.01563   1.20031   1.22138   1.22138   1.30303
 Alpha virt. eigenvalues --    1.34501   1.34501   1.72555   2.13200   2.27638

  Beta  occ. eigenvalues --  -24.64073  -1.11338  -0.46594  -0.37038  -0.37038
  Beta virt. eigenvalues --   -0.12064  -0.03544   0.27479   0.36280   0.93245
  Beta virt. eigenvalues --    0.93245   1.01694   1.25139   1.34360   1.34360
  Beta virt. eigenvalues --    1.43241   1.43241   1.45242   1.72899   2.27094

 Mulliken charges and spin densities:
               1          2
     1  H    0.348419  -0.003090
     2  H    0.011622   0.985645
     3  F   -0.360041   0.017445
 Sum of Mulliken charges =  -0.00000   1.00000

 Dipole moment (field-independent basis, Debye):
    X=             -2.4888    Y=             -0.0000    Z=              0.0000  Tot=              2.4888
 Quadrupole moment (field-independent basis, Debye-Ang):
   XX=             -8.6748   YY=             -7.1599   ZZ=             -7.1599
   XY=             -0.0000   XZ=              0.0000   YZ=             -0.0000

  Exact polarizability:      13.960       0.000       2.324       0.000       0.000       2.324
 Approx polarizability:      18.580       0.000       2.278      -0.000       0.000       2.278

 ******    1 imaginary frequencies (negative Signs) ******

                      1                      2                      3
                      A                      A                      A
 Frequencies --   -287.3401               317.3205              1163.3352
 Red. masses --      1.0125                 1.1030                 1.0281
 Frc consts  --      0.0493                 0.0654                 0.8197
 IR Inten    --     51.7239                75.9068               125.0303

                      4
                      A
 Frequencies --   1163.3352
 Red. masses --      1.0281
 Frc consts  --      0.8197
 IR Inten    --    125.0303

 - Thermochemistry -
 -------------------
 Temperature   298.150 Kelvin.  Pressure   1.00000 Atm.
 Atom     1 has atomic number  1 and mass   1.00783

 Molecular mass:    21.01405 amu.
 Principal axes and moments of inertia in atomic units:
                           1         2         3
     Eigenvalues --     0.00000  51.91934  51.91934
           X            1.00000  -0.00000   0.00000
           Y            0.00000   1.00000   0.00000
           Z            0.00000   0.00000   1.00000
 This molecule is a prolate symmetric top.
 Rotational symmetry number  1.
 Rotational temperature (Kelvin)      1.66824
 Rotational constant (GHZ):          34.760483
    1 imaginary frequencies ignored.
 Zero-point vibrational energy      15814.6 (Joules/Mol)
                                    3.77977 (Kcal/Mol)
 Warning -- explicit consideration of   1 degrees of freedom as
           vibrations may cause significant error
 Vibrational temperatures:    456.55  1673.78  1673.78
          (Kelvin)

 Zero-point correction=                           0.006023 (Hartree/Particle)
 Thermal correction to Energy=                    0.008822
 Thermal correction to Enthalpy=                  0.009766
 Thermal correction to Gibbs Free Energy=        -0.014066
 Sum of electronic and zero-point Energies=           -100.908241
 Sum of electronic and thermal Energies=              -100.905442
 Sum of electronic and thermal Enthalpies=            -100.904498
 Sum of electronic and thermal Free Energies=         -100.928330

                     E (Thermal)             CV                S
                      KCal/Mol        Cal/Mol-Kelvin    Cal/Mol-Kelvin
 Total                    5.536              7.069             50.158
 Electronic               0.000              0.000              1.377
 Translational            0.889              2.981             35.068
 Rotational               0.592              1.987             12.293
 Vibrational              4.054              2.101              1.420
 Vibration     1          0.704              1.641              1.324

 Normal termination of Gaussian 16 at Fri Aug 22 16:12:56 2025.
