 Gaussian 16, Revision C.01,
 Gaussian 16:  ES64L-G16RevC.01  3-Jul-2019

 -----------------------------------------
 # sp b3lyp/6-311g** Force nosymm scf=(qc)
 -----------------------------------------

 -------------------
 Title Card Required
 -------------------
 Symbolic Z-matrix:
 Charge =  0 Multiplicity = 2

                          Input orientation:
 ---------------------------------------------------------------------
 Center     Atomic      Atomic             Coordinates (Angstroms)
 Number     Number       Type             X           Y           Z
 ---------------------------------------------------------------------
      1          1           0        0.000000    0.000000    0.000000
      2          1           0       -3.200000    0.000000    0.000000
      3          9           0        2.300000    0.000000    0.000000
 ---------------------------------------------------------------------

 SCF Done:  E(UB3LYP) =  -100.773250597     a.u. after   15 cycles

 Alpha  occ. eigenvalues --  -24.70471  -1.16751  -0.49549  -0.41649  -0.41649
 Alpha  occ. eigenvalues --   -0.33290
 Alpha virt. eigenvalues --   -0.11674   0.23416   0.34072   0.88918   0.94227
 Alpha virt. eigenvalues --    0.94227   1.06333   1.24237   1.24237   1.24701
 Alpha virt. eigenvalues --    1.38547   1.38547   1.48480   2.14632   2.33571

  Beta  occ. eigenvalues --  -24.67759  -1.09073  -0.38954  -0.38954  -0.36253
  Beta virt. eigenvalues --   -0.22480  -0.07474   0.24004   0.37333   0.93185
  Beta virt. eigenvalues --    0.95444   0.95444   1.08436   1.21634   1.21634
  Beta virt. eigenvalues --    1.36997   1.45107   1.45151   1.45151   2.12580

 Mulliken charges and spin densities:
               1          2
     1  H    0.121242  -0.850603
     2  H    0.002441   0.995401
     3  F   -0.123682   0.855202
 Sum of Mulliken charges =  -0.00000   1.00000

 Dipole moment (field-independent basis, Debye):
    X=             -1.4713    Y=              0.0000    Z=             -0.0000  Tot=              1.4713
 Quadrupole moment (field-independent basis, Debye-Ang):
   XX=             -9.5597   YY=             -7.5503   ZZ=             -7.5503
   XY=              0.0000   XZ=             -0.0000   YZ=              0.0000

  Exact polarizability:      30.833       0.000       2.032      -0.000       0.000       2.032
 Approx polarizability:      40.060       0.000       1.923      -0.000      -0.000       1.923

 ******    2 imaginary frequencies (negative Signs) ******

                      1                      2                      3
                      A                      A                      A
 Frequencies --   -780.0928              -171.8257               318.2762
 Red. masses --      1.0529                 1.0586                 1.0224
 Frc consts  --      0.3775                 0.0184                 0.0610
 IR Inten    --     95.4716                 1.0009                13.6747

                      4
                      A
 Frequencies --    318.2762
 Red. masses --      1.0224
 Frc consts  --      0.0610
 IR Inten    --     13.6747

 - Thermochemistry -
 -------------------
 Temperature   298.150 Kelvin.  Pressure   1.00000 Atm.
 Atom     1 has atomic number  1 and mass   1.00783

 Molecular mass:    21.01405 amu.
 Principal axes and moments of inertia in atomic units:
                           1         2         3
     Eigenvalues --     0.00000 117.40736 117.40736
           X            1.00000  -0.00000   0.00000
           Y            0.00000   1.00000   0.00000
           Z            0.00000   0.00000   1.00000
 This molecule is a prolate symmetric top.
 Rotational symmetry number  1.
 Rotational temperature (Kelvin)      0.73772
 Rotational constant (GHZ):          15.371619
    2 imaginary frequencies ignored.
 Zero-point vibrational energy       3807.4 (Joules/Mol)
                                    0.91000 (Kcal/Mol)
 Warning -- explicit consideration of   2 degrees of freedom as
           vibrations may cause significant error
 Vibrational temperatures:    457.93   457.93
          (Kelvin)

 Zero-point correction=                           0.001450 (Hartree/Particle)
 Thermal correction to Energy=                    0.004606
 Thermal correction to Enthalpy=                  0.005550
 Thermal correction to Gibbs Free Energy=        -0.019630
 Sum of electronic and zero-point Energies=           -100.771800
 Sum of electronic and thermal Energies=              -100.768644
 Sum of electronic and thermal Enthalpies=            -100.767700
 Sum of electronic and thermal Free Energies=         -100.792881

                     E (Thermal)             CV                S
                      KCal/Mol        Cal/Mol-Kelvin    Cal/Mol-Kelvin
 Total                    2.890              8.245             52.997
 Electronic               0.000              0.000              1.377
 Translational            0.889              2.981             35.068
 Rotational               0.592              1.987             13.914
 Vibrational              1.409              3.277              2.638
 Vibration     1          0.705              1.639              1.319
 Vibration     2          0.705              1.639              1.319

 Normal termination of Gaussian 16 at Fri Aug 22 17:22:58 2025.
