 Gaussian 16, Revision C.01,
 Gaussian 16:  ES64L-G16RevC.01  3-Jul-2019

 -----------------------------------------
 # sp b3lyp/6-311g** Force nosymm scf=(qc)
 -----------------------------------------

 -------------------
 Title Card Required
 -------------------
 Symbolic Z-matrix:
 Charge =  0 Multiplicity = 2

                          Input orientation:
 ---------------------------------------------------------------------
 Center     Atomic      Atomic             Coordinates (Angstroms)
 Number     Number       Type             X           Y           Z
 ---------------------------------------------------------------------
      1          1           0        0.000000    0.000000    0.000000
      2          1           0       -1.950000    0.000000    0.000000
      3          9           0        2.700000    0.000000    0.000000
 ---------------------------------------------------------------------

 SCF Done:  E(UB3LYP) =  -100.781156065     a.u. after   19 cycles

 Alpha  occ. eigenvalues --  -24.73083  -1.19205  -0.52199  -0.43827  -0.43827
 Alpha  occ. eigenvalues --   -0.34410
 Alpha virt. eigenvalues --   -0.12344   0.25075   0.31707   0.90287   0.92874
 Alpha virt. eigenvalues --    0.92874   1.05415   1.16394   1.23523   1.23523
 Alpha virt. eigenvalues --    1.35705   1.35705   1.51592   2.11835   2.36533

  Beta  occ. eigenvalues --  -24.70135  -1.10780  -0.40881  -0.40881  -0.34552
  Beta virt. eigenvalues --   -0.24312  -0.11531   0.26332   0.31806   0.94301
  Beta virt. eigenvalues --    0.94301   0.98254   1.08690   1.17668   1.23373
  Beta virt. eigenvalues --    1.23373   1.36969   1.36969   1.52440   2.12890

 Mulliken charges and spin densities:
               1          2
     1  H    0.034061  -0.774631
     2  H    0.024399   0.841649
     3  F   -0.058459   0.932982
 Sum of Mulliken charges =   0.00000   1.00000

 Dipole moment (field-independent basis, Debye):
    X=             -1.0347    Y=              0.0000    Z=              0.0000  Tot=              1.0347
 Quadrupole moment (field-independent basis, Debye-Ang):
   XX=             -7.7495   YY=             -7.6921   ZZ=             -7.6921
   XY=              0.0000   XZ=              0.0000   YZ=              0.0000

  Exact polarizability:      61.616       0.000       2.005       0.000       0.000       2.005
 Approx polarizability:      63.519       0.000       1.933       0.000       0.000       1.933

 ******    2 imaginary frequencies (negative Signs) ******

                      1                      2                      3
                      A                      A                      A
 Frequencies --  -1469.0483              -323.6932               600.2422
 Red. masses --      1.0083                 1.1079                 1.0145
 Frc consts  --      1.2821                 0.0684                 0.2154
 IR Inten    --     72.4943                43.8678                 0.4947

                      4
                      A
 Frequencies --    600.2422
 Red. masses --      1.0145
 Frc consts  --      0.2154
 IR Inten    --      0.4947

 - Thermochemistry -
 -------------------
 Temperature   298.150 Kelvin.  Pressure   1.00000 Atm.
 Atom     1 has atomic number  1 and mass   1.00783

 Molecular mass:    21.01405 amu.
 Principal axes and moments of inertia in atomic units:
                           1         2         3
     Eigenvalues --     0.00000  94.73168  94.73168
           X            1.00000  -0.00000   0.00000
           Y            0.00000   1.00000   0.00000
           Z            0.00000   0.00000   1.00000
 This molecule is a prolate symmetric top.
 Rotational symmetry number  1.
 Rotational temperature (Kelvin)      0.91431
 Rotational constant (GHZ):          19.051085
    2 imaginary frequencies ignored.
 Zero-point vibrational energy       7180.5 (Joules/Mol)
                                    1.71618 (Kcal/Mol)
 Warning -- explicit consideration of   2 degrees of freedom as
           vibrations may cause significant error
 Vibrational temperatures:    863.61   863.61
          (Kelvin)

 Zero-point correction=                           0.002735 (Hartree/Particle)
 Thermal correction to Energy=                    0.005415
 Thermal correction to Enthalpy=                  0.006359
 Thermal correction to Gibbs Free Energy=        -0.017792
 Sum of electronic and zero-point Energies=           -100.778421
 Sum of electronic and thermal Energies=              -100.775741
 Sum of electronic and thermal Enthalpies=            -100.774797
 Sum of electronic and thermal Free Energies=         -100.798949

                     E (Thermal)             CV                S
                      KCal/Mol        Cal/Mol-Kelvin    Cal/Mol-Kelvin
 Total                    3.398              7.031             50.831
 Electronic               0.000              0.000              1.377
 Translational            0.889              2.981             35.068
 Rotational               0.592              1.987             13.488
 Vibrational              1.917              2.063              0.898
 Vibration     1          0.958              1.031              0.449
 Vibration     2          0.958              1.031              0.449

 Normal termination of Gaussian 16 at Fri Aug 22 18:25:19 2025.
