 Gaussian 16, Revision C.01,
 Gaussian 16:  ES64L-G16RevC.01  3-Jul-2019

 -----------------------------------------
 # sp b3lyp/6-311g** Force nosymm scf=(qc)
 -----------------------------------------

 -------------------
 Title Card Required
 -------------------
 Symbolic Z-matrix:
 Charge =  0 Multiplicity = 2

                          Input orientation:
 ---------------------------------------------------------------------
 Center     Atomic      Atomic             Coordinates (Angstroms)
 Number     Number       Type             X           Y           Z
 ---------------------------------------------------------------------
      1          1           0        0.000000    0.000000    0.000000
      2          1           0       -3.750000    0.000000    0.000000
      3          9           0        2.250000    0.000000    0.000000
 ---------------------------------------------------------------------

 SCF Done:  E(UB3LYP) =  -100.774179028     a.u. after   16 cycles

 Alpha  occ. eigenvalues --  -24.67414  -1.08841  -0.38677  -0.38677  -0.36519
 Alpha  occ. eigenvalues --   -0.32964
 Alpha virt. eigenvalues --   -0.22195   0.20722   0.27659   0.92000   0.95546
 Alpha virt. eigenvalues --    0.95546   1.08201   1.21535   1.21535   1.24505
 Alpha virt. eigenvalues --    1.24505   1.24513   1.39540   2.10289   2.15872

  Beta  occ. eigenvalues --  -24.70082  -1.16380  -0.49149  -0.41325  -0.41325
  Beta virt. eigenvalues --   -0.12151  -0.04506   0.31304   0.40189   0.88536
  Beta virt. eigenvalues --    0.94390   0.94390   1.06071   1.38101   1.38101
  Beta virt. eigenvalues --    1.48057   1.48057   1.48142   1.50161   2.32819

 Mulliken charges and spin densities:
               1          2
     1  H    0.134163   0.841160
     2  H    0.000560   0.999452
     3  F   -0.134723  -0.840612
 Sum of Mulliken charges =   0.00000   1.00000

 Dipole moment (field-independent basis, Debye):
    X=             -1.5330    Y=              0.0000    Z=             -0.0000  Tot=              1.5330
 Quadrupole moment (field-independent basis, Debye-Ang):
   XX=             -9.8022   YY=             -7.5263   ZZ=             -7.5263
   XY=              0.0000   XZ=             -0.0000   YZ=              0.0000

  Exact polarizability:      28.215       0.000       2.037      -0.000       0.000       2.037
 Approx polarizability:      38.955       0.000       1.927      -0.000      -0.000       1.927

 ******    1 imaginary frequencies (negative Signs) ******

                      1                      2                      3
                      A                      A                      A
 Frequencies --   -802.8403                56.2682               334.5247
 Red. masses --      1.0590                 1.0525                 1.0251
 Frc consts  --      0.4022                 0.0020                 0.0676
 IR Inten    --     98.2856                 0.0501                17.3330

                      4
                      A
 Frequencies --    334.5247
 Red. masses --      1.0251
 Frc consts  --      0.0676
 IR Inten    --     17.3330

 - Thermochemistry -
 -------------------
 Temperature   298.150 Kelvin.  Pressure   1.00000 Atm.
 Atom     1 has atomic number  1 and mass   1.00783

 Molecular mass:    21.01405 amu.
 Principal axes and moments of inertia in atomic units:
                           1         2         3
     Eigenvalues --     0.00000 136.03623 136.03623
           X            1.00000  -0.00000   0.00000
           Y            0.00000   1.00000   0.00000
           Z            0.00000   0.00000   1.00000
 This molecule is a prolate symmetric top.
 Rotational symmetry number  1.
 Rotational temperature (Kelvin)      0.63670
 Rotational constant (GHZ):          13.266622
    1 imaginary frequencies ignored.
 Zero-point vibrational energy       4338.4 (Joules/Mol)
                                    1.03689 (Kcal/Mol)
 Warning -- explicit consideration of   3 degrees of freedom as
           vibrations may cause significant error
 Vibrational temperatures:     80.96   481.31   481.31
          (Kelvin)

 Zero-point correction=                           0.001652 (Hartree/Particle)
 Thermal correction to Energy=                    0.005592
 Thermal correction to Enthalpy=                  0.006536
 Thermal correction to Gibbs Free Energy=        -0.020885
 Sum of electronic and zero-point Energies=           -100.772527
 Sum of electronic and thermal Energies=              -100.768587
 Sum of electronic and thermal Enthalpies=            -100.767643
 Sum of electronic and thermal Free Energies=         -100.795064

                     E (Thermal)             CV                S
                      KCal/Mol        Cal/Mol-Kelvin    Cal/Mol-Kelvin
 Total                    3.509             10.156             57.712
 Electronic               0.000              0.000              1.377
 Translational            0.889              2.981             35.068
 Rotational               0.592              1.987             14.207
 Vibrational              2.028              5.188              7.060
 Vibration     1          0.596              1.975              4.584
 Vibration     2          0.716              1.607              1.238
 Vibration     3          0.716              1.607              1.238

 Normal termination of Gaussian 16 at Fri Aug 22 17:18:02 2025.
