 Gaussian 16, Revision C.01,
 Gaussian 16:  ES64L-G16RevC.01  3-Jul-2019

 -----------------------------------------
 # sp b3lyp/6-311g** Force nosymm scf=(qc)
 -----------------------------------------

 -------------------
 Title Card Required
 -------------------
 Symbolic Z-matrix:
 Charge =  0 Multiplicity = 2

                          Input orientation:
 ---------------------------------------------------------------------
 Center     Atomic      Atomic             Coordinates (Angstroms)
 Number     Number       Type             X           Y           Z
 ---------------------------------------------------------------------
      1          1           0        0.000000    0.000000    0.000000
      2          1           0       -0.900000    0.000000    0.000000
      3          9           0        1.200000    0.000000    0.000000
 ---------------------------------------------------------------------

 SCF Done:  E(UB3LYP) =  -100.947593051     a.u. after    6 cycles

 Alpha  occ. eigenvalues --  -24.66750  -1.15967  -0.57059  -0.39926  -0.39926
 Alpha  occ. eigenvalues --   -0.38258
 Alpha virt. eigenvalues --    0.09642   0.19066   0.40839   0.88774   0.88774
 Alpha virt. eigenvalues --    0.97674   1.08048   1.08048   1.38953   1.63614
 Alpha virt. eigenvalues --    1.68607   1.68607   2.20291   2.30367   2.77236

  Beta  occ. eigenvalues --  -24.65026  -1.11501  -0.49306  -0.38320  -0.38320
  Beta virt. eigenvalues --   -0.21077   0.11808   0.20728   0.45166   0.90173
  Beta virt. eigenvalues --    0.90173   1.01438   1.12318   1.12318   1.42700
  Beta virt. eigenvalues --    1.68741   1.71786   1.71786   2.20146   2.39243

 Mulliken charges and spin densities:
               1          2
     1  H    0.250583  -0.052107
     2  H    0.021635   0.561666
     3  F   -0.272218   0.490440
 Sum of Mulliken charges =   0.00000   1.00000

 Dipole moment (field-independent basis, Debye):
    X=             -1.8896    Y=              0.0000    Z=              0.0000  Tot=              1.8896
 Quadrupole moment (field-independent basis, Debye-Ang):
   XX=             -7.5220   YY=             -6.7604   ZZ=             -6.7604
   XY=              0.0000   XZ=              0.0000   YZ=             -0.0000

  Exact polarizability:      19.628       0.000       2.504       0.000      -0.000       2.504
 Approx polarizability:      26.214       0.000       2.521       0.000      -0.000       2.521

 ******    1 imaginary frequencies (negative Signs) ******

                      1                      2                      3
                      A                      A                      A
 Frequencies --  -1445.5942               618.3056               618.3056
 Red. masses --      1.0608                 1.0148                 1.0148
 Frc consts  --      1.3061                 0.2286                 0.2286
 IR Inten    --    258.5693                18.9464                18.9464

                      4
                      A
 Frequencies --   1761.9243
 Red. masses --      1.0508
 Frc consts  --      1.9220
 IR Inten    --    212.5187

 - Thermochemistry -
 -------------------
 Temperature   298.150 Kelvin.  Pressure   1.00000 Atm.
 Atom     1 has atomic number  1 and mass   1.00783

 Molecular mass:    21.01405 amu.
 Principal axes and moments of inertia in atomic units:
                           1         2         3
     Eigenvalues --     0.00000  19.17451  19.17451
           X            1.00000  -0.00000   0.00000
           Y            0.00000   1.00000   0.00000
           Z            0.00000   0.00000   1.00000
 This molecule is a prolate symmetric top.
 Rotational symmetry number  1.
 Rotational temperature (Kelvin)      4.51714
 Rotational constant (GHZ):          94.121891
    1 imaginary frequencies ignored.
 Zero-point vibrational energy      17935.2 (Joules/Mol)
                                    4.28662 (Kcal/Mol)
 Warning -- explicit consideration of   2 degrees of freedom as
           vibrations may cause significant error
 Vibrational temperatures:    889.60   889.60  2535.02
          (Kelvin)

 Zero-point correction=                           0.006831 (Hartree/Particle)
 Thermal correction to Energy=                    0.009494
 Thermal correction to Enthalpy=                  0.010438
 Thermal correction to Gibbs Free Energy=        -0.012179
 Sum of electronic and zero-point Energies=           -100.940762
 Sum of electronic and thermal Energies=              -100.938099
 Sum of electronic and thermal Enthalpies=            -100.937155
 Sum of electronic and thermal Free Energies=         -100.959772

                     E (Thermal)             CV                S
                      KCal/Mol        Cal/Mol-Kelvin    Cal/Mol-Kelvin
 Total                    5.957              6.984             47.601
 Electronic               0.000              0.000              1.377
 Translational            0.889              2.981             35.068
 Rotational               0.592              1.987             10.313
 Vibrational              4.476              2.016              0.842
 Vibration     1          0.978              0.993              0.419
 Vibration     2          0.978              0.993              0.419

 Normal termination of Gaussian 16 at Fri Aug 22 16:09:22 2025.
