 Gaussian 16, Revision C.01,
 Gaussian 16:  ES64L-G16RevC.01  3-Jul-2019

 -----------------------------------------
 # sp b3lyp/6-311g** Force nosymm scf=(qc)
 -----------------------------------------

 -------------------
 Title Card Required
 -------------------
 Symbolic Z-matrix:
 Charge =  0 Multiplicity = 2

                          Input orientation:
 ---------------------------------------------------------------------
 Center     Atomic      Atomic             Coordinates (Angstroms)
 Number     Number       Type             X           Y           Z
 ---------------------------------------------------------------------
      1          1           0        0.000000    0.000000    0.000000
      2          1           0       -3.450000    0.000000    0.000000
      3          9           0        1.650000    0.000000    0.000000
 ---------------------------------------------------------------------

 SCF Done:  E(UB3LYP) =  -100.823925298     a.u. after    9 cycles

 Alpha  occ. eigenvalues --  -24.64234  -1.08966  -0.41441  -0.36061  -0.36061
 Alpha  occ. eigenvalues --   -0.34093
 Alpha virt. eigenvalues --   -0.17831   0.19916   0.27515   0.94487   0.94487
 Alpha virt. eigenvalues --    0.98663   1.07180   1.23414   1.23414   1.23476
 Alpha virt. eigenvalues --    1.28441   1.28441   1.71855   2.13130   2.16527

  Beta  occ. eigenvalues --  -24.64262  -1.09040  -0.41483  -0.36088  -0.36088
  Beta virt. eigenvalues --   -0.17912  -0.06958   0.22894   0.38010   0.94502
  Beta virt. eigenvalues --    0.94502   0.98700   1.07188   1.28635   1.28635
  Beta virt. eigenvalues --    1.45390   1.45865   1.45865   1.71987   2.16259

 Mulliken charges and spin densities:
               1          2
     1  H    0.331734   0.011433
     2  H    0.002721   0.997169
     3  F   -0.334455  -0.008602
 Sum of Mulliken charges =  -0.00000   1.00000

 Dipole moment (field-independent basis, Debye):
    X=             -2.7561    Y=             -0.0000    Z=              0.0000  Tot=              2.7561
 Quadrupole moment (field-independent basis, Debye-Ang):
   XX=            -10.4067   YY=             -7.3970   ZZ=             -7.3970
   XY=             -0.0000   XZ=              0.0000   YZ=              0.0000

  Exact polarizability:      19.494      -0.000       2.123       0.000      -0.000       2.123
 Approx polarizability:      42.187       0.000       2.038      -0.000      -0.000       2.038

 ******    2 imaginary frequencies (negative Signs) ******

                      1                      2                      3
                      A                      A                      A
 Frequencies --  -1191.7297               -95.5414               901.4519
 Red. masses --      1.0572                 1.0543                 1.0288
 Frc consts  --      0.8847                 0.0057                 0.4926
 IR Inten    --     42.3368                 0.4716               104.4538

                      4
                      A
 Frequencies --    901.4519
 Red. masses --      1.0288
 Frc consts  --      0.4926
 IR Inten    --    104.4538

 - Thermochemistry -
 -------------------
 Temperature   298.150 Kelvin.  Pressure   1.00000 Atm.
 Atom     1 has atomic number  1 and mass   1.00783

 Molecular mass:    21.01405 amu.
 Principal axes and moments of inertia in atomic units:
                           1         2         3
     Eigenvalues --     0.00000  95.54411  95.54411
           X            1.00000  -0.00000   0.00000
           Y            0.00000   1.00000   0.00000
           Z            0.00000   0.00000   1.00000
 This molecule is a prolate symmetric top.
 Rotational symmetry number  1.
 Rotational temperature (Kelvin)      0.90653
 Rotational constant (GHZ):          18.889089
    2 imaginary frequencies ignored.
 Zero-point vibrational energy      10783.8 (Joules/Mol)
                                    2.57738 (Kcal/Mol)
 Vibrational temperatures:   1296.99  1296.99
          (Kelvin)

 Zero-point correction=                           0.004107 (Hartree/Particle)
 Thermal correction to Energy=                    0.006575
 Thermal correction to Enthalpy=                  0.007519
 Thermal correction to Gibbs Free Energy=        -0.016345
 Sum of electronic and zero-point Energies=           -100.819818
 Sum of electronic and thermal Energies=              -100.817350
 Sum of electronic and thermal Enthalpies=            -100.816406
 Sum of electronic and thermal Free Energies=         -100.840271

                     E (Thermal)             CV                S
                      KCal/Mol        Cal/Mol-Kelvin    Cal/Mol-Kelvin
 Total                    4.126              5.964             50.228
 Electronic               0.000              0.000              1.377
 Translational            0.889              2.981             35.068
 Rotational               0.592              1.987             13.504
 Vibrational              2.645              0.996              0.278

 Normal termination of Gaussian 16 at Fri Aug 22 16:35:39 2025.
