 Gaussian 16, Revision C.01,
 Gaussian 16:  ES64L-G16RevC.01  3-Jul-2019

 -----------------------------------------
 # sp b3lyp/6-311g** Force nosymm scf=(qc)
 -----------------------------------------

 -------------------
 Title Card Required
 -------------------
 Symbolic Z-matrix:
 Charge =  0 Multiplicity = 2

                          Input orientation:
 ---------------------------------------------------------------------
 Center     Atomic      Atomic             Coordinates (Angstroms)
 Number     Number       Type             X           Y           Z
 ---------------------------------------------------------------------
      1          1           0        0.000000    0.000000    0.000000
      2          1           0       -1.100000    0.000000    0.000000
      3          9           0        2.650000    0.000000    0.000000
 ---------------------------------------------------------------------

 SCF Done:  E(UB3LYP) =  -100.890491531     a.u. after  222 cycles

 Alpha  occ. eigenvalues --  -24.76989  -1.22771  -0.55945  -0.47305  -0.47091
 Alpha  occ. eigenvalues --   -0.37155
 Alpha virt. eigenvalues --   -0.01274   0.22605   0.37417   0.85551   0.90418
 Alpha virt. eigenvalues --    0.93166   1.07774   1.11068   1.11082   1.30304
 Alpha virt. eigenvalues --    1.60179   1.60193   2.17798   2.35195   2.56529

  Beta  occ. eigenvalues --  -24.73825  -1.13678  -0.44176  -0.43919  -0.37106
  Beta virt. eigenvalues --   -0.26556  -0.01231   0.22637   0.37524   0.91914
  Beta virt. eigenvalues --    0.94997   0.95001   1.11072   1.11080   1.11435
  Beta virt. eigenvalues --    1.30328   1.60177   1.60190   2.17801   2.35197

 Mulliken charges and spin densities:
               1          2
     1  H   -0.002558  -0.000544
     2  H   -0.010441  -0.001331
     3  F    0.013000   1.001876
 Sum of Mulliken charges =   0.00000   1.00000

 Dipole moment (field-independent basis, Debye):
    X=              0.1669    Y=              0.0000    Z=             -0.0000  Tot=              0.1669
 Quadrupole moment (field-independent basis, Debye-Ang):
   XX=             -6.0920   YY=             -6.5370   ZZ=             -7.4000
   XY=              0.0000   XZ=              0.0000   YZ=              0.0045

  Exact polarizability:      14.845      -0.000       2.554      -0.000       0.002       2.089
 Approx polarizability:      20.350       0.000       2.704       0.000       0.003       2.131

                      1                      2                      3
                      A                      A                      A
 Frequencies --    118.6967              1028.3758              1469.9561
 Red. masses --      1.1085                 1.0078                 1.0107
 Frc consts  --      0.0092                 0.6280                 1.2867
 IR Inten    --      1.2989                 3.9201                 0.1224

                      4
                      A
 Frequencies --   1526.1070
 Red. masses --      1.0107
 Frc consts  --      1.3869
 IR Inten    --      0.0045

 - Thermochemistry -
 -------------------
 Temperature   298.150 Kelvin.  Pressure   1.00000 Atm.
 Atom     1 has atomic number  1 and mass   1.00783

 Molecular mass:    21.01405 amu.
 Principal axes and moments of inertia in atomic units:
                           1         2         3
     Eigenvalues --     0.00000  68.81512  68.81512
           X            1.00000  -0.00000   0.00000
           Y            0.00000   1.00000   0.00000
           Z            0.00000   0.00000   1.00000
 This molecule is a prolate symmetric top.
 Rotational symmetry number  1.
 Rotational temperature (Kelvin)      1.25865
 Rotational constant (GHZ):          26.225942
 Zero-point vibrational energy      24781.5 (Joules/Mol)
                                    5.92291 (Kcal/Mol)
 Warning -- explicit consideration of   1 degrees of freedom as
           vibrations may cause significant error
 Vibrational temperatures:    170.78  1479.60  2114.94  2195.73
          (Kelvin)

 Zero-point correction=                           0.009439 (Hartree/Particle)
 Thermal correction to Energy=                    0.012542
 Thermal correction to Enthalpy=                  0.013486
 Thermal correction to Gibbs Free Energy=        -0.011471
 Sum of electronic and zero-point Energies=           -100.881053
 Sum of electronic and thermal Energies=              -100.877950
 Sum of electronic and thermal Enthalpies=            -100.877006
 Sum of electronic and thermal Free Energies=         -100.901963

                     E (Thermal)             CV                S
                      KCal/Mol        Cal/Mol-Kelvin    Cal/Mol-Kelvin
 Total                    7.870              7.400             52.527
 Electronic               0.000              0.000              1.377
 Translational            0.889              2.981             35.068
 Rotational               0.592              1.987             12.852
 Vibrational              6.389              2.432              3.229
 Vibration     1          0.609              1.934              3.121

 Normal termination of Gaussian 16 at Fri Aug 22 18:10:23 2025.
