 Gaussian 16, Revision C.01,
 Gaussian 16:  ES64L-G16RevC.01  3-Jul-2019

 -----------------------------------------
 # sp b3lyp/6-311g** Force nosymm scf=(qc)
 -----------------------------------------

 -------------------
 Title Card Required
 -------------------
 Symbolic Z-matrix:
 Charge =  0 Multiplicity = 2

                          Input orientation:
 ---------------------------------------------------------------------
 Center     Atomic      Atomic             Coordinates (Angstroms)
 Number     Number       Type             X           Y           Z
 ---------------------------------------------------------------------
      1          1           0        0.000000    0.000000    0.000000
      2          1           0       -2.350000    0.000000    0.000000
      3          9           0        0.900000    0.000000    0.000000
 ---------------------------------------------------------------------

 SCF Done:  E(UB3LYP) =  -100.971854959     a.u. after    5 cycles

 Alpha  occ. eigenvalues --  -24.63856  -1.18930  -0.53826  -0.39532  -0.39532
 Alpha  occ. eigenvalues --   -0.35109
 Alpha virt. eigenvalues --    0.04951   0.25110   0.39361   0.94447   0.94447
 Alpha virt. eigenvalues --    0.97548   1.17490   1.22437   1.22437   1.37393
 Alpha virt. eigenvalues --    1.37393   1.42740   2.00378   2.14144   2.37513

  Beta  occ. eigenvalues --  -24.63832  -1.18869  -0.53716  -0.39512  -0.39512
  Beta virt. eigenvalues --   -0.10071   0.06705   0.36555   0.39593   0.94450
  Beta virt. eigenvalues --    0.94450   0.97755   1.27223   1.37329   1.37329
  Beta virt. eigenvalues --    1.43599   1.43599   1.54477   2.00614   2.36793

 Mulliken charges and spin densities:
               1          2
     1  H    0.289053   0.004429
     2  H    0.007769   0.988524
     3  F   -0.296821   0.007047
 Sum of Mulliken charges =   0.00000   1.00000

 Dipole moment (field-independent basis, Debye):
    X=             -1.9794    Y=              0.0000    Z=              0.0000  Tot=              1.9794
 Quadrupole moment (field-independent basis, Debye-Ang):
   XX=             -7.6480   YY=             -6.8559   ZZ=             -6.8559
   XY=              0.0000   XZ=              0.0000   YZ=             -0.0000

  Exact polarizability:       7.870       0.000       2.462      -0.000       0.000       2.462
 Approx polarizability:       8.471      -0.000       2.445      -0.000       0.000       2.445

 ******    2 imaginary frequencies (negative Signs) ******

                      1                      2                      3
                      A                      A                      A
 Frequencies --   -627.3923              -627.3923                78.9189
 Red. masses --      1.0324                 1.0324                 1.0531
 Frc consts  --      0.2394                 0.2394                 0.0039
 IR Inten    --    162.6798               162.6798                 0.8500

                      4
                      A
 Frequencies --   4421.6725
 Red. masses --      1.0585
 Frc consts  --     12.1927
 IR Inten    --    138.7727

 - Thermochemistry -
 -------------------
 Temperature   298.150 Kelvin.  Pressure   1.00000 Atm.
 Atom     1 has atomic number  1 and mass   1.00783

 Molecular mass:    21.01405 amu.
 Principal axes and moments of inertia in atomic units:
                           1         2         3
     Eigenvalues --     0.00000  37.95700  37.95700
           X            1.00000  -0.00000   0.00000
           Y            0.00000   1.00000   0.00000
           Z            0.00000   0.00000   1.00000
 This molecule is a prolate symmetric top.
 Rotational symmetry number  1.
 Rotational temperature (Kelvin)      2.28190
 Rotational constant (GHZ):          47.546990
    2 imaginary frequencies ignored.
 Zero-point vibrational energy      26919.5 (Joules/Mol)
                                    6.43392 (Kcal/Mol)
 Warning -- explicit consideration of   1 degrees of freedom as
           vibrations may cause significant error
 Vibrational temperatures:    113.55  6361.80
          (Kelvin)

 Zero-point correction=                           0.010253 (Hartree/Particle)
 Thermal correction to Energy=                    0.013389
 Thermal correction to Enthalpy=                  0.014334
 Thermal correction to Gibbs Free Energy=        -0.010389
 Sum of electronic and zero-point Energies=           -100.961602
 Sum of electronic and thermal Energies=              -100.958466
 Sum of electronic and thermal Enthalpies=            -100.957521
 Sum of electronic and thermal Free Energies=         -100.982244

                     E (Thermal)             CV                S
                      KCal/Mol        Cal/Mol-Kelvin    Cal/Mol-Kelvin
 Total                    8.402              6.931             52.033
 Electronic               0.000              0.000              1.377
 Translational            0.889              2.981             35.068
 Rotational               0.592              1.987             11.670
 Vibrational              6.921              1.963              3.918
 Vibration     1          0.600              1.963              3.918

 Normal termination of Gaussian 16 at Fri Aug 22 15:56:03 2025.
