 Gaussian 16, Revision C.01,
 Gaussian 16:  ES64L-G16RevC.01  3-Jul-2019

 -----------------------------------------
 # sp b3lyp/6-311g** Force nosymm scf=(qc)
 -----------------------------------------

 -------------------
 Title Card Required
 -------------------
 Symbolic Z-matrix:
 Charge =  0 Multiplicity = 2

                          Input orientation:
 ---------------------------------------------------------------------
 Center     Atomic      Atomic             Coordinates (Angstroms)
 Number     Number       Type             X           Y           Z
 ---------------------------------------------------------------------
      1          1           0        0.000000    0.000000    0.000000
      2          1           0       -3.850000    0.000000    0.000000
      3          9           0        2.400000    0.000000    0.000000
 ---------------------------------------------------------------------

 SCF Done:  E(UB3LYP) =  -100.769415881     a.u. after   18 cycles

 Alpha  occ. eigenvalues --  -24.68310  -1.09450  -0.39401  -0.39401  -0.35794
 Alpha  occ. eigenvalues --   -0.32799
 Alpha virt. eigenvalues --   -0.22907   0.21075   0.27600   0.94385   0.95250
 Alpha virt. eigenvalues --    0.95250   1.08347   1.21814   1.21814   1.24669
 Alpha virt. eigenvalues --    1.24669   1.24670   1.33062   2.10390   2.16207

  Beta  occ. eigenvalues --  -24.71090  -1.17343  -0.50182  -0.42169  -0.42169
  Beta virt. eigenvalues --   -0.11118  -0.04336   0.32386   0.40312   0.89197
  Beta virt. eigenvalues --    0.93946   0.93946   1.06235   1.39562   1.39562
  Beta virt. eigenvalues --    1.46119   1.48359   1.48359   1.48440   2.34951

 Mulliken charges and spin densities:
               1          2
     1  H    0.106577   0.877898
     2  H    0.000365   0.999641
     3  F   -0.106942  -0.877539
 Sum of Mulliken charges =   0.00000   1.00000

 Dipole moment (field-independent basis, Debye):
    X=             -1.3064    Y=             -0.0000    Z=             -0.0000  Tot=              1.3064
 Quadrupole moment (field-independent basis, Debye-Ang):
   XX=             -9.5627   YY=             -7.5484   ZZ=             -7.5484
   XY=             -0.0000   XZ=             -0.0000   YZ=             -0.0000

  Exact polarizability:      29.440      -0.000       2.030      -0.000      -0.000       2.030
 Approx polarizability:      39.081      -0.000       1.922      -0.000       0.000       1.922

 ******    1 imaginary frequencies (negative Signs) ******

                      1                      2                      3
                      A                      A                      A
 Frequencies --   -673.8119                54.5307               271.7992
 Red. masses --      1.0592                 1.0524                 1.0246
 Frc consts  --      0.2833                 0.0018                 0.0446
 IR Inten    --     86.9276                 0.0183                11.0476

                      4
                      A
 Frequencies --    271.7992
 Red. masses --      1.0246
 Frc consts  --      0.0446
 IR Inten    --     11.0476

 - Thermochemistry -
 -------------------
 Temperature   298.150 Kelvin.  Pressure   1.00000 Atm.
 Atom     1 has atomic number  1 and mass   1.00783

 Molecular mass:    21.01405 amu.
 Principal axes and moments of inertia in atomic units:
                           1         2         3
     Eigenvalues --     0.00000 148.40168 148.40168
           X            1.00000  -0.00000   0.00000
           Y            0.00000   1.00000   0.00000
           Z            0.00000   0.00000   1.00000
 This molecule is a prolate symmetric top.
 Rotational symmetry number  1.
 Rotational temperature (Kelvin)      0.58365
 Rotational constant (GHZ):          12.161191
    1 imaginary frequencies ignored.
 Zero-point vibrational energy       3577.6 (Joules/Mol)
                                    0.85507 (Kcal/Mol)
 Warning -- explicit consideration of   3 degrees of freedom as
           vibrations may cause significant error
 Vibrational temperatures:     78.46   391.06   391.06
          (Kelvin)

 Zero-point correction=                           0.001363 (Hartree/Particle)
 Thermal correction to Energy=                    0.005462
 Thermal correction to Enthalpy=                  0.006406
 Thermal correction to Gibbs Free Energy=        -0.021456
 Sum of electronic and zero-point Energies=           -100.768053
 Sum of electronic and thermal Energies=              -100.763954
 Sum of electronic and thermal Enthalpies=            -100.763010
 Sum of electronic and thermal Free Energies=         -100.790872

                     E (Thermal)             CV                S
                      KCal/Mol        Cal/Mol-Kelvin    Cal/Mol-Kelvin
 Total                    3.427             10.394             58.640
 Electronic               0.000              0.000              1.377
 Translational            0.889              2.981             35.068
 Rotational               0.592              1.987             14.380
 Vibrational              1.946              5.426              7.815
 Vibration     1          0.596              1.976              4.646
 Vibration     2          0.675              1.725              1.585
 Vibration     3          0.675              1.725              1.585

 Normal termination of Gaussian 16 at Fri Aug 22 17:33:52 2025.
