 Gaussian 16, Revision C.01,
 Gaussian 16:  ES64L-G16RevC.01  3-Jul-2019

 -----------------------------------------
 # sp b3lyp/6-311g** Force nosymm scf=(qc)
 -----------------------------------------

 -------------------
 Title Card Required
 -------------------
 Symbolic Z-matrix:
 Charge =  0 Multiplicity = 2

                          Input orientation:
 ---------------------------------------------------------------------
 Center     Atomic      Atomic             Coordinates (Angstroms)
 Number     Number       Type             X           Y           Z
 ---------------------------------------------------------------------
      1          1           0        0.000000    0.000000    0.000000
      2          1           0       -2.900000    0.000000    0.000000
      3          9           0        1.050000    0.000000    0.000000
 ---------------------------------------------------------------------

 SCF Done:  E(UB3LYP) =  -100.958454363     a.u. after    6 cycles

 Alpha  occ. eigenvalues --  -24.64195  -1.14833  -0.50584  -0.38389  -0.38389
 Alpha  occ. eigenvalues --   -0.34404
 Alpha virt. eigenvalues --   -0.00533   0.24694   0.32258   0.93853   0.93853
 Alpha virt. eigenvalues --    0.99095   1.22531   1.23131   1.23131   1.31903
 Alpha virt. eigenvalues --    1.35580   1.35580   1.85056   2.14320   2.33442

  Beta  occ. eigenvalues --  -24.64185  -1.14808  -0.50549  -0.38380  -0.38380
  Beta virt. eigenvalues --   -0.08356   0.00898   0.32063   0.37965   0.93854
  Beta virt. eigenvalues --    0.93854   0.99106   1.30048   1.35566   1.35566
  Beta virt. eigenvalues --    1.46660   1.46660   1.48356   1.85249   2.33397

 Mulliken charges and spin densities:
               1          2
     1  H    0.328777   0.001355
     2  H    0.003598   0.995428
     3  F   -0.332375   0.003217
 Sum of Mulliken charges =   0.00000   1.00000

 Dipole moment (field-independent basis, Debye):
    X=             -2.1432    Y=              0.0000    Z=              0.0000  Tot=              2.1432
 Quadrupole moment (field-independent basis, Debye-Ang):
   XX=             -8.2510   YY=             -7.0049   ZZ=             -7.0049
   XY=              0.0000   XZ=              0.0000   YZ=             -0.0000

  Exact polarizability:       8.458       0.000       2.394      -0.000      -0.000       2.394
 Approx polarizability:      10.253      -0.000       2.364       0.000      -0.000       2.364

 ******    1 imaginary frequencies (negative Signs) ******

                      1                      2                      3
                      A                      A                      A
 Frequencies --    -87.5649              1110.8873              1110.8873
 Red. masses --      1.0530                 1.0333                 1.0333
 Frc consts  --      0.0048                 0.7513                 0.7513
 IR Inten    --      0.4337               156.4556               156.4556

                      4
                      A
 Frequencies --   2446.3634
 Red. masses --      1.0586
 Frc consts  --      3.7327
 IR Inten    --     99.1908

 - Thermochemistry -
 -------------------
 Temperature   298.150 Kelvin.  Pressure   1.00000 Atm.
 Atom     1 has atomic number  1 and mass   1.00783

 Molecular mass:    21.01405 amu.
 Principal axes and moments of inertia in atomic units:
                           1         2         3
     Eigenvalues --     0.00000  55.80626  55.80626
           X            1.00000  -0.00000   0.00000
           Y            0.00000   1.00000   0.00000
           Z            0.00000   0.00000   1.00000
 This molecule is a prolate symmetric top.
 Rotational symmetry number  1.
 Rotational temperature (Kelvin)      1.55205
 Rotational constant (GHZ):          32.339402
    1 imaginary frequencies ignored.
 Zero-point vibrational energy      27921.7 (Joules/Mol)
                                    6.67344 (Kcal/Mol)
 Vibrational temperatures:   1598.32  1598.32  3519.77
          (Kelvin)

 Zero-point correction=                           0.010635 (Hartree/Particle)
 Thermal correction to Energy=                    0.013043
 Thermal correction to Enthalpy=                  0.013987
 Thermal correction to Gibbs Free Energy=        -0.009295
 Sum of electronic and zero-point Energies=           -100.947820
 Sum of electronic and thermal Energies=              -100.945411
 Sum of electronic and thermal Enthalpies=            -100.944467
 Sum of electronic and thermal Free Energies=         -100.967749

                     E (Thermal)             CV                S
                      KCal/Mol        Cal/Mol-Kelvin    Cal/Mol-Kelvin
 Total                    8.185              5.512             49.001
 Electronic               0.000              0.000              1.377
 Translational            0.889              2.981             35.068
 Rotational               0.592              1.987             12.436
 Vibrational              6.703              0.544              0.119

 Normal termination of Gaussian 16 at Fri Aug 22 16:03:32 2025.
