 Gaussian 16, Revision C.01,
 Gaussian 16:  ES64L-G16RevC.01  3-Jul-2019

 -----------------------------------------
 # sp b3lyp/6-311g** Force nosymm scf=(qc)
 -----------------------------------------

 -------------------
 Title Card Required
 -------------------
 Symbolic Z-matrix:
 Charge =  0 Multiplicity = 2

                          Input orientation:
 ---------------------------------------------------------------------
 Center     Atomic      Atomic             Coordinates (Angstroms)
 Number     Number       Type             X           Y           Z
 ---------------------------------------------------------------------
      1          1           0        0.000000    0.000000    0.000000
      2          1           0       -2.350000    0.000000    0.000000
      3          9           0        1.100000    0.000000    0.000000
 ---------------------------------------------------------------------

 SCF Done:  E(UB3LYP) =  -100.949200957     a.u. after    5 cycles

 Alpha  occ. eigenvalues --  -24.64051  -1.13684  -0.49557  -0.37897  -0.37897
 Alpha  occ. eigenvalues --   -0.35494
 Alpha virt. eigenvalues --   -0.01031   0.24793   0.30732   0.93764   0.93764
 Alpha virt. eigenvalues --    0.99627   1.18670   1.22037   1.22037   1.35446
 Alpha virt. eigenvalues --    1.35446   1.38773   1.80283   2.12912   2.32849

  Beta  occ. eigenvalues --  -24.64005  -1.13569  -0.49342  -0.37856  -0.37856
  Beta virt. eigenvalues --   -0.11428   0.01259   0.30702   0.36274   0.93766
  Beta virt. eigenvalues --    0.93766   0.99779   1.27483   1.35335   1.35335
  Beta virt. eigenvalues --    1.42891   1.42891   1.49956   1.80352   2.31484

 Mulliken charges and spin densities:
               1          2
     1  H    0.332022   0.001685
     2  H    0.011424   0.984482
     3  F   -0.343446   0.013832
 Sum of Mulliken charges =   0.00000   1.00000

 Dipole moment (field-independent basis, Debye):
    X=             -2.3011    Y=             -0.0000    Z=             -0.0000  Tot=              2.3011
 Quadrupole moment (field-independent basis, Debye-Ang):
   XX=             -8.1908   YY=             -7.0363   ZZ=             -7.0363
   XY=             -0.0000   XZ=             -0.0000   YZ=              0.0000

  Exact polarizability:      11.240       0.000       2.398      -0.000       0.000       2.398
 Approx polarizability:      13.360      -0.000       2.367       0.000       0.000       2.367

 ******    1 imaginary frequencies (negative Signs) ******

                      1                      2                      3
                      A                      A                      A
 Frequencies --   -150.0714              1156.0825              1156.0825
 Red. masses --      1.0512                 1.0291                 1.0291
 Frc consts  --      0.0139                 0.8104                 0.8104
 IR Inten    --      3.1343               137.4424               137.4424

                      4
                      A
 Frequencies --   1899.3898
 Red. masses --      1.0604
 Frc consts  --      2.2540
 IR Inten    --    140.2981

 - Thermochemistry -
 -------------------
 Temperature   298.150 Kelvin.  Pressure   1.00000 Atm.
 Atom     1 has atomic number  1 and mass   1.00783

 Molecular mass:    21.01405 amu.
 Principal axes and moments of inertia in atomic units:
                           1         2         3
     Eigenvalues --     0.00000  43.61860  43.61860
           X            1.00000  -0.00000   0.00000
           Y            0.00000   1.00000   0.00000
           Z            0.00000   0.00000   1.00000
 This molecule is a prolate symmetric top.
 Rotational symmetry number  1.
 Rotational temperature (Kelvin)      1.98571
 Rotational constant (GHZ):          41.375491
    1 imaginary frequencies ignored.
 Zero-point vibrational energy      25190.7 (Joules/Mol)
                                    6.02072 (Kcal/Mol)
 Vibrational temperatures:   1663.34  1663.34  2732.80
          (Kelvin)

 Zero-point correction=                           0.009595 (Hartree/Particle)
 Thermal correction to Energy=                    0.011996
 Thermal correction to Enthalpy=                  0.012940
 Thermal correction to Gibbs Free Energy=        -0.010100
 Sum of electronic and zero-point Energies=           -100.939606
 Sum of electronic and thermal Energies=              -100.937205
 Sum of electronic and thermal Enthalpies=            -100.936261
 Sum of electronic and thermal Free Energies=         -100.959301

                     E (Thermal)             CV                S
                      KCal/Mol        Cal/Mol-Kelvin    Cal/Mol-Kelvin
 Total                    7.528              5.456             48.493
 Electronic               0.000              0.000              1.377
 Translational            0.889              2.981             35.068
 Rotational               0.592              1.987             11.946
 Vibrational              6.046              0.488              0.101

 Normal termination of Gaussian 16 at Fri Aug 22 16:05:34 2025.
