 Gaussian 16, Revision C.01,
 Gaussian 16:  ES64L-G16RevC.01  3-Jul-2019

 -----------------------------------------
 # sp b3lyp/6-311g** Force nosymm scf=(qc)
 -----------------------------------------

 -------------------
 Title Card Required
 -------------------
 Symbolic Z-matrix:
 Charge =  0 Multiplicity = 2

                          Input orientation:
 ---------------------------------------------------------------------
 Center     Atomic      Atomic             Coordinates (Angstroms)
 Number     Number       Type             X           Y           Z
 ---------------------------------------------------------------------
      1          1           0        0.000000    0.000000    0.000000
      2          1           0       -2.950000    0.000000    0.000000
      3          9           0        3.100000    0.000000    0.000000
 ---------------------------------------------------------------------

 SCF Done:  E(UB3LYP) =  -100.761476408     a.u. after   24 cycles

 Alpha  occ. eigenvalues --  -24.74448  -1.20480  -0.53567  -0.44978  -0.44978
 Alpha  occ. eigenvalues --   -0.32669
 Alpha virt. eigenvalues --   -0.08907   0.24822   0.35076   0.89094   0.92057
 Alpha virt. eigenvalues --    0.92057   1.03379   1.24875   1.24875   1.25758
 Alpha virt. eigenvalues --    1.42618   1.42618   1.42955   2.15601   2.39023

  Beta  occ. eigenvalues --  -24.71396  -1.11728  -0.41922  -0.41922  -0.33537
  Beta virt. eigenvalues --   -0.24984  -0.07738   0.24748   0.36540   0.93526
  Beta virt. eigenvalues --    0.93526   0.97937   1.07241   1.23859   1.23859
  Beta virt. eigenvalues --    1.24736   1.44467   1.44467   1.44503   2.16160

 Mulliken charges and spin densities:
               1          2
     1  H    0.028216  -0.958706
     2  H    0.001563   0.991547
     3  F   -0.029779   0.967159
 Sum of Mulliken charges =  -0.00000   1.00000

 Dipole moment (field-independent basis, Debye):
    X=             -0.4962    Y=             -0.0000    Z=              0.0000  Tot=              0.4962
 Quadrupole moment (field-independent basis, Debye-Ang):
   XX=             -7.9836   YY=             -7.6280   ZZ=             -7.6280
   XY=             -0.0000   XZ=              0.0000   YZ=              0.0000

  Exact polarizability:      34.717      -0.000       2.023       0.000       0.000       2.023
 Approx polarizability:      32.084      -0.000       1.926       0.000      -0.000       1.926

 ******    2 imaginary frequencies (negative Signs) ******

                      1                      2                      3
                      A                      A                      A
 Frequencies --   -434.1536              -182.6954               158.9492
 Red. masses --      1.0193                 1.0949                 1.0174
 Frc consts  --      0.1132                 0.0215                 0.0151
 IR Inten    --     26.3986                 7.1455                 0.6955

                      4
                      A
 Frequencies --    158.9492
 Red. masses --      1.0174
 Frc consts  --      0.0151
 IR Inten    --      0.6955

 - Thermochemistry -
 -------------------
 Temperature   298.150 Kelvin.  Pressure   1.00000 Atm.
 Atom     1 has atomic number  1 and mass   1.00783

 Molecular mass:    21.01405 amu.
 Principal axes and moments of inertia in atomic units:
                           1         2         3
     Eigenvalues --     0.00000 151.86810 151.86810
           X            1.00000  -0.00000   0.00000
           Y            0.00000   1.00000   0.00000
           Z            0.00000   0.00000   1.00000
 This molecule is a prolate symmetric top.
 Rotational symmetry number  1.
 Rotational temperature (Kelvin)      0.57032
 Rotational constant (GHZ):          11.883610
    2 imaginary frequencies ignored.
 Zero-point vibrational energy       1901.5 (Joules/Mol)
                                    0.45446 (Kcal/Mol)
 Warning -- explicit consideration of   2 degrees of freedom as
           vibrations may cause significant error
 Vibrational temperatures:    228.69   228.69
          (Kelvin)

 Zero-point correction=                           0.000724 (Hartree/Particle)
 Thermal correction to Energy=                    0.004341
 Thermal correction to Enthalpy=                  0.005285
 Thermal correction to Gibbs Free Energy=        -0.021320
 Sum of electronic and zero-point Energies=           -100.760752
 Sum of electronic and thermal Energies=              -100.757136
 Sum of electronic and thermal Enthalpies=            -100.756192
 Sum of electronic and thermal Free Energies=         -100.782797

                     E (Thermal)             CV                S
                      KCal/Mol        Cal/Mol-Kelvin    Cal/Mol-Kelvin
 Total                    2.724              8.753             55.995
 Electronic               0.000              0.000              1.377
 Translational            0.889              2.981             35.068
 Rotational               0.592              1.987             14.425
 Vibrational              1.243              3.785              5.125
 Vibration     1          0.621              1.893              2.562
 Vibration     2          0.621              1.893              2.562

 Normal termination of Gaussian 16 at Fri Aug 22 19:55:43 2025.
