 Gaussian 16, Revision C.01,
 Gaussian 16:  ES64L-G16RevC.01  3-Jul-2019

 -----------------------------------------
 # sp b3lyp/6-311g** Force nosymm scf=(qc)
 -----------------------------------------

 -------------------
 Title Card Required
 -------------------
 Symbolic Z-matrix:
 Charge =  0 Multiplicity = 2

                          Input orientation:
 ---------------------------------------------------------------------
 Center     Atomic      Atomic             Coordinates (Angstroms)
 Number     Number       Type             X           Y           Z
 ---------------------------------------------------------------------
      1          1           0        0.000000    0.000000    0.000000
      2          1           0       -1.150000    0.000000    0.000000
      3          9           0        1.550000    0.000000    0.000000
 ---------------------------------------------------------------------

 SCF Done:  E(UB3LYP) =  -100.903985917     a.u. after   11 cycles

 Alpha  occ. eigenvalues --  -24.68157  -1.15059  -0.50920  -0.40067  -0.40067
 Alpha  occ. eigenvalues --   -0.40009
 Alpha virt. eigenvalues --   -0.00858   0.20271   0.32189   0.91185   0.91185
 Alpha virt. eigenvalues --    0.98600   1.09107   1.09107   1.09938   1.54585
 Alpha virt. eigenvalues --    1.54585   1.57345   2.11616   2.26584   2.50899

  Beta  occ. eigenvalues --  -24.65983  -1.09113  -0.42454  -0.37956  -0.37956
  Beta virt. eigenvalues --   -0.23343   0.01933   0.22195   0.33623   0.91936
  Beta virt. eigenvalues --    0.91936   1.04360   1.12629   1.12629   1.12983
  Beta virt. eigenvalues --    1.56393   1.56393   1.61333   2.14844   2.30757

 Mulliken charges and spin densities:
               1          2
     1  H    0.162703  -0.145681
     2  H    0.062672   0.477781
     3  F   -0.225374   0.667900
 Sum of Mulliken charges =   0.00000   1.00000

 Dipole moment (field-independent basis, Debye):
    X=             -2.0422    Y=              0.0000    Z=             -0.0000  Tot=              2.0422
 Quadrupole moment (field-independent basis, Debye-Ang):
   XX=             -7.5502   YY=             -7.1418   ZZ=             -7.1418
   XY=             -0.0000   XZ=              0.0000   YZ=              0.0000

  Exact polarizability:      33.139      -0.000       2.344       0.000       0.000       2.344
 Approx polarizability:      50.249      -0.000       2.317       0.000      -0.000       2.317

 ******    1 imaginary frequencies (negative Signs) ******

                      1                      2                      3
                      A                      A                      A
 Frequencies --  -2294.7213               471.9303              1267.2645
 Red. masses --      1.0254                 1.0880                 1.0147
 Frc consts  --      3.1812                 0.1428                 0.9601
 IR Inten    --   1072.3863                32.0785                 6.4483

                      4
                      A
 Frequencies --   1267.2645
 Red. masses --      1.0147
 Frc consts  --      0.9601
 IR Inten    --      6.4483

 - Thermochemistry -
 -------------------
 Temperature   298.150 Kelvin.  Pressure   1.00000 Atm.
 Atom     1 has atomic number  1 and mass   1.00783

 Molecular mass:    21.01405 amu.
 Principal axes and moments of inertia in atomic units:
                           1         2         3
     Eigenvalues --     0.00000  31.76568  31.76568
           X            1.00000  -0.00000   0.00000
           Y            0.00000   1.00000   0.00000
           Z            0.00000   0.00000   1.00000
 This molecule is a prolate symmetric top.
 Rotational symmetry number  1.
 Rotational temperature (Kelvin)      2.72665
 Rotational constant (GHZ):          56.814188
    1 imaginary frequencies ignored.
 Zero-point vibrational energy      17982.6 (Joules/Mol)
                                    4.29795 (Kcal/Mol)
 Warning -- explicit consideration of   1 degrees of freedom as
           vibrations may cause significant error
 Vibrational temperatures:    679.00  1823.31  1823.31
          (Kelvin)

 Zero-point correction=                           0.006849 (Hartree/Particle)
 Thermal correction to Energy=                    0.009481
 Thermal correction to Enthalpy=                  0.010425
 Thermal correction to Gibbs Free Energy=        -0.012646
 Sum of electronic and zero-point Energies=           -100.897137
 Sum of electronic and thermal Energies=              -100.894505
 Sum of electronic and thermal Enthalpies=            -100.893561
 Sum of electronic and thermal Free Energies=         -100.916631

                     E (Thermal)             CV                S
                      KCal/Mol        Cal/Mol-Kelvin    Cal/Mol-Kelvin
 Total                    5.949              6.610             48.556
 Electronic               0.000              0.000              1.377
 Translational            0.889              2.981             35.068
 Rotational               0.592              1.987             11.316
 Vibrational              4.468              1.642              0.795
 Vibration     1          0.829              1.312              0.732

 Normal termination of Gaussian 16 at Fri Aug 22 16:27:29 2025.
