 Gaussian 16, Revision C.01,
 Gaussian 16:  ES64L-G16RevC.01  3-Jul-2019

 -----------------------------------------
 # sp b3lyp/6-311g** Force nosymm scf=(qc)
 -----------------------------------------

 -------------------
 Title Card Required
 -------------------
 Symbolic Z-matrix:
 Charge =  0 Multiplicity = 2

                          Input orientation:
 ---------------------------------------------------------------------
 Center     Atomic      Atomic             Coordinates (Angstroms)
 Number     Number       Type             X           Y           Z
 ---------------------------------------------------------------------
      1          1           0        0.000000    0.000000    0.000000
      2          1           0       -1.150000    0.000000    0.000000
      3          9           0        2.400000    0.000000    0.000000
 ---------------------------------------------------------------------

 SCF Done:  E(UB3LYP) =  -100.882189673     a.u. after   20 cycles

 Alpha  occ. eigenvalues --  -24.74889  -1.20903  -0.54151  -0.45377  -0.45377
 Alpha  occ. eigenvalues --   -0.38323
 Alpha virt. eigenvalues --   -0.03467   0.22164   0.35786   0.89166   0.91572
 Alpha virt. eigenvalues --    0.91572   1.09181   1.10337   1.10337   1.27912
 Alpha virt. eigenvalues --    1.55659   1.55659   2.10958   2.31857   2.54916

  Beta  occ. eigenvalues --  -24.71849  -1.12200  -0.42337  -0.42337  -0.38080
  Beta virt. eigenvalues --   -0.25764  -0.02771   0.22560   0.36262   0.93008
  Beta virt. eigenvalues --    0.93008   0.97242   1.10752   1.10752   1.12607
  Beta virt. eigenvalues --    1.29393   1.55993   1.55993   2.11488   2.32367

 Mulliken charges and spin densities:
               1          2
     1  H   -0.000068  -0.042321
     2  H    0.028988   0.082353
     3  F   -0.028919   0.959968
 Sum of Mulliken charges =   0.00000   1.00000

 Dipole moment (field-independent basis, Debye):
    X=             -0.5066    Y=             -0.0000    Z=             -0.0000  Tot=              0.5066
 Quadrupole moment (field-independent basis, Debye-Ang):
   XX=             -6.1396   YY=             -7.4082   ZZ=             -7.4082
   XY=             -0.0000   XZ=             -0.0000   YZ=             -0.0000

  Exact polarizability:      34.320      -0.006      15.436      -0.005       0.005      15.436
 Approx polarizability:      42.827      -0.000       2.132      -0.000       0.000       2.132

 ******    3 imaginary frequencies (negative Signs) ******

                      1                      2                      3
                      A                      A                      A
 Frequencies --  -4863.3369             -4861.4556              -517.5418
 Red. masses --      1.0115                 1.0115                 1.0522
 Frc consts  --     14.0952                14.0843                 0.1660
 IR Inten    --  12611.1096             12593.1542               275.3055

                      4
                      A
 Frequencies --    318.2156
 Red. masses --      1.0594
 Frc consts  --      0.0632
 IR Inten    --     62.6886

 - Thermochemistry -
 -------------------
 Temperature   298.150 Kelvin.  Pressure   1.00000 Atm.
 Atom     1 has atomic number  1 and mass   1.00783

 Molecular mass:    21.01405 amu.
 Principal axes and moments of inertia in atomic units:
                           1         2         3
     Eigenvalues --     0.00000  59.97608  59.97608
           X            1.00000  -0.00000   0.00000
           Y            0.00000   1.00000   0.00000
           Z            0.00000   0.00000   1.00000
 This molecule is a prolate symmetric top.
 Rotational symmetry number  1.
 Rotational temperature (Kelvin)      1.44414
 Rotational constant (GHZ):          30.091017
    3 imaginary frequencies ignored.
 Zero-point vibrational energy       1903.4 (Joules/Mol)
                                    0.45491 (Kcal/Mol)
 Warning -- explicit consideration of   1 degrees of freedom as
           vibrations may cause significant error
 Vibrational temperatures:    457.84
          (Kelvin)

 Zero-point correction=                           0.000725 (Hartree/Particle)
 Thermal correction to Energy=                    0.003483
 Thermal correction to Enthalpy=                  0.004427
 Thermal correction to Gibbs Free Energy=        -0.019493
 Sum of electronic and zero-point Energies=           -100.881465
 Sum of electronic and thermal Energies=              -100.878706
 Sum of electronic and thermal Enthalpies=            -100.877762
 Sum of electronic and thermal Free Energies=         -100.901682

                     E (Thermal)             CV                S
                      KCal/Mol        Cal/Mol-Kelvin    Cal/Mol-Kelvin
 Total                    2.186              6.607             50.344
 Electronic               0.000              0.000              1.377
 Translational            0.889              2.981             35.068
 Rotational               0.592              1.987             12.579
 Vibrational              0.705              1.639              1.319
 Vibration     1          0.705              1.639              1.319

 Normal termination of Gaussian 16 at Fri Aug 22 17:31:16 2025.
