 Gaussian 16, Revision C.01,
 Gaussian 16:  ES64L-G16RevC.01  3-Jul-2019

 -----------------------------------------
 # sp b3lyp/6-311g** Force nosymm scf=(qc)
 -----------------------------------------

 -------------------
 Title Card Required
 -------------------
 Symbolic Z-matrix:
 Charge =  0 Multiplicity = 2

                          Input orientation:
 ---------------------------------------------------------------------
 Center     Atomic      Atomic             Coordinates (Angstroms)
 Number     Number       Type             X           Y           Z
 ---------------------------------------------------------------------
      1          1           0        0.000000    0.000000    0.000000
      2          1           0       -0.700000    0.000000    0.000000
      3          9           0        3.000000    0.000000    0.000000
 ---------------------------------------------------------------------

 SCF Done:  E(UB3LYP) =  -100.933002797     a.u. after  443 cycles

 Alpha  occ. eigenvalues --  -24.76604  -1.22408  -0.55601  -0.46891  -0.46750
 Alpha  occ. eigenvalues --   -0.44021
 Alpha virt. eigenvalues --    0.07059   0.19669   0.48722   0.85864   0.90736
 Alpha virt. eigenvalues --    0.93910   1.06169   1.09056   1.09064   1.57967
 Alpha virt. eigenvalues --    1.85961   1.85970   1.91533   2.38619   3.57076

  Beta  occ. eigenvalues --  -24.73443  -1.13321  -0.44402  -0.43580  -0.43336
  Beta virt. eigenvalues --   -0.26223   0.07107   0.19700   0.48829   0.92235
  Beta virt. eigenvalues --    0.95321   0.95748   1.09056   1.09063   1.09804
  Beta virt. eigenvalues --    1.57982   1.85960   1.85969   1.91568   2.38625

 Mulliken charges and spin densities:
               1          2
     1  H   -0.006241  -0.001302
     2  H   -0.003381   0.000019
     3  F    0.009622   1.001284
 Sum of Mulliken charges =   0.00000   1.00000

 Dipole moment (field-independent basis, Debye):
    X=              0.0929    Y=              0.0000    Z=             -0.0000  Tot=              0.0929
 Quadrupole moment (field-independent basis, Debye-Ang):
   XX=             -6.0553   YY=             -6.2210   ZZ=             -6.6955
   XY=             -0.0000   XZ=              0.0000   YZ=             -0.3607

  Exact polarizability:       7.998       0.000       2.292       0.000      -0.192       2.039
 Approx polarizability:       8.930      -0.000       2.462       0.000      -0.241       2.145

 ******    2 imaginary frequencies (negative Signs) ******

                      1                      2                      3
                      A                      A                      A
 Frequencies --  -1166.5022             -1165.0706                63.7736
 Red. masses --      1.0089                 1.0089                 1.1085
 Frc consts  --      0.8089                 0.8069                 0.0027
 IR Inten    --      0.0169                 0.0157                 0.2274

                      4
                      A
 Frequencies --   5088.2421
 Red. masses --      1.0078
 Frc consts  --     15.3734
 IR Inten    --      0.4023

 - Thermochemistry -
 -------------------
 Temperature   298.150 Kelvin.  Pressure   1.00000 Atm.
 Atom     1 has atomic number  1 and mass   1.00783

 Molecular mass:    21.01405 amu.
 Principal axes and moments of inertia in atomic units:
                           1         2         3
     Eigenvalues --     0.00000  73.91318  73.91318
           X            1.00000  -0.00000   0.00000
           Y            0.00000   1.00000   0.00000
           Z            0.00000   0.00000   1.00000
 This molecule is a prolate symmetric top.
 Rotational symmetry number  1.
 Rotational temperature (Kelvin)      1.17183
 Rotational constant (GHZ):          24.417042
    2 imaginary frequencies ignored.
 Zero-point vibrational energy      30815.9 (Joules/Mol)
                                    7.36518 (Kcal/Mol)
 Warning -- explicit consideration of   1 degrees of freedom as
           vibrations may cause significant error
 Vibrational temperatures:     91.76  7320.85
          (Kelvin)

 Zero-point correction=                           0.011737 (Hartree/Particle)
 Thermal correction to Energy=                    0.014904
 Thermal correction to Enthalpy=                  0.015848
 Thermal correction to Gibbs Free Energy=        -0.009703
 Sum of electronic and zero-point Energies=           -100.921266
 Sum of electronic and thermal Energies=              -100.918099
 Sum of electronic and thermal Enthalpies=            -100.917155
 Sum of electronic and thermal Free Energies=         -100.942706

                     E (Thermal)             CV                S
                      KCal/Mol        Cal/Mol-Kelvin    Cal/Mol-Kelvin
 Total                    9.352              6.940             53.777
 Electronic               0.000              0.000              1.377
 Translational            0.889              2.981             35.068
 Rotational               0.592              1.987             12.994
 Vibrational              7.871              1.972              4.337
 Vibration     1          0.597              1.972              4.337

 Normal termination of Gaussian 16 at Fri Aug 22 19:22:56 2025.
