 Gaussian 16, Revision C.01,
 Gaussian 16:  ES64L-G16RevC.01  3-Jul-2019

 -----------------------------------------
 # sp b3lyp/6-311g** Force nosymm scf=(qc)
 -----------------------------------------

 -------------------
 Title Card Required
 -------------------
 Symbolic Z-matrix:
 Charge =  0 Multiplicity = 2

                          Input orientation:
 ---------------------------------------------------------------------
 Center     Atomic      Atomic             Coordinates (Angstroms)
 Number     Number       Type             X           Y           Z
 ---------------------------------------------------------------------
      1          1           0        0.000000    0.000000    0.000000
      2          1           0       -4.000000    0.000000    0.000000
      3          9           0        3.000000    0.000000    0.000000
 ---------------------------------------------------------------------

 SCF Done:  E(UB3LYP) =  -100.760815573     a.u. after   23 cycles

 Alpha  occ. eigenvalues --  -24.74073  -1.20135  -0.53193  -0.44665  -0.44665
 Alpha  occ. eigenvalues --   -0.32449
 Alpha virt. eigenvalues --   -0.07696   0.23895   0.36266   0.89334   0.92283
 Alpha virt. eigenvalues --    0.92283   1.03866   1.25047   1.25047   1.25063
 Alpha virt. eigenvalues --    1.44391   1.44391   1.45322   2.14341   2.40969

  Beta  occ. eigenvalues --  -24.71046  -1.11461  -0.41635  -0.41635  -0.33721
  Beta virt. eigenvalues --   -0.24766  -0.05888   0.23755   0.38139   0.93744
  Beta virt. eigenvalues --    0.93744   0.98010   1.07570   1.23601   1.23601
  Beta virt. eigenvalues --    1.23978   1.46674   1.46779   1.46779   2.14366

 Mulliken charges and spin densities:
               1          2
     1  H    0.037233  -0.958470
     2  H    0.000121   0.999394
     3  F   -0.037354   0.959076
 Sum of Mulliken charges =  -0.00000   1.00000

 Dipole moment (field-independent basis, Debye):
    X=             -0.5776    Y=              0.0000    Z=              0.0000  Tot=              0.5776
 Quadrupole moment (field-independent basis, Debye-Ang):
   XX=             -8.3504   YY=             -7.6046   ZZ=             -7.6046
   XY=              0.0000   XZ=              0.0000   YZ=             -0.0000

  Exact polarizability:      30.780       0.000       2.027       0.000      -0.000       2.027
 Approx polarizability:      31.736       0.000       1.927       0.000       0.000       1.927

 ******    2 imaginary frequencies (negative Signs) ******

                      1                      2                      3
                      A                      A                      A
 Frequencies --   -363.5336               -69.3260               126.4509
 Red. masses --      1.0544                 1.0571                 1.0218
 Frc consts  --      0.0821                 0.0030                 0.0096
 IR Inten    --     39.6214                 0.0688                 1.3389

                      4
                      A
 Frequencies --    126.4509
 Red. masses --      1.0218
 Frc consts  --      0.0096
 IR Inten    --      1.3389

 - Thermochemistry -
 -------------------
 Temperature   298.150 Kelvin.  Pressure   1.00000 Atm.
 Atom     1 has atomic number  1 and mass   1.00783

 Molecular mass:    21.01405 amu.
 Principal axes and moments of inertia in atomic units:
                           1         2         3
     Eigenvalues --     0.00000 191.48180 191.48180
           X            1.00000  -0.00000   0.00000
           Y            0.00000   1.00000   0.00000
           Z            0.00000   0.00000   1.00000
 This molecule is a prolate symmetric top.
 Rotational symmetry number  1.
 Rotational temperature (Kelvin)      0.45234
 Rotational constant (GHZ):           9.425132
    2 imaginary frequencies ignored.
 Zero-point vibrational energy       1512.7 (Joules/Mol)
                                    0.36154 (Kcal/Mol)
 Warning -- explicit consideration of   2 degrees of freedom as
           vibrations may cause significant error
 Vibrational temperatures:    181.93   181.93
          (Kelvin)

 Zero-point correction=                           0.000576 (Hartree/Particle)
 Thermal correction to Energy=                    0.004307
 Thermal correction to Enthalpy=                  0.005251
 Thermal correction to Gibbs Free Energy=        -0.021988
 Sum of electronic and zero-point Energies=           -100.760239
 Sum of electronic and thermal Energies=              -100.756509
 Sum of electronic and thermal Enthalpies=            -100.755564
 Sum of electronic and thermal Free Energies=         -100.782804

                     E (Thermal)             CV                S
                      KCal/Mol        Cal/Mol-Kelvin    Cal/Mol-Kelvin
 Total                    2.703              8.821             57.330
 Electronic               0.000              0.000              1.377
 Translational            0.889              2.981             35.068
 Rotational               0.592              1.987             14.886
 Vibrational              1.222              3.853              5.999
 Vibration     1          0.611              1.927              2.999
 Vibration     2          0.611              1.927              2.999

 Normal termination of Gaussian 16 at Fri Aug 22 19:33:39 2025.
