 Gaussian 16, Revision C.01,
 Gaussian 16:  ES64L-G16RevC.01  3-Jul-2019

 -----------------------------------------
 # sp b3lyp/6-311g** Force nosymm scf=(qc)
 -----------------------------------------

 -------------------
 Title Card Required
 -------------------
 Symbolic Z-matrix:
 Charge =  0 Multiplicity = 2

                          Input orientation:
 ---------------------------------------------------------------------
 Center     Atomic      Atomic             Coordinates (Angstroms)
 Number     Number       Type             X           Y           Z
 ---------------------------------------------------------------------
      1          1           0        0.000000    0.000000    0.000000
      2          1           0       -1.550000    0.000000    0.000000
      3          9           0        1.850000    0.000000    0.000000
 ---------------------------------------------------------------------

 SCF Done:  E(UB3LYP) =  -100.837952914     a.u. after   14 cycles

 Alpha  occ. eigenvalues --  -24.68100  -1.14521  -0.47823  -0.39706  -0.39706
 Alpha  occ. eigenvalues --   -0.38353
 Alpha virt. eigenvalues --   -0.10543   0.22109   0.30395   0.86428   0.94110
 Alpha virt. eigenvalues --    0.94110   1.03117   1.16894   1.16894   1.33769
 Alpha virt. eigenvalues --    1.37839   1.37839   1.82356   2.18712   2.41693

  Beta  occ. eigenvalues --  -24.65781  -1.08064  -0.38360  -0.37426  -0.37426
  Beta virt. eigenvalues --   -0.22796  -0.08505   0.24604   0.30341   0.90010
  Beta virt. eigenvalues --    0.94756   0.94756   1.07259   1.20077   1.20077
  Beta virt. eigenvalues --    1.38595   1.38595   1.38865   1.84389   2.19470

 Mulliken charges and spin densities:
               1          2
     1  H    0.130567  -0.377648
     2  H    0.067876   0.651242
     3  F   -0.198442   0.726406
 Sum of Mulliken charges =  -0.00000   1.00000

 Dipole moment (field-independent basis, Debye):
    X=             -2.3104    Y=             -0.0000    Z=              0.0000  Tot=              2.3104
 Quadrupole moment (field-independent basis, Debye-Ang):
   XX=             -7.9992   YY=             -7.4671   ZZ=             -7.4671
   XY=             -0.0000   XZ=              0.0000   YZ=              0.0000

  Exact polarizability:      48.785       0.000       2.148      -0.000       0.000       2.148
 Approx polarizability:      72.959      -0.000       2.086       0.000       0.000       2.086

 ******    2 imaginary frequencies (negative Signs) ******

                      1                      2                      3
                      A                      A                      A
 Frequencies --  -2250.4817              -548.6222              1014.0973
 Red. masses --      1.0151                 1.0999                 1.0159
 Frc consts  --      3.0290                 0.1950                 0.6156
 IR Inten    --    624.2537                 8.2367                 6.1812

                      4
                      A
 Frequencies --   1014.0973
 Red. masses --      1.0159
 Frc consts  --      0.6156
 IR Inten    --      6.1812

 - Thermochemistry -
 -------------------
 Temperature   298.150 Kelvin.  Pressure   1.00000 Atm.
 Atom     1 has atomic number  1 and mass   1.00783

 Molecular mass:    21.01405 amu.
 Principal axes and moments of inertia in atomic units:
                           1         2         3
     Eigenvalues --     0.00000  49.16467  49.16467
           X            1.00000  -0.00000   0.00000
           Y            0.00000   1.00000   0.00000
           Z            0.00000   0.00000   1.00000
 This molecule is a prolate symmetric top.
 Rotational symmetry number  1.
 Rotational temperature (Kelvin)      1.76171
 Rotational constant (GHZ):          36.708093
    2 imaginary frequencies ignored.
 Zero-point vibrational energy      12131.3 (Joules/Mol)
                                    2.89945 (Kcal/Mol)
 Vibrational temperatures:   1459.06  1459.06
          (Kelvin)

 Zero-point correction=                           0.004621 (Hartree/Particle)
 Thermal correction to Energy=                    0.007051
 Thermal correction to Enthalpy=                  0.007995
 Thermal correction to Gibbs Free Energy=        -0.015194
 Sum of electronic and zero-point Energies=           -100.833332
 Sum of electronic and thermal Energies=              -100.830902
 Sum of electronic and thermal Enthalpies=            -100.829958
 Sum of electronic and thermal Free Energies=         -100.853147

                     E (Thermal)             CV                S
                      KCal/Mol        Cal/Mol-Kelvin    Cal/Mol-Kelvin
 Total                    4.424              5.692             48.806
 Electronic               0.000              0.000              1.377
 Translational            0.889              2.981             35.068
 Rotational               0.592              1.987             12.184
 Vibrational              2.943              0.724              0.177

 Normal termination of Gaussian 16 at Fri Aug 22 16:46:18 2025.
