 Gaussian 16, Revision C.01,
 Gaussian 16:  ES64L-G16RevC.01  3-Jul-2019

 -----------------------------------------
 # sp b3lyp/6-311g** Force nosymm scf=(qc)
 -----------------------------------------

 -------------------
 Title Card Required
 -------------------
 Symbolic Z-matrix:
 Charge =  0 Multiplicity = 2

                          Input orientation:
 ---------------------------------------------------------------------
 Center     Atomic      Atomic             Coordinates (Angstroms)
 Number     Number       Type             X           Y           Z
 ---------------------------------------------------------------------
      1          1           0        0.000000    0.000000    0.000000
      2          1           0       -1.950000    0.000000    0.000000
      3          9           0        3.650000    0.000000    0.000000
 ---------------------------------------------------------------------

 SCF Done:  E(UB3LYP) =  -100.776756354     a.u. after   50 cycles

 Alpha  occ. eigenvalues --  -24.75788  -1.21723  -0.54913  -0.46112  -0.46112
 Alpha  occ. eigenvalues --   -0.33061
 Alpha virt. eigenvalues --   -0.10980   0.25908   0.32067   0.87141   0.91212
 Alpha virt. eigenvalues --    0.91212   1.01379   1.15242   1.24911   1.24911
 Alpha virt. eigenvalues --    1.37731   1.37731   1.53369   2.13321   2.36992

  Beta  occ. eigenvalues --  -24.72654  -1.12713  -0.42970  -0.42970  -0.33109
  Beta virt. eigenvalues --   -0.25739  -0.10817   0.25782   0.32394   0.92707
  Beta virt. eigenvalues --    0.92707   0.96406   1.05468   1.15246   1.24856
  Beta virt. eigenvalues --    1.24856   1.37941   1.37941   1.53520   2.13692

 Mulliken charges and spin densities:
               1          2
     1  H    0.000572  -0.825391
     2  H    0.004699   0.831649
     3  F   -0.005271   0.993743
 Sum of Mulliken charges =   0.00000   1.00000

 Dipole moment (field-independent basis, Debye):
    X=             -0.1416    Y=              0.0000    Z=              0.0000  Tot=              0.1416
 Quadrupole moment (field-independent basis, Debye-Ang):
   XX=             -6.3840   YY=             -7.7352   ZZ=             -7.7352
   XY=              0.0000   XZ=              0.0000   YZ=              0.0000

  Exact polarizability:      37.992       0.000       2.007       0.000      -0.000       2.007
 Approx polarizability:      35.964       0.000       1.942       0.000       0.000       1.942

 ******    2 imaginary frequencies (negative Signs) ******

                      1                      2                      3
                      A                      A                      A
 Frequencies --  -1446.2146              -108.2696               600.9770
 Red. masses --      1.0078                 1.1085                 1.0121
 Frc consts  --      1.2419                 0.0077                 0.2154
 IR Inten    --      5.4892                 3.3299                 0.0013

                      4
                      A
 Frequencies --    600.9770
 Red. masses --      1.0121
 Frc consts  --      0.2154
 IR Inten    --      0.0013

 - Thermochemistry -
 -------------------
 Temperature   298.150 Kelvin.  Pressure   1.00000 Atm.
 Atom     1 has atomic number  1 and mass   1.00783

 Molecular mass:    21.01405 amu.
 Principal axes and moments of inertia in atomic units:
                           1         2         3
     Eigenvalues --     0.00000 146.04402 146.04402
           X            1.00000  -0.00000   0.00000
           Y            0.00000   1.00000   0.00000
           Z            0.00000   0.00000   1.00000
 This molecule is a prolate symmetric top.
 Rotational symmetry number  1.
 Rotational temperature (Kelvin)      0.59307
 Rotational constant (GHZ):          12.357515
    2 imaginary frequencies ignored.
 Zero-point vibrational energy       7189.3 (Joules/Mol)
                                    1.71828 (Kcal/Mol)
 Warning -- explicit consideration of   2 degrees of freedom as
           vibrations may cause significant error
 Vibrational temperatures:    864.67   864.67
          (Kelvin)

 Zero-point correction=                           0.002738 (Hartree/Particle)
 Thermal correction to Energy=                    0.005418
 Thermal correction to Enthalpy=                  0.006362
 Thermal correction to Gibbs Free Energy=        -0.018197
 Sum of electronic and zero-point Energies=           -100.774018
 Sum of electronic and thermal Energies=              -100.771339
 Sum of electronic and thermal Enthalpies=            -100.770395
 Sum of electronic and thermal Free Energies=         -100.794954

                     E (Thermal)             CV                S
                      KCal/Mol        Cal/Mol-Kelvin    Cal/Mol-Kelvin
 Total                    3.400              7.027             51.689
 Electronic               0.000              0.000              1.377
 Translational            0.889              2.981             35.068
 Rotational               0.592              1.987             14.348
 Vibrational              1.918              2.059              0.896
 Vibration     1          0.959              1.030              0.448
 Vibration     2          0.959              1.030              0.448

 Normal termination of Gaussian 16 at Fri Aug 22 23:35:31 2025.
