 Gaussian 16, Revision C.01,
 Gaussian 16:  ES64L-G16RevC.01  3-Jul-2019

 -----------------------------------------
 # sp b3lyp/6-311g** Force nosymm scf=(qc)
 -----------------------------------------

 -------------------
 Title Card Required
 -------------------
 Symbolic Z-matrix:
 Charge =  0 Multiplicity = 2

                          Input orientation:
 ---------------------------------------------------------------------
 Center     Atomic      Atomic             Coordinates (Angstroms)
 Number     Number       Type             X           Y           Z
 ---------------------------------------------------------------------
      1          1           0        0.000000    0.000000    0.000000
      2          1           0       -1.900000    0.000000    0.000000
      3          9           0        4.000000    0.000000    0.000000
 ---------------------------------------------------------------------

 SCF Done:  E(UB3LYP) =  -100.779304132     a.u. after   30 cycles

 Alpha  occ. eigenvalues --  -24.76133  -1.22041  -0.55246  -0.46413  -0.46403
 Alpha  occ. eigenvalues --   -0.32811
 Alpha virt. eigenvalues --   -0.10633   0.26077   0.32250   0.86111   0.90989
 Alpha virt. eigenvalues --    0.91258   1.00896   1.13664   1.25125   1.25126
 Alpha virt. eigenvalues --    1.37967   1.37969   1.56069   2.13913   2.37724

  Beta  occ. eigenvalues --  -24.72979  -1.12969  -0.43253  -0.43241  -0.32793
  Beta virt. eigenvalues --   -0.25899  -0.10677   0.26076   0.32244   0.92490
  Beta virt. eigenvalues --    0.92734   0.95579   1.05041   1.13654   1.25132
  Beta virt. eigenvalues --    1.25135   1.37942   1.37943   1.56067   2.14040

 Mulliken charges and spin densities:
               1          2
     1  H    0.000605  -0.799050
     2  H   -0.001146   0.799068
     3  F    0.000541   0.999982
 Sum of Mulliken charges =   0.00000   1.00000

 Dipole moment (field-independent basis, Debye):
    X=              0.0170    Y=              0.0000    Z=             -0.0000  Tot=              0.0170
 Quadrupole moment (field-independent basis, Debye-Ang):
   XX=             -6.8962   YY=             -7.0570   ZZ=             -7.5691
   XY=              0.0000   XZ=             -0.0000   YZ=             -0.3484

  Exact polarizability:      22.644       0.000       2.382      -0.000      -0.187       2.106
 Approx polarizability:      28.858       0.000       2.413      -0.000      -0.235       2.067

 ******    2 imaginary frequencies (negative Signs) ******

                      1                      2                      3
                      A                      A                      A
 Frequencies --  -1537.6928               -51.9661               657.6476
 Red. masses --      1.0078                 1.1085                 1.0114
 Frc consts  --      1.4040                 0.0018                 0.2577
 IR Inten    --      0.0009                 0.0210                 0.0008

                      4
                      A
 Frequencies --    657.8715
 Red. masses --      1.0114
 Frc consts  --      0.2579
 IR Inten    --      0.0006

 - Thermochemistry -
 -------------------
 Temperature   298.150 Kelvin.  Pressure   1.00000 Atm.
 Atom     1 has atomic number  1 and mass   1.00783

 Molecular mass:    21.01405 amu.
 Principal axes and moments of inertia in atomic units:
                           1         2         3
     Eigenvalues --     0.00000 165.94842 165.94842
           X            1.00000  -0.00000   0.00000
           Y            0.00000   1.00000   0.00000
           Z            0.00000   0.00000   1.00000
 This molecule is a prolate symmetric top.
 Rotational symmetry number  1.
 Rotational temperature (Kelvin)      0.52193
 Rotational constant (GHZ):          10.875314
    2 imaginary frequencies ignored.
 Zero-point vibrational energy       7868.6 (Joules/Mol)
                                    1.88063 (Kcal/Mol)
 Vibrational temperatures:    946.21   946.53
          (Kelvin)

 Zero-point correction=                           0.002997 (Hartree/Particle)
 Thermal correction to Energy=                    0.005619
 Thermal correction to Enthalpy=                  0.006563
 Thermal correction to Gibbs Free Energy=        -0.018033
 Sum of electronic and zero-point Energies=           -100.776307
 Sum of electronic and thermal Energies=              -100.773685
 Sum of electronic and thermal Enthalpies=            -100.772741
 Sum of electronic and thermal Free Energies=         -100.797337

                     E (Thermal)             CV                S
                      KCal/Mol        Cal/Mol-Kelvin    Cal/Mol-Kelvin
 Total                    3.526              6.792             51.768
 Electronic               0.000              0.000              1.377
 Translational            0.889              2.981             35.068
 Rotational               0.592              1.987             14.602
 Vibrational              2.045              1.824              0.721

 Normal termination of Gaussian 16 at Sat Aug 23 01:51:22 2025.
