 Gaussian 16, Revision C.01,
 Gaussian 16:  ES64L-G16RevC.01  3-Jul-2019

 -----------------------------------------
 # sp b3lyp/6-311g** Force nosymm scf=(qc)
 -----------------------------------------

 -------------------
 Title Card Required
 -------------------
 Symbolic Z-matrix:
 Charge =  0 Multiplicity = 2

                          Input orientation:
 ---------------------------------------------------------------------
 Center     Atomic      Atomic             Coordinates (Angstroms)
 Number     Number       Type             X           Y           Z
 ---------------------------------------------------------------------
      1          1           0        0.000000    0.000000    0.000000
      2          1           0       -1.400000    0.000000    0.000000
      3          9           0        3.700000    0.000000    0.000000
 ---------------------------------------------------------------------

 SCF Done:  E(UB3LYP) =  -100.836496835     a.u. after  254 cycles

 Alpha  occ. eigenvalues --  -24.76301  -1.22191  -0.55392  -0.46576  -0.46548
 Alpha  occ. eigenvalues --   -0.34366
 Alpha virt. eigenvalues --   -0.08117   0.24257   0.31358   0.85988   0.90865
 Alpha virt. eigenvalues --    0.91622   1.01011   1.10731   1.17925   1.17927
 Alpha virt. eigenvalues --    1.45122   1.45124   1.89952   2.25486   2.49754

  Beta  occ. eigenvalues --  -24.73145  -1.13116  -0.43412  -0.43384  -0.34365
  Beta virt. eigenvalues --   -0.26039  -0.08115   0.24262   0.31376   0.92365
  Beta virt. eigenvalues --    0.93116   0.95454   1.05142   1.10740   1.17925
  Beta virt. eigenvalues --    1.17927   1.45121   1.45124   1.89955   2.25487

 Mulliken charges and spin densities:
               1          2
     1  H    0.000822   0.000112
     2  H   -0.002507  -0.000306
     3  F    0.001685   1.000194
 Sum of Mulliken charges =   0.00000   1.00000

 Dipole moment (field-independent basis, Debye):
    X=              0.0346    Y=             -0.0000    Z=             -0.0000  Tot=              0.0346
 Quadrupole moment (field-independent basis, Debye-Ang):
   XX=             -6.2885   YY=             -6.9067   ZZ=             -7.5936
   XY=             -0.0001   XZ=             -0.0000   YZ=              0.2625

  Exact polarizability:      20.326      -0.000       2.478      -0.000       0.142       2.106
 Approx polarizability:      35.941      -0.000       2.585      -0.000       0.177       2.123

 ******    2 imaginary frequencies (negative Signs) ******

                      1                      2                      3
                      A                      A                      A
 Frequencies --  -1168.2638               -62.9658              1308.9769
 Red. masses --      1.0078                 1.1085                 1.0103
 Frc consts  --      0.8104                 0.0026                 1.0199
 IR Inten    --      0.1168                 0.0950                 0.0051

                      4
                      A
 Frequencies --   1312.2822
 Red. masses --      1.0103
 Frc consts  --      1.0251
 IR Inten    --      0.0017

 - Thermochemistry -
 -------------------
 Temperature   298.150 Kelvin.  Pressure   1.00000 Atm.
 Atom     1 has atomic number  1 and mass   1.00783

 Molecular mass:    21.01405 amu.
 Principal axes and moments of inertia in atomic units:
                           1         2         3
     Eigenvalues --     0.00000 129.51396 129.51396
           X            1.00000  -0.00000   0.00000
           Y            0.00000   1.00000   0.00000
           Z            0.00000   0.00000   1.00000
 This molecule is a prolate symmetric top.
 Rotational symmetry number  1.
 Rotational temperature (Kelvin)      0.66876
 Rotational constant (GHZ):          13.934723
    2 imaginary frequencies ignored.
 Zero-point vibrational energy      15678.6 (Joules/Mol)
                                    3.74728 (Kcal/Mol)
 Vibrational temperatures:   1883.33  1888.08
          (Kelvin)

 Zero-point correction=                           0.005972 (Hartree/Particle)
 Thermal correction to Energy=                    0.008354
 Thermal correction to Enthalpy=                  0.009298
 Thermal correction to Gibbs Free Energy=        -0.014747
 Sum of electronic and zero-point Energies=           -100.830525
 Sum of electronic and thermal Energies=              -100.828143
 Sum of electronic and thermal Enthalpies=            -100.827199
 Sum of electronic and thermal Free Energies=         -100.851244

                     E (Thermal)             CV                S
                      KCal/Mol        Cal/Mol-Kelvin    Cal/Mol-Kelvin
 Total                    5.242              5.254             50.607
 Electronic               0.000              0.000              1.377
 Translational            0.889              2.981             35.068
 Rotational               0.592              1.987             14.109
 Vibrational              3.761              0.286              0.052

 Normal termination of Gaussian 16 at Fri Aug 22 23:52:03 2025.
