 Gaussian 16, Revision C.01,
 Gaussian 16:  ES64L-G16RevC.01  3-Jul-2019

 -----------------------------------------
 # sp b3lyp/6-311g** Force nosymm scf=(qc)
 -----------------------------------------

 -------------------
 Title Card Required
 -------------------
 Symbolic Z-matrix:
 Charge =  0 Multiplicity = 2

                          Input orientation:
 ---------------------------------------------------------------------
 Center     Atomic      Atomic             Coordinates (Angstroms)
 Number     Number       Type             X           Y           Z
 ---------------------------------------------------------------------
      1          1           0        0.000000    0.000000    0.000000
      2          1           0       -2.250000    0.000000    0.000000
      3          9           0        3.250000    0.000000    0.000000
 ---------------------------------------------------------------------

 SCF Done:  E(UB3LYP) =  -100.767435691     a.u. after   23 cycles

 Alpha  occ. eigenvalues --  -24.74989  -1.20979  -0.54109  -0.45432  -0.45432
 Alpha  occ. eigenvalues --   -0.33069
 Alpha virt. eigenvalues --   -0.10711   0.25716   0.33112   0.88551   0.91723
 Alpha virt. eigenvalues --    0.91723   1.02625   1.24378   1.24732   1.24732
 Alpha virt. eigenvalues --    1.39065   1.39065   1.44021   2.14184   2.35604

  Beta  occ. eigenvalues --  -24.71904  -1.12122  -0.42341  -0.42341  -0.33369
  Beta virt. eigenvalues --   -0.25303  -0.10087   0.25700   0.33927   0.93203
  Beta virt. eigenvalues --    0.93203   0.97554   1.06607   1.23973   1.24347
  Beta virt. eigenvalues --    1.24347   1.40037   1.40037   1.44903   2.15147

 Mulliken charges and spin densities:
               1          2
     1  H    0.013115  -0.914632
     2  H    0.006377   0.936594
     3  F   -0.019492   0.978038
 Sum of Mulliken charges =   0.00000   1.00000

 Dipole moment (field-independent basis, Debye):
    X=             -0.3934    Y=              0.0000    Z=             -0.0000  Tot=              0.3934
 Quadrupole moment (field-independent basis, Debye-Ang):
   XX=             -7.2619   YY=             -7.6870   ZZ=             -7.6870
   XY=              0.0000   XZ=             -0.0000   YZ=             -0.0000

  Exact polarizability:      46.623       0.000       2.013      -0.000       0.000       2.013
 Approx polarizability:      37.586       0.000       1.927      -0.000       0.000       1.927

 ******    2 imaginary frequencies (negative Signs) ******

                      1                      2                      3
                      A                      A                      A
 Frequencies --   -962.1238              -186.3385               367.2685
 Red. masses --      1.0080                 1.1083                 1.0141
 Frc consts  --      0.5498                 0.0227                 0.0806
 IR Inten    --     14.3197                14.7227                 0.0964

                      4
                      A
 Frequencies --    367.2685
 Red. masses --      1.0141
 Frc consts  --      0.0806
 IR Inten    --      0.0964

 - Thermochemistry -
 -------------------
 Temperature   298.150 Kelvin.  Pressure   1.00000 Atm.
 Atom     1 has atomic number  1 and mass   1.00783

 Molecular mass:    21.01405 amu.
 Principal axes and moments of inertia in atomic units:
                           1         2         3
     Eigenvalues --     0.00000 133.66932 133.66932
           X            1.00000  -0.00000   0.00000
           Y            0.00000   1.00000   0.00000
           Z            0.00000   0.00000   1.00000
 This molecule is a prolate symmetric top.
 Rotational symmetry number  1.
 Rotational temperature (Kelvin)      0.64797
 Rotational constant (GHZ):          13.501537
    2 imaginary frequencies ignored.
 Zero-point vibrational energy       4393.5 (Joules/Mol)
                                    1.05007 (Kcal/Mol)
 Warning -- explicit consideration of   2 degrees of freedom as
           vibrations may cause significant error
 Vibrational temperatures:    528.42   528.42
          (Kelvin)

 Zero-point correction=                           0.001673 (Hartree/Particle)
 Thermal correction to Energy=                    0.004719
 Thermal correction to Enthalpy=                  0.005663
 Thermal correction to Gibbs Free Energy=        -0.019424
 Sum of electronic and zero-point Energies=           -100.765762
 Sum of electronic and thermal Energies=              -100.762717
 Sum of electronic and thermal Enthalpies=            -100.761772
 Sum of electronic and thermal Free Energies=         -100.786859

                     E (Thermal)             CV                S
                      KCal/Mol        Cal/Mol-Kelvin    Cal/Mol-Kelvin
 Total                    2.961              8.047             52.800
 Electronic               0.000              0.000              1.377
 Translational            0.889              2.981             35.068
 Rotational               0.592              1.987             14.172
 Vibrational              1.480              3.079              2.182
 Vibration     1          0.740              1.540              1.091
 Vibration     2          0.740              1.540              1.091

 Normal termination of Gaussian 16 at Fri Aug 22 20:34:43 2025.
