 Gaussian 16, Revision C.01,
 Gaussian 16:  ES64L-G16RevC.01  3-Jul-2019

 -----------------------------------------
 # sp b3lyp/6-311g** Force nosymm scf=(qc)
 -----------------------------------------

 -------------------
 Title Card Required
 -------------------
 Symbolic Z-matrix:
 Charge =  0 Multiplicity = 2

                          Input orientation:
 ---------------------------------------------------------------------
 Center     Atomic      Atomic             Coordinates (Angstroms)
 Number     Number       Type             X           Y           Z
 ---------------------------------------------------------------------
      1          1           0        0.000000    0.000000    0.000000
      2          1           0       -0.750000    0.000000    0.000000
      3          9           0        3.550000    0.000000    0.000000
 ---------------------------------------------------------------------

 SCF Done:  E(UB3LYP) =  -100.933924572     a.u. after  268 cycles

 Alpha  occ. eigenvalues --  -24.76325  -1.22188  -0.55389  -0.46584  -0.46543
 Alpha  occ. eigenvalues --   -0.43147
 Alpha virt. eigenvalues --    0.05774   0.19803   0.46469   0.86015   0.90891
 Alpha virt. eigenvalues --    0.92683   1.01831   1.08537   1.08540   1.55165
 Alpha virt. eigenvalues --    1.82391   1.82395   1.96973   2.38057   3.28227

  Beta  occ. eigenvalues --  -24.73168  -1.13110  -0.43503  -0.43377  -0.43060
  Beta virt. eigenvalues --   -0.26029   0.05789   0.19812   0.46523   0.92390
  Beta virt. eigenvalues --    0.94205   0.95479   1.05885   1.08537   1.08540
  Beta virt. eigenvalues --    1.55172   1.82391   1.82394   1.96991   2.38059

 Mulliken charges and spin densities:
               1          2
     1  H   -0.001466  -0.000416
     2  H   -0.002174  -0.000000
     3  F    0.003640   1.000417
 Sum of Mulliken charges =   0.00000   1.00000

 Dipole moment (field-independent basis, Debye):
    X=              0.0444    Y=             -0.0000    Z=              0.0000  Tot=              0.0444
 Quadrupole moment (field-independent basis, Debye-Ang):
   XX=             -6.2081   YY=             -6.9534   ZZ=             -6.0893
   XY=             -0.0000   XZ=              0.0000   YZ=             -0.0080

  Exact polarizability:       8.268       0.000       1.958       0.000      -0.004       2.422
 Approx polarizability:       9.522      -0.000       2.033       0.000      -0.005       2.615

 ******    1 imaginary frequencies (negative Signs) ******

                      1                      2                      3
                      A                      A                      A
 Frequencies --    -44.0214               411.9279               414.4826
 Red. masses --      1.1085                 1.0087                 1.0087
 Frc consts  --      0.0013                 0.1008                 0.1021
 IR Inten    --      0.1318                 0.0008                 0.0006

                      4
                      A
 Frequencies --   4337.1461
 Red. masses --      1.0078
 Frc consts  --     11.1697
 IR Inten    --      0.0609

 - Thermochemistry -
 -------------------
 Temperature   298.150 Kelvin.  Pressure   1.00000 Atm.
 Atom     1 has atomic number  1 and mass   1.00783

 Molecular mass:    21.01405 amu.
 Principal axes and moments of inertia in atomic units:
                           1         2         3
     Eigenvalues --     0.00000 101.26570 101.26570
           X            1.00000  -0.00000   0.00000
           Y            0.00000   1.00000   0.00000
           Z            0.00000   0.00000   1.00000
 This molecule is a prolate symmetric top.
 Rotational symmetry number  1.
 Rotational temperature (Kelvin)      0.85531
 Rotational constant (GHZ):          17.821840
    1 imaginary frequencies ignored.
 Zero-point vibrational energy      30884.9 (Joules/Mol)
                                    7.38167 (Kcal/Mol)
 Warning -- explicit consideration of   2 degrees of freedom as
           vibrations may cause significant error
 Vibrational temperatures:    592.67   596.35  6240.19
          (Kelvin)

 Zero-point correction=                           0.011763 (Hartree/Particle)
 Thermal correction to Energy=                    0.014717
 Thermal correction to Enthalpy=                  0.015662
 Thermal correction to Gibbs Free Energy=        -0.008996
 Sum of electronic and zero-point Energies=           -100.922161
 Sum of electronic and thermal Energies=              -100.919207
 Sum of electronic and thermal Enthalpies=            -100.918263
 Sum of electronic and thermal Free Energies=         -100.942921

                     E (Thermal)             CV                S
                      KCal/Mol        Cal/Mol-Kelvin    Cal/Mol-Kelvin
 Total                    9.235              7.851             51.896
 Electronic               0.000              0.000              1.377
 Translational            0.889              2.981             35.068
 Rotational               0.592              1.987             13.620
 Vibrational              7.754              2.883              1.831
 Vibration     1          0.776              1.444              0.920
 Vibration     2          0.778              1.439              0.911

 Normal termination of Gaussian 16 at Fri Aug 22 22:16:52 2025.
