 Gaussian 16, Revision C.01,
 Gaussian 16:  ES64L-G16RevC.01  3-Jul-2019

 -----------------------------------------
 # sp b3lyp/6-311g** Force nosymm scf=(qc)
 -----------------------------------------

 -------------------
 Title Card Required
 -------------------
 Symbolic Z-matrix:
 Charge =  0 Multiplicity = 2

                          Input orientation:
 ---------------------------------------------------------------------
 Center     Atomic      Atomic             Coordinates (Angstroms)
 Number     Number       Type             X           Y           Z
 ---------------------------------------------------------------------
      1          1           0        0.000000    0.000000    0.000000
      2          1           0       -2.650000    0.000000    0.000000
      3          9           0        2.700000    0.000000    0.000000
 ---------------------------------------------------------------------

 SCF Done:  E(UB3LYP) =  -100.766460738     a.u. after   20 cycles

 Alpha  occ. eigenvalues --  -24.72845  -1.18988  -0.51956  -0.43632  -0.43632
 Alpha  occ. eigenvalues --   -0.33280
 Alpha virt. eigenvalues --   -0.10865   0.24896   0.33749   0.90213   0.93011
 Alpha virt. eigenvalues --    0.93011   1.05779   1.24322   1.24322   1.26330
 Alpha virt. eigenvalues --    1.39646   1.39646   1.41828   2.15333   2.35888

  Beta  occ. eigenvalues --  -24.69911  -1.10606  -0.40700  -0.40700  -0.34619
  Beta virt. eigenvalues --   -0.24057  -0.08873   0.25450   0.35352   0.94435
  Beta virt. eigenvalues --    0.94435   0.98256   1.09233   1.22827   1.22827
  Beta virt. eigenvalues --    1.26370   1.42767   1.42767   1.43695   2.15486

 Mulliken charges and spin densities:
               1          2
     1  H    0.057677  -0.909562
     2  H    0.005980   0.980909
     3  F   -0.063657   0.928652
 Sum of Mulliken charges =  -0.00000   1.00000

 Dipole moment (field-independent basis, Debye):
    X=             -0.9548    Y=             -0.0000    Z=              0.0000  Tot=              0.9548
 Quadrupole moment (field-independent basis, Debye-Ang):
   XX=             -8.6049   YY=             -7.6210   ZZ=             -7.6210
   XY=             -0.0000   XZ=              0.0000   YZ=              0.0000

  Exact polarizability:      40.985      -0.000       2.015       0.000       0.000       2.015
 Approx polarizability:      42.851      -0.000       1.919       0.000      -0.000       1.919

 ******    2 imaginary frequencies (negative Signs) ******

                      1                      2                      3
                      A                      A                      A
 Frequencies --   -660.8471              -277.1246               254.4191
 Red. masses --      1.0204                 1.0937                 1.0177
 Frc consts  --      0.2625                 0.0495                 0.0388
 IR Inten    --     46.4188                16.5322                 2.8189

                      4
                      A
 Frequencies --    254.4191
 Red. masses --      1.0177
 Frc consts  --      0.0388
 IR Inten    --      2.8189

 - Thermochemistry -
 -------------------
 Temperature   298.150 Kelvin.  Pressure   1.00000 Atm.
 Atom     1 has atomic number  1 and mass   1.00783

 Molecular mass:    21.01405 amu.
 Principal axes and moments of inertia in atomic units:
                           1         2         3
     Eigenvalues --     0.00000 118.06403 118.06403
           X            1.00000  -0.00000   0.00000
           Y            0.00000   1.00000   0.00000
           Z            0.00000   0.00000   1.00000
 This molecule is a prolate symmetric top.
 Rotational symmetry number  1.
 Rotational temperature (Kelvin)      0.73362
 Rotational constant (GHZ):          15.286122
    2 imaginary frequencies ignored.
 Zero-point vibrational energy       3043.5 (Joules/Mol)
                                    0.72742 (Kcal/Mol)
 Warning -- explicit consideration of   2 degrees of freedom as
           vibrations may cause significant error
 Vibrational temperatures:    366.05   366.05
          (Kelvin)

 Zero-point correction=                           0.001159 (Hartree/Particle)
 Thermal correction to Energy=                    0.004480
 Thermal correction to Enthalpy=                  0.005424
 Thermal correction to Gibbs Free Energy=        -0.020123
 Sum of electronic and zero-point Energies=           -100.765302
 Sum of electronic and thermal Energies=              -100.761980
 Sum of electronic and thermal Enthalpies=            -100.761036
 Sum of electronic and thermal Free Energies=         -100.786584

                     E (Thermal)             CV                S
                      KCal/Mol        Cal/Mol-Kelvin    Cal/Mol-Kelvin
 Total                    2.811              8.479             53.770
 Electronic               0.000              0.000              1.377
 Translational            0.889              2.981             35.068
 Rotational               0.592              1.987             13.925
 Vibrational              1.330              3.511              3.400
 Vibration     1          0.665              1.755              1.700
 Vibration     2          0.665              1.755              1.700

 Normal termination of Gaussian 16 at Fri Aug 22 18:26:04 2025.
