 Gaussian 16, Revision C.01,
 Gaussian 16:  ES64L-G16RevC.01  3-Jul-2019

 -----------------------------------------
 # sp b3lyp/6-311g** Force nosymm scf=(qc)
 -----------------------------------------

 -------------------
 Title Card Required
 -------------------
 Symbolic Z-matrix:
 Charge =  0 Multiplicity = 2

                          Input orientation:
 ---------------------------------------------------------------------
 Center     Atomic      Atomic             Coordinates (Angstroms)
 Number     Number       Type             X           Y           Z
 ---------------------------------------------------------------------
      1          1           0        0.000000    0.000000    0.000000
      2          1           0       -0.500000    0.000000    0.000000
      3          9           0        3.450000    0.000000    0.000000
 ---------------------------------------------------------------------

 SCF Done:  E(UB3LYP) =  -100.861834712     a.u. after   58 cycles

 Alpha  occ. eigenvalues --  -24.76356  -1.22198  -0.55399  -0.49264  -0.46575
 Alpha  occ. eigenvalues --   -0.46551
 Alpha virt. eigenvalues --    0.10008   0.18318   0.55617   0.86023   0.90897
 Alpha virt. eigenvalues --    0.93529   1.03133   1.12079   1.12083   1.61419
 Alpha virt. eigenvalues --    1.85485   1.99610   1.99614   2.36248   3.64834

  Beta  occ. eigenvalues --  -24.73197  -1.13117  -0.49258  -0.43411  -0.43384
  Beta virt. eigenvalues --   -0.26033   0.10040   0.18333   0.55716   0.92397
  Beta virt. eigenvalues --    0.95148   0.95485   1.07017   1.12079   1.12083
  Beta virt. eigenvalues --    1.61433   1.85514   1.99609   1.99614   2.36249

 Mulliken charges and spin densities:
               1          2
     1  H   -0.004646  -0.000887
     2  H   -0.000767   0.000244
     3  F    0.005412   1.000644
 Sum of Mulliken charges =   0.00000   1.00000

 Dipole moment (field-independent basis, Debye):
    X=              0.0546    Y=              0.0000    Z=              0.0000  Tot=              0.0546
 Quadrupole moment (field-independent basis, Debye-Ang):
   XX=             -6.0640   YY=             -6.1588   ZZ=             -6.1589
   XY=              0.0000   XZ=              0.0000   YZ=              0.4320

  Exact polarizability:       5.548      -0.000       2.032      -0.000       0.232       2.032
 Approx polarizability:       5.846      -0.000       2.172      -0.000       0.290       2.172

 ******    2 imaginary frequencies (negative Signs) ******

                      1                      2                      3
                      A                      A                      A
 Frequencies --  -4829.4036             -4829.2648                41.7194
 Red. masses --      1.0083                 1.0083                 1.1085
 Frc consts  --     13.8554                13.8547                 0.0011
 IR Inten    --      0.0161                 0.0154                 0.1280

                      4
                      A
 Frequencies --   9960.5661
 Red. masses --      1.0078
 Frc consts  --     58.9119
 IR Inten    --      0.0738

 - Thermochemistry -
 -------------------
 Temperature   298.150 Kelvin.  Pressure   1.00000 Atm.
 Atom     1 has atomic number  1 and mass   1.00783

 Molecular mass:    21.01405 amu.
 Principal axes and moments of inertia in atomic units:
                           1         2         3
     Eigenvalues --     0.00000  89.53878  89.53878
           X            1.00000  -0.00000   0.00000
           Y            0.00000   1.00000   0.00000
           Z            0.00000   0.00000   1.00000
 This molecule is a prolate symmetric top.
 Rotational symmetry number  1.
 Rotational temperature (Kelvin)      0.96733
 Rotational constant (GHZ):          20.155974
    2 imaginary frequencies ignored.
 Zero-point vibrational energy      59827.0 (Joules/Mol)
                                   14.29899 (Kcal/Mol)
 Warning -- explicit consideration of   1 degrees of freedom as
           vibrations may cause significant error
 Vibrational temperatures:     60.02 14331.03
          (Kelvin)

 Zero-point correction=                           0.022787 (Hartree/Particle)
 Thermal correction to Energy=                    0.026000
 Thermal correction to Enthalpy=                  0.026944
 Thermal correction to Gibbs Free Energy=         0.000813
 Sum of electronic and zero-point Energies=           -100.839048
 Sum of electronic and thermal Energies=              -100.835835
 Sum of electronic and thermal Enthalpies=            -100.834891
 Sum of electronic and thermal Free Energies=         -100.861022

                     E (Thermal)             CV                S
                      KCal/Mol        Cal/Mol-Kelvin    Cal/Mol-Kelvin
 Total                   16.315              6.949             54.997
 Electronic               0.000              0.000              1.377
 Translational            0.889              2.981             35.068
 Rotational               0.592              1.987             13.375
 Vibrational             14.834              1.981              5.176
 Vibration     1          0.594              1.981              5.176

 Normal termination of Gaussian 16 at Fri Aug 22 21:19:28 2025.
