 Gaussian 16, Revision C.01,
 Gaussian 16:  ES64L-G16RevC.01  3-Jul-2019

 -----------------------------------------
 # sp b3lyp/6-311g** Force nosymm scf=(qc)
 -----------------------------------------

 -------------------
 Title Card Required
 -------------------
 Symbolic Z-matrix:
 Charge =  0 Multiplicity = 2

                          Input orientation:
 ---------------------------------------------------------------------
 Center     Atomic      Atomic             Coordinates (Angstroms)
 Number     Number       Type             X           Y           Z
 ---------------------------------------------------------------------
      1          1           0        0.000000    0.000000    0.000000
      2          1           0       -1.700000    0.000000    0.000000
      3          9           0        2.300000    0.000000    0.000000
 ---------------------------------------------------------------------

 SCF Done:  E(UB3LYP) =  -100.805010876     a.u. after   18 cycles

 Alpha  occ. eigenvalues --  -24.71162  -1.17407  -0.50326  -0.42223  -0.42223
 Alpha  occ. eigenvalues --   -0.36178
 Alpha virt. eigenvalues --   -0.12368   0.23816   0.31238   0.87212   0.93820
 Alpha virt. eigenvalues --    0.93820   1.02990   1.19598   1.20654   1.20654
 Alpha virt. eigenvalues --    1.35349   1.35349   1.65715   2.14253   2.39628

  Beta  occ. eigenvalues --  -24.68394  -1.09553  -0.39470  -0.39470  -0.35889
  Beta virt. eigenvalues --   -0.23568  -0.11455   0.25993   0.30645   0.92045
  Beta virt. eigenvalues --    0.95099   0.95099   1.06613   1.21559   1.21559
  Beta virt. eigenvalues --    1.23832   1.36157   1.36157   1.66349   2.15136

 Mulliken charges and spin densities:
               1          2
     1  H    0.058190  -0.557852
     2  H    0.047013   0.684867
     3  F   -0.105203   0.872985
 Sum of Mulliken charges =   0.00000   1.00000

 Dipole moment (field-independent basis, Debye):
    X=             -1.6052    Y=             -0.0000    Z=             -0.0000  Tot=              1.6052
 Quadrupole moment (field-independent basis, Debye-Ang):
   XX=             -7.7991   YY=             -7.6428   ZZ=             -7.6428
   XY=              0.0000   XZ=             -0.0000   YZ=             -0.0000

  Exact polarizability:      60.090       0.000       2.037       0.000       0.000       2.037
 Approx polarizability:      79.007      -0.000       1.979      -0.000       0.000       1.979

 ******    2 imaginary frequencies (negative Signs) ******

                      1                      2                      3
                      A                      A                      A
 Frequencies --  -1930.2218              -437.9221               867.1299
 Red. masses --      1.0092                 1.1069                 1.0147
 Frc consts  --      2.2153                 0.1251                 0.4495
 IR Inten    --    300.9153                46.9999                 1.0664

                      4
                      A
 Frequencies --    867.1299
 Red. masses --      1.0147
 Frc consts  --      0.4495
 IR Inten    --      1.0664

 - Thermochemistry -
 -------------------
 Temperature   298.150 Kelvin.  Pressure   1.00000 Atm.
 Atom     1 has atomic number  1 and mass   1.00783

 Molecular mass:    21.01405 amu.
 Principal axes and moments of inertia in atomic units:
                           1         2         3
     Eigenvalues --     0.00000  69.77212  69.77212
           X            1.00000  -0.00000   0.00000
           Y            0.00000   1.00000   0.00000
           Z            0.00000   0.00000   1.00000
 This molecule is a prolate symmetric top.
 Rotational symmetry number  1.
 Rotational temperature (Kelvin)      1.24138
 Rotational constant (GHZ):          25.866222
    2 imaginary frequencies ignored.
 Zero-point vibrational energy      10373.2 (Joules/Mol)
                                    2.47925 (Kcal/Mol)
 Vibrational temperatures:   1247.61  1247.61
          (Kelvin)

 Zero-point correction=                           0.003951 (Hartree/Particle)
 Thermal correction to Energy=                    0.006434
 Thermal correction to Enthalpy=                  0.007378
 Thermal correction to Gibbs Free Energy=        -0.016209
 Sum of electronic and zero-point Energies=           -100.801060
 Sum of electronic and thermal Energies=              -100.798577
 Sum of electronic and thermal Enthalpies=            -100.797633
 Sum of electronic and thermal Free Energies=         -100.821220

                     E (Thermal)             CV                S
                      KCal/Mol        Cal/Mol-Kelvin    Cal/Mol-Kelvin
 Total                    4.037              6.061             49.643
 Electronic               0.000              0.000              1.377
 Translational            0.889              2.981             35.068
 Rotational               0.592              1.987             12.880
 Vibrational              2.556              1.093              0.318

 Normal termination of Gaussian 16 at Fri Aug 22 17:21:35 2025.
