 Gaussian 16, Revision C.01,
 Gaussian 16:  ES64L-G16RevC.01  3-Jul-2019

 -----------------------------------------
 # sp b3lyp/6-311g** Force nosymm scf=(qc)
 -----------------------------------------

 -------------------
 Title Card Required
 -------------------
 Symbolic Z-matrix:
 Charge =  0 Multiplicity = 2

                          Input orientation:
 ---------------------------------------------------------------------
 Center     Atomic      Atomic             Coordinates (Angstroms)
 Number     Number       Type             X           Y           Z
 ---------------------------------------------------------------------
      1          1           0        0.000000    0.000000    0.000000
      2          1           0       -0.550000    0.000000    0.000000
      3          9           0        0.800000    0.000000    0.000000
 ---------------------------------------------------------------------

 SCF Done:  E(UB3LYP) =  -100.759414563     a.u. after    6 cycles

 Alpha  occ. eigenvalues --  -24.68378  -1.31504  -0.71204  -0.45245  -0.45245
 Alpha  occ. eigenvalues --   -0.29320
 Alpha virt. eigenvalues --    0.15998   0.17563   0.77311   0.85466   0.85466
 Alpha virt. eigenvalues --    0.91821   1.11845   1.11845   1.46220   1.68271
 Alpha virt. eigenvalues --    1.92291   1.92291   1.93593   3.07500   3.75722

  Beta  occ. eigenvalues --  -24.66984  -1.27668  -0.65132  -0.44019  -0.44019
  Beta virt. eigenvalues --   -0.11551   0.17863   0.19998   0.81747   0.87424
  Beta virt. eigenvalues --    0.87424   0.94891   1.16228   1.16228   1.48087
  Beta virt. eigenvalues --    1.73732   1.97221   1.97221   1.99001   3.13612

 Mulliken charges and spin densities:
               1          2
     1  H    0.279171  -0.056379
     2  H   -0.133511   0.783419
     3  F   -0.145660   0.272960
 Sum of Mulliken charges =   0.00000   1.00000

 Dipole moment (field-independent basis, Debye):
    X=             -0.7959    Y=              0.0000    Z=             -0.0000  Tot=              0.7959
 Quadrupole moment (field-independent basis, Debye-Ang):
   XX=             -7.4447   YY=             -6.3944   ZZ=             -6.3944
   XY=              0.0000   XZ=             -0.0000   YZ=             -0.0000

  Exact polarizability:       9.747      -0.000       2.475       0.000       0.000       2.475
 Approx polarizability:      10.329       0.000       2.571       0.000       0.000       2.571

 ******    2 imaginary frequencies (negative Signs) ******

                      1                      2                      3
                      A                      A                      A
 Frequencies --  -4900.5636             -4900.5636              4257.2802
 Red. masses --      1.0140                 1.0140                 1.1040
 Frc consts  --     14.3482                14.3482                11.7888
 IR Inten    --     71.0846                71.0846               268.8851

                      4
                      A
 Frequencies --   8998.2018
 Red. masses --      1.0116
 Frc consts  --     48.2587
 IR Inten    --      1.2521

 - Thermochemistry -
 -------------------
 Temperature   298.150 Kelvin.  Pressure   1.00000 Atm.
 Atom     1 has atomic number  1 and mass   1.00783

 Molecular mass:    21.01405 amu.
 Principal axes and moments of inertia in atomic units:
                           1         2         3
     Eigenvalues --     0.00000   8.06468   8.06468
           X            1.00000  -0.00000   0.00000
           Y            0.00000   1.00000   0.00000
           Z            0.00000   0.00000   1.00000
 This molecule is a prolate symmetric top.
 Rotational symmetry number  1.
 Rotational temperature (Kelvin)     10.73990
 Rotational constant (GHZ):         223.783277
    2 imaginary frequencies ignored.
 Zero-point vibrational energy      79285.4 (Joules/Mol)
                                   18.94966 (Kcal/Mol)
 Vibrational temperatures:   6125.28 12946.41
          (Kelvin)

 Zero-point correction=                           0.030198 (Hartree/Particle)
 Thermal correction to Energy=                    0.032559
 Thermal correction to Enthalpy=                  0.033503
 Thermal correction to Gibbs Free Energy=         0.012104
 Sum of electronic and zero-point Energies=           -100.729216
 Sum of electronic and thermal Energies=              -100.726856
 Sum of electronic and thermal Enthalpies=            -100.725912
 Sum of electronic and thermal Free Energies=         -100.747310

                     E (Thermal)             CV                S
                      KCal/Mol        Cal/Mol-Kelvin    Cal/Mol-Kelvin
 Total                   20.431              4.968             45.037
 Electronic               0.000              0.000              1.377
 Translational            0.889              2.981             35.068
 Rotational               0.592              1.987              8.592
 Vibrational             18.950              0.000              0.000

 Normal termination of Gaussian 16 at Fri Aug 22 15:50:05 2025.
