 Gaussian 16, Revision C.01,
 Gaussian 16:  ES64L-G16RevC.01  3-Jul-2019

 -----------------------------------------
 # sp b3lyp/6-311g** Force nosymm scf=(qc)
 -----------------------------------------

 -------------------
 Title Card Required
 -------------------
 Symbolic Z-matrix:
 Charge =  0 Multiplicity = 2

                          Input orientation:
 ---------------------------------------------------------------------
 Center     Atomic      Atomic             Coordinates (Angstroms)
 Number     Number       Type             X           Y           Z
 ---------------------------------------------------------------------
      1          1           0        0.000000    0.000000    0.000000
      2          1           0       -3.150000    0.000000    0.000000
      3          9           0        1.850000    0.000000    0.000000
 ---------------------------------------------------------------------

 SCF Done:  E(UB3LYP) =  -100.798996497     a.u. after   20 cycles

 Alpha  occ. eigenvalues --  -24.64803  -1.07457  -0.39000  -0.36569  -0.36569
 Alpha  occ. eigenvalues --   -0.33849
 Alpha virt. eigenvalues --   -0.19553   0.20107   0.27407   0.92428   0.95102
 Alpha virt. eigenvalues --    0.95102   1.08161   1.23167   1.23167   1.23565
 Alpha virt. eigenvalues --    1.23565   1.23881   1.62284   2.12523   2.14125

  Beta  occ. eigenvalues --  -24.66833  -1.13071  -0.45662  -0.38555  -0.38555
  Beta virt. eigenvalues --   -0.15183  -0.05573   0.27824   0.38868   0.91778
  Beta virt. eigenvalues --    0.94948   0.94948   1.06055   1.34060   1.34060
  Beta virt. eigenvalues --    1.46494   1.46494   1.46712   1.67821   2.27031

 Mulliken charges and spin densities:
               1          2
     1  H    0.239570   0.642001
     2  H    0.003847   0.996291
     3  F   -0.243417  -0.638293
 Sum of Mulliken charges =   0.00000   1.00000

 Dipole moment (field-independent basis, Debye):
    X=             -2.2635    Y=              0.0000    Z=             -0.0000  Tot=              2.2635
 Quadrupole moment (field-independent basis, Debye-Ang):
   XX=            -10.1439   YY=             -7.4430   ZZ=             -7.4430
   XY=              0.0000   XZ=             -0.0000   YZ=             -0.0000

  Exact polarizability:      26.528       0.000       2.087      -0.000       0.000       2.087
 Approx polarizability:      39.629       0.000       1.977      -0.000       0.000       1.977

 ******    1 imaginary frequencies (negative Signs) ******

                      1                      2                      3
                      A                      A                      A
 Frequencies --  -1399.5289                64.2634               600.8372
 Red. masses --      1.0593                 1.0523                 1.0255
 Frc consts  --      1.2224                 0.0026                 0.2181
 IR Inten    --    113.8127                 1.5871                52.2023

                      4
                      A
 Frequencies --    600.8372
 Red. masses --      1.0255
 Frc consts  --      0.2181
 IR Inten    --     52.2023

 - Thermochemistry -
 -------------------
 Temperature   298.150 Kelvin.  Pressure   1.00000 Atm.
 Atom     1 has atomic number  1 and mass   1.00783

 Molecular mass:    21.01405 amu.
 Principal axes and moments of inertia in atomic units:
                           1         2         3
     Eigenvalues --     0.00000  94.19367  94.19367
           X            1.00000  -0.00000   0.00000
           Y            0.00000   1.00000   0.00000
           Z            0.00000   0.00000   1.00000
 This molecule is a prolate symmetric top.
 Rotational symmetry number  1.
 Rotational temperature (Kelvin)      0.91953
 Rotational constant (GHZ):          19.159899
    1 imaginary frequencies ignored.
 Zero-point vibrational energy       7572.0 (Joules/Mol)
                                    1.80975 (Kcal/Mol)
 Warning -- explicit consideration of   3 degrees of freedom as
           vibrations may cause significant error
 Vibrational temperatures:     92.46   864.47   864.47
          (Kelvin)

 Zero-point correction=                           0.002884 (Hartree/Particle)
 Thermal correction to Energy=                    0.006369
 Thermal correction to Enthalpy=                  0.007313
 Thermal correction to Gibbs Free Energy=        -0.018886
 Sum of electronic and zero-point Energies=           -100.796112
 Sum of electronic and thermal Energies=              -100.792628
 Sum of electronic and thermal Enthalpies=            -100.791684
 Sum of electronic and thermal Free Energies=         -100.817882

                     E (Thermal)             CV                S
                      KCal/Mol        Cal/Mol-Kelvin    Cal/Mol-Kelvin
 Total                    3.996              8.999             55.140
 Electronic               0.000              0.000              1.377
 Translational            0.889              2.981             35.068
 Rotational               0.592              1.987             13.476
 Vibrational              2.515              4.031              5.218
 Vibration     1          0.597              1.971              4.322
 Vibration     2          0.959              1.030              0.448
 Vibration     3          0.959              1.030              0.448

 Normal termination of Gaussian 16 at Fri Aug 22 16:47:52 2025.
