 Gaussian 16, Revision C.01,
 Gaussian 16:  ES64L-G16RevC.01  3-Jul-2019

 -----------------------------------------
 # sp b3lyp/6-311g** Force nosymm scf=(qc)
 -----------------------------------------

 -------------------
 Title Card Required
 -------------------
 Symbolic Z-matrix:
 Charge =  0 Multiplicity = 2

                          Input orientation:
 ---------------------------------------------------------------------
 Center     Atomic      Atomic             Coordinates (Angstroms)
 Number     Number       Type             X           Y           Z
 ---------------------------------------------------------------------
      1          1           0        0.000000    0.000000    0.000000
      2          1           0       -2.900000    0.000000    0.000000
      3          9           0        3.700000    0.000000    0.000000
 ---------------------------------------------------------------------

 SCF Done:  E(UB3LYP) =  -100.760045499     a.u. after   29 cycles

 Alpha  occ. eigenvalues --  -24.75677  -1.21619  -0.54801  -0.46012  -0.46012
 Alpha  occ. eigenvalues --   -0.32417
 Alpha virt. eigenvalues --   -0.08108   0.25180   0.35917   0.87062   0.91298
 Alpha virt. eigenvalues --    0.91298   1.01392   1.25132   1.25132   1.26039
 Alpha virt. eigenvalues --    1.43762   1.43762   1.43882   2.15892   2.39144

  Beta  occ. eigenvalues --  -24.72545  -1.12615  -0.42872  -0.42872  -0.32697
  Beta virt. eigenvalues --   -0.25636  -0.07748   0.24979   0.36456   0.92792
  Beta virt. eigenvalues --    0.92792   0.96330   1.05474   1.24815   1.24815
  Beta virt. eigenvalues --    1.25690   1.44319   1.44319   1.44438   2.16072

 Mulliken charges and spin densities:
               1          2
     1  H    0.005653  -0.983151
     2  H    0.000572   0.990089
     3  F   -0.006225   0.993062
 Sum of Mulliken charges =  -0.00000   1.00000

 Dipole moment (field-independent basis, Debye):
    X=             -0.1265    Y=             -0.0000    Z=              0.0000  Tot=              0.1265
 Quadrupole moment (field-independent basis, Debye-Ang):
   XX=             -7.0415   YY=             -7.6400   ZZ=             -7.6400
   XY=             -0.0000   XZ=              0.0000   YZ=              0.0000

  Exact polarizability:      21.397       0.000       2.024      -0.000       0.000       2.024
 Approx polarizability:      15.857      -0.000       1.932       0.000      -0.000       1.932

 ******    2 imaginary frequencies (negative Signs) ******

                      1                      2                      3
                      A                      A                      A
 Frequencies --   -389.9418              -107.1084               138.7920
 Red. masses --      1.0085                 1.1076                 1.0153
 Frc consts  --      0.0904                 0.0075                 0.0115
 IR Inten    --      2.9023                 2.3574                 0.0286

                      4
                      A
 Frequencies --    138.7920
 Red. masses --      1.0153
 Frc consts  --      0.0115
 IR Inten    --      0.0286

 - Thermochemistry -
 -------------------
 Temperature   298.150 Kelvin.  Pressure   1.00000 Atm.
 Atom     1 has atomic number  1 and mass   1.00783

 Molecular mass:    21.01405 amu.
 Principal axes and moments of inertia in atomic units:
                           1         2         3
     Eigenvalues --     0.00000 187.73137 187.73137
           X            1.00000  -0.00000   0.00000
           Y            0.00000   1.00000   0.00000
           Z            0.00000   0.00000   1.00000
 This molecule is a prolate symmetric top.
 Rotational symmetry number  1.
 Rotational temperature (Kelvin)      0.46137
 Rotational constant (GHZ):           9.613424
    2 imaginary frequencies ignored.
 Zero-point vibrational energy       1660.3 (Joules/Mol)
                                    0.39683 (Kcal/Mol)
 Warning -- explicit consideration of   2 degrees of freedom as
           vibrations may cause significant error
 Vibrational temperatures:    199.69   199.69
          (Kelvin)

 Zero-point correction=                           0.000632 (Hartree/Particle)
 Thermal correction to Energy=                    0.004319
 Thermal correction to Enthalpy=                  0.005263
 Thermal correction to Gibbs Free Energy=        -0.021788
 Sum of electronic and zero-point Energies=           -100.759413
 Sum of electronic and thermal Energies=              -100.755727
 Sum of electronic and thermal Enthalpies=            -100.754782
 Sum of electronic and thermal Free Energies=         -100.781833

                     E (Thermal)             CV                S
                      KCal/Mol        Cal/Mol-Kelvin    Cal/Mol-Kelvin
 Total                    2.710              8.797             56.933
 Electronic               0.000              0.000              1.377
 Translational            0.889              2.981             35.068
 Rotational               0.592              1.987             14.847
 Vibrational              1.229              3.829              5.641
 Vibration     1          0.614              1.915              2.820
 Vibration     2          0.614              1.915              2.820

 Normal termination of Gaussian 16 at Sat Aug 23 00:03:59 2025.
