 Gaussian 16, Revision C.01,
 Gaussian 16:  ES64L-G16RevC.01  3-Jul-2019

 -----------------------------------------
 # sp b3lyp/6-311g** Force nosymm scf=(qc)
 -----------------------------------------

 -------------------
 Title Card Required
 -------------------
 Symbolic Z-matrix:
 Charge =  0 Multiplicity = 2

                          Input orientation:
 ---------------------------------------------------------------------
 Center     Atomic      Atomic             Coordinates (Angstroms)
 Number     Number       Type             X           Y           Z
 ---------------------------------------------------------------------
      1          1           0        0.000000    0.000000    0.000000
      2          1           0       -3.000000    0.000000    0.000000
      3          9           0        2.050000    0.000000    0.000000
 ---------------------------------------------------------------------

 SCF Done:  E(UB3LYP) =  -100.783403779     a.u. after   25 cycles

 Alpha  occ. eigenvalues --  -24.65929  -1.07895  -0.37768  -0.37474  -0.37474
 Alpha  occ. eigenvalues --   -0.33552
 Alpha virt. eigenvalues --   -0.20912   0.21013   0.27548   0.90771   0.95730
 Alpha virt. eigenvalues --    0.95730   1.08441   1.21761   1.21761   1.23726
 Alpha virt. eigenvalues --    1.23726   1.24294   1.50612   2.12567   2.14463

  Beta  occ. eigenvalues --  -24.68355  -1.14694  -0.47350  -0.39869  -0.39869
  Beta virt. eigenvalues --   -0.13994  -0.05047   0.30523   0.39185   0.89123
  Beta virt. eigenvalues --    0.94973   0.94973   1.06288   1.35961   1.35961
  Beta virt. eigenvalues --    1.46948   1.46948   1.47381   1.58493   2.30821

 Mulliken charges and spin densities:
               1          2
     1  H    0.180209   0.767892
     2  H    0.004801   0.995337
     3  F   -0.185010  -0.763229
 Sum of Mulliken charges =   0.00000   1.00000

 Dipole moment (field-independent basis, Debye):
    X=             -1.9507    Y=              0.0000    Z=              0.0000  Tot=              1.9507
 Quadrupole moment (field-independent basis, Debye-Ang):
   XX=            -10.0026   YY=             -7.4857   ZZ=             -7.4857
   XY=             -0.0000   XZ=             -0.0000   YZ=              0.0000

  Exact polarizability:      31.127      -0.000       2.055      -0.000      -0.000       2.055
 Approx polarizability:      43.541      -0.000       1.944      -0.000      -0.000       1.944

 ******    1 imaginary frequencies (negative Signs) ******

                      1                      2                      3
                      A                      A                      A
 Frequencies --  -1034.1870               123.3624               437.1681
 Red. masses --      1.0608                 1.0508                 1.0232
 Frc consts  --      0.6685                 0.0094                 0.1152
 IR Inten    --     89.4908                 2.5165                29.3269

                      4
                      A
 Frequencies --    437.1681
 Red. masses --      1.0232
 Frc consts  --      0.1152
 IR Inten    --     29.3269

 - Thermochemistry -
 -------------------
 Temperature   298.150 Kelvin.  Pressure   1.00000 Atm.
 Atom     1 has atomic number  1 and mass   1.00783

 Molecular mass:    21.01405 amu.
 Principal axes and moments of inertia in atomic units:
                           1         2         3
     Eigenvalues --     0.00000  98.20743  98.20743
           X            1.00000  -0.00000   0.00000
           Y            0.00000   1.00000   0.00000
           Z            0.00000   0.00000   1.00000
 This molecule is a prolate symmetric top.
 Rotational symmetry number  1.
 Rotational temperature (Kelvin)      0.88195
 Rotational constant (GHZ):          18.376829
    1 imaginary frequencies ignored.
 Zero-point vibrational energy       5967.6 (Joules/Mol)
                                    1.42628 (Kcal/Mol)
 Warning -- explicit consideration of   3 degrees of freedom as
           vibrations may cause significant error
 Vibrational temperatures:    177.49   628.99   628.99
          (Kelvin)

 Zero-point correction=                           0.002273 (Hartree/Particle)
 Thermal correction to Energy=                    0.005874
 Thermal correction to Enthalpy=                  0.006818
 Thermal correction to Gibbs Free Energy=        -0.019182
 Sum of electronic and zero-point Energies=           -100.781131
 Sum of electronic and thermal Energies=              -100.777530
 Sum of electronic and thermal Enthalpies=            -100.776585
 Sum of electronic and thermal Free Energies=         -100.802586

                     E (Thermal)             CV                S
                      KCal/Mol        Cal/Mol-Kelvin    Cal/Mol-Kelvin
 Total                    3.686              9.676             54.723
 Electronic               0.000              0.000              1.377
 Translational            0.889              2.981             35.068
 Rotational               0.592              1.987             13.559
 Vibrational              2.205              4.708              4.718
 Vibration     1          0.610              1.930              3.047
 Vibration     2          0.797              1.389              0.836
 Vibration     3          0.797              1.389              0.836

 Normal termination of Gaussian 16 at Fri Aug 22 17:01:11 2025.
