 Gaussian 16, Revision C.01,
 Gaussian 16:  ES64L-G16RevC.01  3-Jul-2019

 -----------------------------------------
 # sp b3lyp/6-311g** Force nosymm scf=(qc)
 -----------------------------------------

 -------------------
 Title Card Required
 -------------------
 Symbolic Z-matrix:
 Charge =  0 Multiplicity = 2

                          Input orientation:
 ---------------------------------------------------------------------
 Center     Atomic      Atomic             Coordinates (Angstroms)
 Number     Number       Type             X           Y           Z
 ---------------------------------------------------------------------
      1          1           0        0.000000    0.000000    0.000000
      2          1           0       -0.700000    0.000000    0.000000
      3          9           0        1.350000    0.000000    0.000000
 ---------------------------------------------------------------------

 SCF Done:  E(UB3LYP) =  -100.934392031     a.u. after    6 cycles

 Alpha  occ. eigenvalues --  -24.69935  -1.17854  -0.58463  -0.42087  -0.42087
 Alpha  occ. eigenvalues --   -0.41344
 Alpha virt. eigenvalues --    0.10751   0.19383   0.47216   0.88035   0.88035
 Alpha virt. eigenvalues --    0.96811   1.09584   1.09584   1.40500   1.63623
 Alpha virt. eigenvalues --    1.83417   1.83417   1.94101   2.41398   3.25953

  Beta  occ. eigenvalues --  -24.67474  -1.11259  -0.50166  -0.39735  -0.39735
  Beta virt. eigenvalues --   -0.22135   0.12134   0.20310   0.50396   0.89308
  Beta virt. eigenvalues --    0.89308   1.02262   1.12388   1.12388   1.44337
  Beta virt. eigenvalues --    1.67275   1.85268   1.85268   1.95022   2.45547

 Mulliken charges and spin densities:
               1          2
     1  H    0.187552  -0.034782
     2  H   -0.001553   0.312000
     3  F   -0.186000   0.722781
 Sum of Mulliken charges =   0.00000   1.00000

 Dipole moment (field-independent basis, Debye):
    X=             -1.2947    Y=              0.0000    Z=             -0.0000  Tot=              1.2947
 Quadrupole moment (field-independent basis, Debye-Ang):
   XX=             -7.0410   YY=             -6.6676   ZZ=             -6.6676
   XY=              0.0000   XZ=              0.0000   YZ=              0.0000

  Exact polarizability:      17.737      -0.000       2.369       0.000       0.000       2.369
 Approx polarizability:      22.678       0.000       2.410       0.000       0.000       2.410

 ******    2 imaginary frequencies (negative Signs) ******

                      1                      2                      3
                      A                      A                      A
 Frequencies --  -1667.6020             -1667.6020               316.8883
 Red. masses --      1.0119                 1.0119                 1.1078
 Frc consts  --      1.6580                 1.6580                 0.0655
 IR Inten    --      2.6396                 2.6396                78.6046

                      4
                      A
 Frequencies --   4659.7480
 Red. masses --      1.0084
 Frc consts  --     12.9003
 IR Inten    --    619.4106

 - Thermochemistry -
 -------------------
 Temperature   298.150 Kelvin.  Pressure   1.00000 Atm.
 Atom     1 has atomic number  1 and mass   1.00783

 Molecular mass:    21.01405 amu.
 Principal axes and moments of inertia in atomic units:
                           1         2         3
     Eigenvalues --     0.00000  19.68869  19.68869
           X            1.00000  -0.00000   0.00000
           Y            0.00000   1.00000   0.00000
           Z            0.00000   0.00000   1.00000
 This molecule is a prolate symmetric top.
 Rotational symmetry number  1.
 Rotational temperature (Kelvin)      4.39917
 Rotational constant (GHZ):          91.663851
    2 imaginary frequencies ignored.
 Zero-point vibrational energy      29766.9 (Joules/Mol)
                                    7.11446 (Kcal/Mol)
 Warning -- explicit consideration of   1 degrees of freedom as
           vibrations may cause significant error
 Vibrational temperatures:    455.93  6704.34
          (Kelvin)

 Zero-point correction=                           0.011338 (Hartree/Particle)
 Thermal correction to Energy=                    0.014098
 Thermal correction to Enthalpy=                  0.015042
 Thermal correction to Gibbs Free Energy=        -0.007830
 Sum of electronic and zero-point Energies=           -100.923054
 Sum of electronic and thermal Energies=              -100.920294
 Sum of electronic and thermal Enthalpies=            -100.919350
 Sum of electronic and thermal Free Energies=         -100.942222

                     E (Thermal)             CV                S
                      KCal/Mol        Cal/Mol-Kelvin    Cal/Mol-Kelvin
 Total                    8.846              6.609             48.137
 Electronic               0.000              0.000              1.377
 Translational            0.889              2.981             35.068
 Rotational               0.592              1.987             10.366
 Vibrational              7.365              1.641              1.326
 Vibration     1          0.704              1.641              1.326

 Normal termination of Gaussian 16 at Fri Aug 22 16:16:34 2025.
