 Gaussian 16, Revision C.01,
 Gaussian 16:  ES64L-G16RevC.01  3-Jul-2019

 -----------------------------------------
 # sp b3lyp/6-311g** Force nosymm scf=(qc)
 -----------------------------------------

 -------------------
 Title Card Required
 -------------------
 Symbolic Z-matrix:
 Charge =  0 Multiplicity = 2

                          Input orientation:
 ---------------------------------------------------------------------
 Center     Atomic      Atomic             Coordinates (Angstroms)
 Number     Number       Type             X           Y           Z
 ---------------------------------------------------------------------
      1          1           0        0.000000    0.000000    0.000000
      2          1           0       -1.600000    0.000000    0.000000
      3          9           0        3.850000    0.000000    0.000000
 ---------------------------------------------------------------------

 SCF Done:  E(UB3LYP) =  -100.805970467     a.u. after   74 cycles

 Alpha  occ. eigenvalues --  -24.76228  -1.22129  -0.55332  -0.46507  -0.46488
 Alpha  occ. eigenvalues --   -0.33285
 Alpha virt. eigenvalues --   -0.10269   0.25405   0.30595   0.86036   0.90913
 Alpha virt. eigenvalues --    0.91378   1.00909   1.06684   1.22389   1.22390
 Alpha virt. eigenvalues --    1.39490   1.39493   1.74477   2.19363   2.43741

  Beta  occ. eigenvalues --  -24.73074  -1.13056  -0.43347  -0.43325  -0.33280
  Beta virt. eigenvalues --   -0.25982  -0.10291   0.25394   0.30623   0.92414
  Beta virt. eigenvalues --    0.92850   0.95503   1.05042   1.06686   1.22384
  Beta virt. eigenvalues --    1.22386   1.39484   1.39486   1.74492   2.19446

 Mulliken charges and spin densities:
               1          2
     1  H    0.000942  -0.452617
     2  H   -0.001936   0.452576
     3  F    0.000994   1.000041
 Sum of Mulliken charges =   0.00000   1.00000

 Dipole moment (field-independent basis, Debye):
    X=              0.0259    Y=              0.0000    Z=             -0.0000  Tot=              0.0259
 Quadrupole moment (field-independent basis, Debye-Ang):
   XX=             -6.4578   YY=             -7.6140   ZZ=             -7.0600
   XY=              0.0000   XZ=             -0.0001   YZ=             -0.3319

  Exact polarizability:      23.459       0.000       2.110      -0.000      -0.177       2.407
 Approx polarizability:      41.079       0.000       2.109      -0.000      -0.224       2.482

 ******    2 imaginary frequencies (negative Signs) ******

                      1                      2                      3
                      A                      A                      A
 Frequencies --  -2062.5283               -50.9157              1057.9994
 Red. masses --      1.0078                 1.1085                 1.0107
 Frc consts  --      2.5260                 0.0017                 0.6666
 IR Inten    --      0.0135                 0.0529                 0.0017

                      4
                      A
 Frequencies --   1059.5399
 Red. masses --      1.0107
 Frc consts  --      0.6685
 IR Inten    --      0.0003

 - Thermochemistry -
 -------------------
 Temperature   298.150 Kelvin.  Pressure   1.00000 Atm.
 Atom     1 has atomic number  1 and mass   1.00783

 Molecular mass:    21.01405 amu.
 Principal axes and moments of inertia in atomic units:
                           1         2         3
     Eigenvalues --     0.00000 145.31708 145.31708
           X            1.00000  -0.00000   0.00000
           Y            0.00000   1.00000   0.00000
           Z            0.00000   0.00000   1.00000
 This molecule is a prolate symmetric top.
 Rotational symmetry number  1.
 Rotational temperature (Kelvin)      0.59603
 Rotational constant (GHZ):          12.419333
    2 imaginary frequencies ignored.
 Zero-point vibrational energy      12665.7 (Joules/Mol)
                                    3.02717 (Kcal/Mol)
 Vibrational temperatures:   1522.23  1524.44
          (Kelvin)

 Zero-point correction=                           0.004824 (Hartree/Particle)
 Thermal correction to Energy=                    0.007243
 Thermal correction to Enthalpy=                  0.008187
 Thermal correction to Gibbs Free Energy=        -0.016011
 Sum of electronic and zero-point Energies=           -100.801146
 Sum of electronic and thermal Energies=              -100.798727
 Sum of electronic and thermal Enthalpies=            -100.797783
 Sum of electronic and thermal Free Energies=         -100.821982

                     E (Thermal)             CV                S
                      KCal/Mol        Cal/Mol-Kelvin    Cal/Mol-Kelvin
 Total                    4.545              5.602             50.931
 Electronic               0.000              0.000              1.377
 Translational            0.889              2.981             35.068
 Rotational               0.592              1.987             14.338
 Vibrational              3.064              0.634              0.147

 Normal termination of Gaussian 16 at Sat Aug 23 01:03:27 2025.
