 Gaussian 16, Revision C.01,
 Gaussian 16:  ES64L-G16RevC.01  3-Jul-2019

 -----------------------------------------
 # sp b3lyp/6-311g** Force nosymm scf=(qc)
 -----------------------------------------

 -------------------
 Title Card Required
 -------------------
 Symbolic Z-matrix:
 Charge =  0 Multiplicity = 2

                          Input orientation:
 ---------------------------------------------------------------------
 Center     Atomic      Atomic             Coordinates (Angstroms)
 Number     Number       Type             X           Y           Z
 ---------------------------------------------------------------------
      1          1           0        0.000000    0.000000    0.000000
      2          1           0       -2.750000    0.000000    0.000000
      3          9           0        0.850000    0.000000    0.000000
 ---------------------------------------------------------------------

 SCF Done:  E(UB3LYP) =  -100.965678033     a.u. after    6 cycles

 Alpha  occ. eigenvalues --  -24.63811  -1.20862  -0.54990  -0.40093  -0.40093
 Alpha  occ. eigenvalues --   -0.34351
 Alpha virt. eigenvalues --    0.04912   0.25386   0.42483   0.94377   0.94377
 Alpha virt. eigenvalues --    0.97367   1.20983   1.23190   1.23190   1.35669
 Alpha virt. eigenvalues --    1.38401   1.38401   2.03637   2.14409   2.43000

  Beta  occ. eigenvalues --  -24.63804  -1.20843  -0.54964  -0.40087  -0.40087
  Beta virt. eigenvalues --   -0.07848   0.06266   0.38054   0.42886   0.94378
  Beta virt. eigenvalues --    0.94378   0.97381   1.29978   1.38395   1.38395
  Beta virt. eigenvalues --    1.47594   1.47594   1.51421   2.03701   2.41465

 Mulliken charges and spin densities:
               1          2
     1  H    0.281683   0.002286
     2  H    0.003515   0.995050
     3  F   -0.285198   0.002664
 Sum of Mulliken charges =   0.00000   1.00000

 Dipole moment (field-independent basis, Debye):
    X=             -1.8576    Y=             -0.0000    Z=             -0.0000  Tot=              1.8576
 Quadrupole moment (field-independent basis, Debye-Ang):
   XX=             -7.6157   YY=             -6.8169   ZZ=             -6.8169
   XY=             -0.0000   XZ=             -0.0000   YZ=              0.0000

  Exact polarizability:       6.280      -0.000       2.454      -0.000      -0.000       2.454
 Approx polarizability:       6.835       0.000       2.436       0.000      -0.000       2.436

 ******    3 imaginary frequencies (negative Signs) ******

                      1                      2                      3
                      A                      A                      A
 Frequencies --  -1316.6924             -1316.6924               -44.1625
 Red. masses --      1.0358                 1.0358                 1.0532
 Frc consts  --      1.0580                 1.0580                 0.0012
 IR Inten    --    179.6580               179.6580                 0.2810

                      4
                      A
 Frequencies --   5309.1768
 Red. masses --      1.0584
 Frc consts  --     17.5766
 IR Inten    --    118.1362

 - Thermochemistry -
 -------------------
 Temperature   298.150 Kelvin.  Pressure   1.00000 Atm.
 Atom     1 has atomic number  1 and mass   1.00783

 Molecular mass:    21.01405 amu.
 Principal axes and moments of inertia in atomic units:
                           1         2         3
     Eigenvalues --     0.00000  45.82539  45.82539
           X            1.00000  -0.00000   0.00000
           Y            0.00000   1.00000   0.00000
           Z            0.00000   0.00000   1.00000
 This molecule is a prolate symmetric top.
 Rotational symmetry number  1.
 Rotational temperature (Kelvin)      1.89009
 Rotational constant (GHZ):          39.383001
    3 imaginary frequencies ignored.
 Zero-point vibrational energy      31755.9 (Joules/Mol)
                                    7.58985 (Kcal/Mol)
 Vibrational temperatures:   7638.72
          (Kelvin)

 Zero-point correction=                           0.012095 (Hartree/Particle)
 Thermal correction to Energy=                    0.014456
 Thermal correction to Enthalpy=                  0.015400
 Thermal correction to Gibbs Free Energy=        -0.007639
 Sum of electronic and zero-point Energies=           -100.953583
 Sum of electronic and thermal Energies=              -100.951222
 Sum of electronic and thermal Enthalpies=            -100.950278
 Sum of electronic and thermal Free Energies=         -100.973317

                     E (Thermal)             CV                S
                      KCal/Mol        Cal/Mol-Kelvin    Cal/Mol-Kelvin
 Total                    9.071              4.968             48.490
 Electronic               0.000              0.000              1.377
 Translational            0.889              2.981             35.068
 Rotational               0.592              1.987             12.044
 Vibrational              7.590              0.000              0.000

 Normal termination of Gaussian 16 at Fri Aug 22 15:53:57 2025.
