 Gaussian 16, Revision C.01,
 Gaussian 16:  ES64L-G16RevC.01  3-Jul-2019

 -----------------------------------------
 # sp b3lyp/6-311g** Force nosymm scf=(qc)
 -----------------------------------------

 -------------------
 Title Card Required
 -------------------
 Symbolic Z-matrix:
 Charge =  0 Multiplicity = 2

                          Input orientation:
 ---------------------------------------------------------------------
 Center     Atomic      Atomic             Coordinates (Angstroms)
 Number     Number       Type             X           Y           Z
 ---------------------------------------------------------------------
      1          1           0        0.000000    0.000000    0.000000
      2          1           0       -2.950000    0.000000    0.000000
      3          9           0        2.250000    0.000000    0.000000
 ---------------------------------------------------------------------

 SCF Done:  E(UB3LYP) =  -100.773720550     a.u. after   21 cycles

 Alpha  occ. eigenvalues --  -24.67149  -1.08631  -0.38455  -0.38455  -0.36779
 Alpha  occ. eigenvalues --   -0.33168
 Alpha virt. eigenvalues --   -0.22042   0.21730   0.27646   0.92743   0.95720
 Alpha virt. eigenvalues --    0.95720   1.08621   1.21539   1.21539   1.23979
 Alpha virt. eigenvalues --    1.23979   1.24666   1.39760   2.12819   2.14782

  Beta  occ. eigenvalues --  -24.69799  -1.16117  -0.48863  -0.41085  -0.41085
  Beta virt. eigenvalues --   -0.12656  -0.04603   0.32675   0.39485   0.89189
  Beta virt. eigenvalues --    0.94575   0.94575   1.06750   1.38053   1.38053
  Beta virt. eigenvalues --    1.47514   1.47514   1.47752   1.50820   2.34072

 Mulliken charges and spin densities:
               1          2
     1  H    0.134583   0.839591
     2  H    0.004734   0.995360
     3  F   -0.139317  -0.834951
 Sum of Mulliken charges =  -0.00000   1.00000

 Dipole moment (field-independent basis, Debye):
    X=             -1.6421    Y=             -0.0000    Z=             -0.0000  Tot=              1.6421
 Quadrupole moment (field-independent basis, Debye-Ang):
   XX=             -9.7952   YY=             -7.5195   ZZ=             -7.5195
   XY=             -0.0000   XZ=             -0.0000   YZ=              0.0000

  Exact polarizability:      34.972      -0.000       2.036      -0.000      -0.000       2.036
 Approx polarizability:      46.904      -0.000       1.928      -0.000       0.000       1.928

 ******    1 imaginary frequencies (negative Signs) ******

                      1                      2                      3
                      A                      A                      A
 Frequencies --   -783.8577               156.3009               323.4863
 Red. masses --      1.0636                 1.0481                 1.0215
 Frc consts  --      0.3850                 0.0151                 0.0630
 IR Inten    --     72.1853                 2.4717                16.3394

                      4
                      A
 Frequencies --    323.4863
 Red. masses --      1.0215
 Frc consts  --      0.0630
 IR Inten    --     16.3394

 - Thermochemistry -
 -------------------
 Temperature   298.150 Kelvin.  Pressure   1.00000 Atm.
 Atom     1 has atomic number  1 and mass   1.00783

 Molecular mass:    21.01405 amu.
 Principal axes and moments of inertia in atomic units:
                           1         2         3
     Eigenvalues --     0.00000 105.95706 105.95706
           X            1.00000  -0.00000   0.00000
           Y            0.00000   1.00000   0.00000
           Z            0.00000   0.00000   1.00000
 This molecule is a prolate symmetric top.
 Rotational symmetry number  1.
 Rotational temperature (Kelvin)      0.81744
 Rotational constant (GHZ):          17.032761
    1 imaginary frequencies ignored.
 Zero-point vibrational energy       4804.6 (Joules/Mol)
                                    1.14834 (Kcal/Mol)
 Warning -- explicit consideration of   3 degrees of freedom as
           vibrations may cause significant error
 Vibrational temperatures:    224.88   465.42   465.42
          (Kelvin)

 Zero-point correction=                           0.001830 (Hartree/Particle)
 Thermal correction to Energy=                    0.005606
 Thermal correction to Enthalpy=                  0.006550
 Thermal correction to Gibbs Free Energy=        -0.019741
 Sum of electronic and zero-point Energies=           -100.771891
 Sum of electronic and thermal Energies=              -100.768114
 Sum of electronic and thermal Enthalpies=            -100.767170
 Sum of electronic and thermal Free Energies=         -100.793461

                     E (Thermal)             CV                S
                      KCal/Mol        Cal/Mol-Kelvin    Cal/Mol-Kelvin
 Total                    3.518             10.121             55.334
 Electronic               0.000              0.000              1.377
 Translational            0.889              2.981             35.068
 Rotational               0.592              1.987             13.710
 Vibrational              2.037              5.153              5.179
 Vibration     1          0.620              1.896              2.594
 Vibration     2          0.708              1.628              1.292
 Vibration     3          0.708              1.628              1.292

 Normal termination of Gaussian 16 at Fri Aug 22 17:17:17 2025.
