 Gaussian 16, Revision C.01,
 Gaussian 16:  ES64L-G16RevC.01  3-Jul-2019

 -----------------------------------------
 # sp b3lyp/6-311g** Force nosymm scf=(qc)
 -----------------------------------------

 -------------------
 Title Card Required
 -------------------
 Symbolic Z-matrix:
 Charge =  0 Multiplicity = 2

                          Input orientation:
 ---------------------------------------------------------------------
 Center     Atomic      Atomic             Coordinates (Angstroms)
 Number     Number       Type             X           Y           Z
 ---------------------------------------------------------------------
      1          1           0        0.000000    0.000000    0.000000
      2          1           0       -2.200000    0.000000    0.000000
      3          9           0        4.000000    0.000000    0.000000
 ---------------------------------------------------------------------

 SCF Done:  E(UB3LYP) =  -100.767526349     a.u. after   66 cycles

 Alpha  occ. eigenvalues --  -24.76008  -1.21926  -0.55129  -0.46298  -0.46295
 Alpha  occ. eigenvalues --   -0.32648
 Alpha virt. eigenvalues --   -0.10040   0.26071   0.33833   0.86347   0.91079
 Alpha virt. eigenvalues --    0.91204   1.00986   1.23721   1.25198   1.25198
 Alpha virt. eigenvalues --    1.39814   1.39815   1.45821   2.14314   2.35512

  Beta  occ. eigenvalues --  -24.72858  -1.12867  -0.43141  -0.43136  -0.32673
  Beta virt. eigenvalues --   -0.25818  -0.09999   0.26005   0.33928   0.92579
  Beta virt. eigenvalues --    0.92682   0.95782   1.05126   1.23688   1.25166
  Beta virt. eigenvalues --    1.25167   1.39887   1.39887   1.45884   2.14475

 Mulliken charges and spin densities:
               1          2
     1  H    0.000274  -0.922623
     2  H    0.000563   0.923881
     3  F   -0.000837   0.998742
 Sum of Mulliken charges =   0.00000   1.00000

 Dipole moment (field-independent basis, Debye):
    X=             -0.0246    Y=              0.0006    Z=             -0.0002  Tot=              0.0247
 Quadrupole moment (field-independent basis, Debye-Ang):
   XX=             -6.8223   YY=             -7.3488   ZZ=             -7.6430
   XY=              0.3998   XZ=             -0.1623   YZ=             -0.1429

  Exact polarizability:      17.782       0.173       2.205      -0.165      -0.079       2.043
 Approx polarizability:      19.532       0.260       2.170      -0.106      -0.096       1.972

 ******    2 imaginary frequencies (negative Signs) ******

                      1                      2                      3
                      A                      A                      A
 Frequencies --  -1017.3144               -61.9090               397.8057
 Red. masses --      1.0078                 1.1085                 1.0123
 Frc consts  --      0.6145                 0.0025                 0.0944
 IR Inten    --      0.0309                 0.0433                 0.0134

                      4
                      A
 Frequencies --    397.8692
 Red. masses --      1.0123
 Frc consts  --      0.0944
 IR Inten    --      0.0026

 - Thermochemistry -
 -------------------
 Temperature   298.150 Kelvin.  Pressure   1.00000 Atm.
 Atom     1 has atomic number  1 and mass   1.00783

 Molecular mass:    21.01405 amu.
 Principal axes and moments of inertia in atomic units:
                           1         2         3
     Eigenvalues --     0.00000 177.97200 177.97200
           X            1.00000  -0.00000   0.00000
           Y            0.00000   1.00000   0.00000
           Z            0.00000   0.00000   1.00000
 This molecule is a prolate symmetric top.
 Rotational symmetry number  1.
 Rotational temperature (Kelvin)      0.48667
 Rotational constant (GHZ):          10.140591
    2 imaginary frequencies ignored.
 Zero-point vibrational energy       4759.2 (Joules/Mol)
                                    1.13747 (Kcal/Mol)
 Warning -- explicit consideration of   2 degrees of freedom as
           vibrations may cause significant error
 Vibrational temperatures:    572.35   572.45
          (Kelvin)

 Zero-point correction=                           0.001813 (Hartree/Particle)
 Thermal correction to Energy=                    0.004796
 Thermal correction to Enthalpy=                  0.005740
 Thermal correction to Gibbs Free Energy=        -0.019502
 Sum of electronic and zero-point Energies=           -100.765714
 Sum of electronic and thermal Energies=              -100.762730
 Sum of electronic and thermal Enthalpies=            -100.761786
 Sum of electronic and thermal Free Energies=         -100.787029

                     E (Thermal)             CV                S
                      KCal/Mol        Cal/Mol-Kelvin    Cal/Mol-Kelvin
 Total                    3.010              7.918             53.127
 Electronic               0.000              0.000              1.377
 Translational            0.889              2.981             35.068
 Rotational               0.592              1.987             14.741
 Vibrational              1.528              2.950              1.941
 Vibration     1          0.764              1.475              0.971
 Vibration     2          0.764              1.475              0.971

 Normal termination of Gaussian 16 at Sat Aug 23 01:53:32 2025.
