 Gaussian 16, Revision C.01,
 Gaussian 16:  ES64L-G16RevC.01  3-Jul-2019

 -----------------------------------------
 # sp b3lyp/6-311g** Force nosymm scf=(qc)
 -----------------------------------------

 -------------------
 Title Card Required
 -------------------
 Symbolic Z-matrix:
 Charge =  0 Multiplicity = 2

                          Input orientation:
 ---------------------------------------------------------------------
 Center     Atomic      Atomic             Coordinates (Angstroms)
 Number     Number       Type             X           Y           Z
 ---------------------------------------------------------------------
      1          1           0        0.000000    0.000000    0.000000
      2          1           0       -2.050000    0.000000    0.000000
      3          9           0        2.750000    0.000000    0.000000
 ---------------------------------------------------------------------

 SCF Done:  E(UB3LYP) =  -100.776383255     a.u. after   23 cycles

 Alpha  occ. eigenvalues --  -24.73242  -1.19353  -0.52356  -0.43960  -0.43960
 Alpha  occ. eigenvalues --   -0.34114
 Alpha virt. eigenvalues --   -0.12168   0.25222   0.32090   0.90299   0.92785
 Alpha virt. eigenvalues --    0.92785   1.05435   1.19520   1.23823   1.23823
 Alpha virt. eigenvalues --    1.36281   1.36281   1.47684   2.12012   2.35569

  Beta  occ. eigenvalues --  -24.70280  -1.10884  -0.40999  -0.40999  -0.34420
  Beta virt. eigenvalues --   -0.24365  -0.11214   0.26244   0.32493   0.94219
  Beta virt. eigenvalues --    0.94219   0.98528   1.09063   1.20013   1.23449
  Beta virt. eigenvalues --    1.23449   1.37824   1.37824   1.48748   2.13101

 Mulliken charges and spin densities:
               1          2
     1  H    0.034832  -0.821991
     2  H    0.019936   0.884340
     3  F   -0.054769   0.937652
 Sum of Mulliken charges =   0.00000   1.00000

 Dipole moment (field-independent basis, Debye):
    X=             -0.9662    Y=             -0.0000    Z=              0.0000  Tot=              0.9662
 Quadrupole moment (field-independent basis, Debye-Ang):
   XX=             -7.8433   YY=             -7.6847   ZZ=             -7.6847
   XY=             -0.0000   XZ=              0.0000   YZ=              0.0000

  Exact polarizability:      59.190       0.000       2.005      -0.000       0.000       2.005
 Approx polarizability:      57.965      -0.000       1.926       0.000       0.000       1.926

 ******    2 imaginary frequencies (negative Signs) ******

                      1                      2                      3
                      A                      A                      A
 Frequencies --  -1291.5175              -311.2196               514.1550
 Red. masses --      1.0084                 1.1078                 1.0148
 Frc consts  --      0.9911                 0.0632                 0.1581
 IR Inten    --     49.1136                40.2588                 0.6236

                      4
                      A
 Frequencies --    514.1550
 Red. masses --      1.0148
 Frc consts  --      0.1581
 IR Inten    --      0.6236

 - Thermochemistry -
 -------------------
 Temperature   298.150 Kelvin.  Pressure   1.00000 Atm.
 Atom     1 has atomic number  1 and mass   1.00783

 Molecular mass:    21.01405 amu.
 Principal axes and moments of inertia in atomic units:
                           1         2         3
     Eigenvalues --     0.00000 100.29963 100.29963
           X            1.00000  -0.00000   0.00000
           Y            0.00000   1.00000   0.00000
           Z            0.00000   0.00000   1.00000
 This molecule is a prolate symmetric top.
 Rotational symmetry number  1.
 Rotational temperature (Kelvin)      0.86355
 Rotational constant (GHZ):          17.993498
    2 imaginary frequencies ignored.
 Zero-point vibrational energy       6150.7 (Joules/Mol)
                                    1.47004 (Kcal/Mol)
 Warning -- explicit consideration of   2 degrees of freedom as
           vibrations may cause significant error
 Vibrational temperatures:    739.75   739.75
          (Kelvin)

 Zero-point correction=                           0.002343 (Hartree/Particle)
 Thermal correction to Energy=                    0.005131
 Thermal correction to Enthalpy=                  0.006075
 Thermal correction to Gibbs Free Energy=        -0.018296
 Sum of electronic and zero-point Energies=           -100.774041
 Sum of electronic and thermal Energies=              -100.771252
 Sum of electronic and thermal Enthalpies=            -100.770308
 Sum of electronic and thermal Free Energies=         -100.794680

                     E (Thermal)             CV                S
                      KCal/Mol        Cal/Mol-Kelvin    Cal/Mol-Kelvin
 Total                    3.220              7.405             51.294
 Electronic               0.000              0.000              1.377
 Translational            0.889              2.981             35.068
 Rotational               0.592              1.987             13.601
 Vibrational              1.738              2.437              1.247
 Vibration     1          0.869              1.219              0.624
 Vibration     2          0.869              1.219              0.624

 Normal termination of Gaussian 16 at Fri Aug 22 18:33:40 2025.
