 Gaussian 16, Revision C.01,
 Gaussian 16:  ES64L-G16RevC.01  3-Jul-2019

 -----------------------------------------
 # sp b3lyp/6-311g** Force nosymm scf=(qc)
 -----------------------------------------

 -------------------
 Title Card Required
 -------------------
 Symbolic Z-matrix:
 Charge =  0 Multiplicity = 2

                          Input orientation:
 ---------------------------------------------------------------------
 Center     Atomic      Atomic             Coordinates (Angstroms)
 Number     Number       Type             X           Y           Z
 ---------------------------------------------------------------------
      1          1           0        0.000000    0.000000    0.000000
      2          1           0       -1.350000    0.000000    0.000000
      3          9           0        2.150000    0.000000    0.000000
 ---------------------------------------------------------------------

 SCF Done:  E(UB3LYP) =  -100.851401805     a.u. after   13 cycles

 Alpha  occ. eigenvalues --  -24.72199  -1.18430  -0.51621  -0.43148  -0.43148
 Alpha  occ. eigenvalues --   -0.37799
 Alpha virt. eigenvalues --   -0.08153   0.22519   0.32457   0.86984   0.92811
 Alpha virt. eigenvalues --    0.92811   1.04500   1.13784   1.13784   1.27067
 Alpha virt. eigenvalues --    1.44646   1.44646   1.92893   2.24399   2.50168

  Beta  occ. eigenvalues --  -24.69379  -1.10427  -0.40342  -0.40342  -0.37270
  Beta virt. eigenvalues --   -0.24680  -0.06767   0.23638   0.32758   0.92917
  Beta virt. eigenvalues --    0.94093   0.94093   1.07785   1.14928   1.14928
  Beta virt. eigenvalues --    1.30610   1.45439   1.45439   1.94147   2.25563

 Mulliken charges and spin densities:
               1          2
     1  H    0.039071  -0.188960
     2  H    0.050666   0.301631
     3  F   -0.089737   0.887329
 Sum of Mulliken charges =   0.00000   1.00000

 Dipole moment (field-independent basis, Debye):
    X=             -1.2843    Y=             -0.0000    Z=              0.0000  Tot=              1.2843
 Quadrupole moment (field-independent basis, Debye-Ang):
   XX=             -7.0194   YY=             -7.5189   ZZ=             -7.5189
   XY=              0.0000   XZ=              0.0000   YZ=              0.0000

  Exact polarizability:      49.772      -0.000       2.121       0.000       0.000       2.121
 Approx polarizability:      73.922      -0.000       2.102      -0.000       0.000       2.102

 ******    2 imaginary frequencies (negative Signs) ******

                      1                      2                      3
                      A                      A                      A
 Frequencies --  -1808.1290              -331.9130              1270.0285
 Red. masses --      1.0114                 1.1042                 1.0133
 Frc consts  --      1.9481                 0.0717                 0.9630
 IR Inten    --   1018.2807                10.9510                 0.1015

                      4
                      A
 Frequencies --   1270.0285
 Red. masses --      1.0133
 Frc consts  --      0.9630
 IR Inten    --      0.1015

 - Thermochemistry -
 -------------------
 Temperature   298.150 Kelvin.  Pressure   1.00000 Atm.
 Atom     1 has atomic number  1 and mass   1.00783

 Molecular mass:    21.01405 amu.
 Principal axes and moments of inertia in atomic units:
                           1         2         3
     Eigenvalues --     0.00000  55.21423  55.21423
           X            1.00000  -0.00000   0.00000
           Y            0.00000   1.00000   0.00000
           Z            0.00000   0.00000   1.00000
 This molecule is a prolate symmetric top.
 Rotational symmetry number  1.
 Rotational temperature (Kelvin)      1.56869
 Rotational constant (GHZ):          32.686162
    2 imaginary frequencies ignored.
 Zero-point vibrational energy      15192.9 (Joules/Mol)
                                    3.63119 (Kcal/Mol)
 Vibrational temperatures:   1827.29  1827.29
          (Kelvin)

 Zero-point correction=                           0.005787 (Hartree/Particle)
 Thermal correction to Energy=                    0.008172
 Thermal correction to Enthalpy=                  0.009117
 Thermal correction to Gibbs Free Energy=        -0.014128
 Sum of electronic and zero-point Energies=           -100.845615
 Sum of electronic and thermal Energies=              -100.843229
 Sum of electronic and thermal Enthalpies=            -100.842285
 Sum of electronic and thermal Free Energies=         -100.865530

                     E (Thermal)             CV                S
                      KCal/Mol        Cal/Mol-Kelvin    Cal/Mol-Kelvin
 Total                    5.128              5.295             48.922
 Electronic               0.000              0.000              1.377
 Translational            0.889              2.981             35.068
 Rotational               0.592              1.987             12.415
 Vibrational              3.647              0.327              0.062

 Normal termination of Gaussian 16 at Fri Aug 22 17:07:04 2025.
