 Gaussian 16, Revision C.01,
 Gaussian 16:  ES64L-G16RevC.01  3-Jul-2019

 -----------------------------------------
 # sp b3lyp/6-311g** Force nosymm scf=(qc)
 -----------------------------------------

 -------------------
 Title Card Required
 -------------------
 Symbolic Z-matrix:
 Charge =  0 Multiplicity = 2

                          Input orientation:
 ---------------------------------------------------------------------
 Center     Atomic      Atomic             Coordinates (Angstroms)
 Number     Number       Type             X           Y           Z
 ---------------------------------------------------------------------
      1          1           0        0.000000    0.000000    0.000000
      2          1           0       -1.150000    0.000000    0.000000
      3          9           0        0.950000    0.000000    0.000000
 ---------------------------------------------------------------------

 SCF Done:  E(UB3LYP) =  -100.964941346     a.u. after    6 cycles

 Alpha  occ. eigenvalues --  -24.64151  -1.18146  -0.56752  -0.39412  -0.39412
 Alpha  occ. eigenvalues --   -0.36637
 Alpha virt. eigenvalues --    0.12427   0.19237   0.42526   0.91950   0.91950
 Alpha virt. eigenvalues --    0.97586   1.09300   1.09300   1.37517   1.54230
 Alpha virt. eigenvalues --    1.54230   1.59783   2.16046   2.28569   2.86178

  Beta  occ. eigenvalues --  -24.63555  -1.16637  -0.52894  -0.38886  -0.38886
  Beta virt. eigenvalues --   -0.17348   0.14267   0.23259   0.47728   0.93016
  Beta virt. eigenvalues --    0.93016   0.98808   1.16538   1.16538   1.41757
  Beta virt. eigenvalues --    1.59564   1.59564   1.66518   2.19549   2.41051

 Mulliken charges and spin densities:
               1          2
     1  H    0.278164  -0.009640
     2  H    0.023995   0.860669
     3  F   -0.302159   0.148971
 Sum of Mulliken charges =   0.00000   1.00000

 Dipole moment (field-independent basis, Debye):
    X=             -2.0330    Y=              0.0000    Z=              0.0000  Tot=              2.0330
 Quadrupole moment (field-independent basis, Debye-Ang):
   XX=             -7.6057   YY=             -6.7059   ZZ=             -6.7059
   XY=              0.0000   XZ=              0.0000   YZ=              0.0000

  Exact polarizability:      13.154      -0.000       2.575       0.000       0.000       2.575
 Approx polarizability:      14.590      -0.000       2.594      -0.000       0.000       2.594

 ******    2 imaginary frequencies (negative Signs) ******

                      1                      2                      3
                      A                      A                      A
 Frequencies --   -492.0575              -492.0575              1023.3561
 Red. masses --      1.0204                 1.0204                 1.0452
 Frc consts  --      0.1456                 0.1456                 0.6449
 IR Inten    --     79.3852                79.3852                26.2471

                      4
                      A
 Frequencies --   3232.7110
 Red. masses --      1.0666
 Frc consts  --      6.5674
 IR Inten    --     77.9903

 - Thermochemistry -
 -------------------
 Temperature   298.150 Kelvin.  Pressure   1.00000 Atm.
 Atom     1 has atomic number  1 and mass   1.00783

 Molecular mass:    21.01405 amu.
 Principal axes and moments of inertia in atomic units:
                           1         2         3
     Eigenvalues --     0.00000  17.51406  17.51406
           X            1.00000  -0.00000   0.00000
           Y            0.00000   1.00000   0.00000
           Z            0.00000   0.00000   1.00000
 This molecule is a prolate symmetric top.
 Rotational symmetry number  1.
 Rotational temperature (Kelvin)      4.94539
 Rotational constant (GHZ):         103.045297
    2 imaginary frequencies ignored.
 Zero-point vibrational energy      25456.9 (Joules/Mol)
                                    6.08435 (Kcal/Mol)
 Vibrational temperatures:   1472.38  4651.15
          (Kelvin)

 Zero-point correction=                           0.009696 (Hartree/Particle)
 Thermal correction to Energy=                    0.012090
 Thermal correction to Enthalpy=                  0.013034
 Thermal correction to Gibbs Free Energy=        -0.009137
 Sum of electronic and zero-point Energies=           -100.955245
 Sum of electronic and thermal Energies=              -100.952851
 Sum of electronic and thermal Enthalpies=            -100.951907
 Sum of electronic and thermal Free Energies=         -100.974078

                     E (Thermal)             CV                S
                      KCal/Mol        Cal/Mol-Kelvin    Cal/Mol-Kelvin
 Total                    7.587              5.320             46.664
 Electronic               0.000              0.000              1.377
 Translational            0.889              2.981             35.068
 Rotational               0.592              1.987             10.133
 Vibrational              6.105              0.352              0.085

 Normal termination of Gaussian 16 at Fri Aug 22 15:57:34 2025.
