 Gaussian 16, Revision C.01,
 Gaussian 16:  ES64L-G16RevC.01  3-Jul-2019

 -----------------------------------------
 # sp b3lyp/6-311g** Force nosymm scf=(qc)
 -----------------------------------------

 -------------------
 Title Card Required
 -------------------
 Symbolic Z-matrix:
 Charge =  0 Multiplicity = 2

                          Input orientation:
 ---------------------------------------------------------------------
 Center     Atomic      Atomic             Coordinates (Angstroms)
 Number     Number       Type             X           Y           Z
 ---------------------------------------------------------------------
      1          1           0        0.000000    0.000000    0.000000
      2          1           0       -1.900000    0.000000    0.000000
      3          9           0        3.150000    0.000000    0.000000
 ---------------------------------------------------------------------

 SCF Done:  E(UB3LYP) =  -100.780497386     a.u. after   28 cycles

 Alpha  occ. eigenvalues --  -24.74924  -1.20920  -0.54046  -0.45381  -0.45381
 Alpha  occ. eigenvalues --   -0.33603
 Alpha virt. eigenvalues --   -0.11555   0.25561   0.31360   0.88997   0.91752
 Alpha virt. eigenvalues --    0.91752   1.03082   1.12949   1.24303   1.24303
 Alpha virt. eigenvalues --    1.36817   1.36817   1.55218   2.13088   2.37964

  Beta  occ. eigenvalues --  -24.71848  -1.12090  -0.42299  -0.42299  -0.33636
  Beta virt. eigenvalues --   -0.25322  -0.11182   0.25797   0.31815   0.93228
  Beta virt. eigenvalues --    0.93228   0.97895   1.07034   1.13024   1.24239
  Beta virt. eigenvalues --    1.24239   1.37330   1.37330   1.55641   2.14059

 Mulliken charges and spin densities:
               1          2
     1  H    0.008560  -0.780958
     2  H    0.013012   0.805838
     3  F   -0.021571   0.975120
 Sum of Mulliken charges =   0.00000   1.00000

 Dipole moment (field-independent basis, Debye):
    X=             -0.4656    Y=             -0.0000    Z=             -0.0000  Tot=              0.4656
 Quadrupole moment (field-independent basis, Debye-Ang):
   XX=             -6.9006   YY=             -7.7315   ZZ=             -7.7315
   XY=             -0.0000   XZ=             -0.0000   YZ=              0.0000

  Exact polarizability:      56.506      -0.000       2.009      -0.000      -0.000       2.009
 Approx polarizability:      53.303      -0.000       1.942      -0.000       0.000       1.942

 ******    2 imaginary frequencies (negative Signs) ******

                      1                      2                      3
                      A                      A                      A
 Frequencies --  -1548.0990              -197.7520               649.6600
 Red. masses --      1.0079                 1.1084                 1.0130
 Frc consts  --      1.4232                 0.0255                 0.2519
 IR Inten    --     38.6912                20.2769                 0.0092

                      4
                      A
 Frequencies --    649.6600
 Red. masses --      1.0130
 Frc consts  --      0.2519
 IR Inten    --      0.0092

 - Thermochemistry -
 -------------------
 Temperature   298.150 Kelvin.  Pressure   1.00000 Atm.
 Atom     1 has atomic number  1 and mass   1.00783

 Molecular mass:    21.01405 amu.
 Principal axes and moments of inertia in atomic units:
                           1         2         3
     Eigenvalues --     0.00000 115.88879 115.88879
           X            1.00000  -0.00000   0.00000
           Y            0.00000   1.00000   0.00000
           Z            0.00000   0.00000   1.00000
 This molecule is a prolate symmetric top.
 Rotational symmetry number  1.
 Rotational temperature (Kelvin)      0.74739
 Rotational constant (GHZ):          15.573044
    2 imaginary frequencies ignored.
 Zero-point vibrational energy       7771.7 (Joules/Mol)
                                    1.85747 (Kcal/Mol)
 Vibrational temperatures:    934.72   934.72
          (Kelvin)

 Zero-point correction=                           0.002960 (Hartree/Particle)
 Thermal correction to Energy=                    0.005590
 Thermal correction to Enthalpy=                  0.006534
 Thermal correction to Gibbs Free Energy=        -0.017734
 Sum of electronic and zero-point Energies=           -100.777537
 Sum of electronic and thermal Energies=              -100.774908
 Sum of electronic and thermal Enthalpies=            -100.773963
 Sum of electronic and thermal Free Energies=         -100.798232

                     E (Thermal)             CV                S
                      KCal/Mol        Cal/Mol-Kelvin    Cal/Mol-Kelvin
 Total                    3.508              6.825             51.077
 Electronic               0.000              0.000              1.377
 Translational            0.889              2.981             35.068
 Rotational               0.592              1.987             13.888
 Vibrational              2.026              1.857              0.743

 Normal termination of Gaussian 16 at Fri Aug 22 20:09:45 2025.
