 Gaussian 16, Revision C.01,
 Gaussian 16:  ES64L-G16RevC.01  3-Jul-2019

 -----------------------------------------
 # sp b3lyp/6-311g** Force nosymm scf=(qc)
 -----------------------------------------

 -------------------
 Title Card Required
 -------------------
 Symbolic Z-matrix:
 Charge =  0 Multiplicity = 2

                          Input orientation:
 ---------------------------------------------------------------------
 Center     Atomic      Atomic             Coordinates (Angstroms)
 Number     Number       Type             X           Y           Z
 ---------------------------------------------------------------------
      1          1           0        0.000000    0.000000    0.000000
      2          1           0       -2.650000    0.000000    0.000000
      3          9           0        2.950000    0.000000    0.000000
 ---------------------------------------------------------------------

 SCF Done:  E(UB3LYP) =  -100.763898828     a.u. after   21 cycles

 Alpha  occ. eigenvalues --  -24.73949  -1.20016  -0.53066  -0.44558  -0.44558
 Alpha  occ. eigenvalues --   -0.32988
 Alpha virt. eigenvalues --   -0.10119   0.25152   0.33964   0.89679   0.92360
 Alpha virt. eigenvalues --    0.92360   1.04251   1.24613   1.24613   1.26348
 Alpha virt. eigenvalues --    1.40647   1.40647   1.41816   2.15599   2.37260

  Beta  occ. eigenvalues --  -24.70932  -1.11374  -0.41539  -0.41539  -0.33908
  Beta virt. eigenvalues --   -0.24708  -0.08732   0.25314   0.35413   0.93817
  Beta virt. eigenvalues --    0.93817   0.98368   1.08096   1.23529   1.23529
  Beta virt. eigenvalues --    1.25259   1.42875   1.42875   1.43745   2.16350

 Mulliken charges and spin densities:
               1          2
     1  H    0.035702  -0.936551
     2  H    0.004211   0.980881
     3  F   -0.039913   0.955670
 Sum of Mulliken charges =  -0.00000   1.00000

 Dipole moment (field-independent basis, Debye):
    X=             -0.6574    Y=             -0.0000    Z=             -0.0000  Tot=              0.6574
 Quadrupole moment (field-independent basis, Debye-Ang):
   XX=             -8.1326   YY=             -7.6379   ZZ=             -7.6379
   XY=             -0.0000   XZ=             -0.0000   YZ=              0.0000

  Exact polarizability:      40.683      -0.000       2.017      -0.000      -0.000       2.017
 Approx polarizability:      38.431      -0.000       1.922      -0.000       0.000       1.922

 ******    2 imaginary frequencies (negative Signs) ******

                      1                      2                      3
                      A                      A                      A
 Frequencies --   -601.1414              -234.5731               225.3519
 Red. masses --      1.0133                 1.1020                 1.0167
 Frc consts  --      0.2157                 0.0357                 0.0304
 IR Inten    --     28.7360                15.7598                 1.0551

                      4
                      A
 Frequencies --    225.3519
 Red. masses --      1.0167
 Frc consts  --      0.0304
 IR Inten    --      1.0551

 - Thermochemistry -
 -------------------
 Temperature   298.150 Kelvin.  Pressure   1.00000 Atm.
 Atom     1 has atomic number  1 and mass   1.00783

 Molecular mass:    21.01405 amu.
 Principal axes and moments of inertia in atomic units:
                           1         2         3
     Eigenvalues --     0.00000 131.56728 131.56728
           X            1.00000  -0.00000   0.00000
           Y            0.00000   1.00000   0.00000
           Z            0.00000   0.00000   1.00000
 This molecule is a prolate symmetric top.
 Rotational symmetry number  1.
 Rotational temperature (Kelvin)      0.65832
 Rotational constant (GHZ):          13.717249
    2 imaginary frequencies ignored.
 Zero-point vibrational energy       2695.8 (Joules/Mol)
                                    0.64431 (Kcal/Mol)
 Warning -- explicit consideration of   2 degrees of freedom as
           vibrations may cause significant error
 Vibrational temperatures:    324.23   324.23
          (Kelvin)

 Zero-point correction=                           0.001027 (Hartree/Particle)
 Thermal correction to Energy=                    0.004431
 Thermal correction to Enthalpy=                  0.005376
 Thermal correction to Gibbs Free Energy=        -0.020480
 Sum of electronic and zero-point Energies=           -100.762872
 Sum of electronic and thermal Energies=              -100.759467
 Sum of electronic and thermal Enthalpies=            -100.758523
 Sum of electronic and thermal Free Energies=         -100.784379

                     E (Thermal)             CV                S
                      KCal/Mol        Cal/Mol-Kelvin    Cal/Mol-Kelvin
 Total                    2.781              8.573             54.417
 Electronic               0.000              0.000              1.377
 Translational            0.889              2.981             35.068
 Rotational               0.592              1.987             14.140
 Vibrational              1.300              3.605              3.831
 Vibration     1          0.650              1.802              1.916
 Vibration     2          0.650              1.802              1.916

 Normal termination of Gaussian 16 at Fri Aug 22 19:18:05 2025.
