 Gaussian 16, Revision C.01,
 Gaussian 16:  ES64L-G16RevC.01  3-Jul-2019

 -----------------------------------------
 # sp b3lyp/6-311g** Force nosymm scf=(qc)
 -----------------------------------------

 -------------------
 Title Card Required
 -------------------
 Symbolic Z-matrix:
 Charge =  0 Multiplicity = 2

                          Input orientation:
 ---------------------------------------------------------------------
 Center     Atomic      Atomic             Coordinates (Angstroms)
 Number     Number       Type             X           Y           Z
 ---------------------------------------------------------------------
      1          1           0        0.000000    0.000000    0.000000
      2          1           0       -4.000000    0.000000    0.000000
      3          9           0        3.700000    0.000000    0.000000
 ---------------------------------------------------------------------

 SCF Done:  E(UB3LYP) =  -100.758579150     a.u. after   25 cycles

 Alpha  occ. eigenvalues --  -24.75652  -1.21596  -0.54776  -0.45990  -0.45990
 Alpha  occ. eigenvalues --   -0.32254
 Alpha virt. eigenvalues --   -0.05738   0.24183   0.37744   0.87053   0.91315
 Alpha virt. eigenvalues --    0.91315   1.01404   1.25241   1.25241   1.25261
 Alpha virt. eigenvalues --    1.47212   1.47212   1.48144   2.14560   2.43049

  Beta  occ. eigenvalues --  -24.72521  -1.12595  -0.42852  -0.42852  -0.32604
  Beta virt. eigenvalues --   -0.25617  -0.05793   0.23925   0.38210   0.92809
  Beta virt. eigenvalues --    0.92809   0.96308   1.05474   1.24849   1.24849
  Beta virt. eigenvalues --    1.24852   1.46741   1.46821   1.46821   2.14614

 Mulliken charges and spin densities:
               1          2
     1  H    0.006513  -0.992166
     2  H    0.000030   0.999375
     3  F   -0.006543   0.992791
 Sum of Mulliken charges =  -0.00000   1.00000

 Dipole moment (field-independent basis, Debye):
    X=             -0.1253    Y=             -0.0000    Z=              0.0000  Tot=              0.1253
 Quadrupole moment (field-independent basis, Debye-Ang):
   XX=             -7.1729   YY=             -7.6182   ZZ=             -7.6182
   XY=             -0.0000   XZ=              0.0000   YZ=              0.0000

  Exact polarizability:      17.321       0.000       2.030      -0.000       0.000       2.030
 Approx polarizability:      12.934      -0.000       1.936       0.000      -0.000       1.936

 ******    2 imaginary frequencies (negative Signs) ******

                      1                      2                      3
                      A                      A                      A
 Frequencies --   -173.3629               -64.4853                54.2580
 Red. masses --      1.0393                 1.0728                 1.0189
 Frc consts  --      0.0184                 0.0026                 0.0018
 IR Inten    --      5.0824                 0.1999                 0.0442

                      4
                      A
 Frequencies --     54.2582
 Red. masses --      1.0189
 Frc consts  --      0.0018
 IR Inten    --      0.0442

 - Thermochemistry -
 -------------------
 Temperature   298.150 Kelvin.  Pressure   1.00000 Atm.
 Atom     1 has atomic number  1 and mass   1.00783

 Molecular mass:    21.01405 amu.
 Principal axes and moments of inertia in atomic units:
                           1         2         3
     Eigenvalues --     0.00000 240.22365 240.22365
           X            1.00000  -0.00000   0.00000
           Y            0.00000   1.00000   0.00000
           Z            0.00000   0.00000   1.00000
 This molecule is a prolate symmetric top.
 Rotational symmetry number  1.
 Rotational temperature (Kelvin)      0.36056
 Rotational constant (GHZ):           7.512754
    2 imaginary frequencies ignored.
 Zero-point vibrational energy        649.1 (Joules/Mol)
                                    0.15513 (Kcal/Mol)
 Warning -- explicit consideration of   2 degrees of freedom as
           vibrations may cause significant error
 Vibrational temperatures:     78.07    78.07
          (Kelvin)

 Zero-point correction=                           0.000247 (Hartree/Particle)
 Thermal correction to Energy=                    0.004260
 Thermal correction to Enthalpy=                  0.005204
 Thermal correction to Gibbs Free Energy=        -0.023824
 Sum of electronic and zero-point Energies=           -100.758332
 Sum of electronic and thermal Energies=              -100.754320
 Sum of electronic and thermal Enthalpies=            -100.753375
 Sum of electronic and thermal Free Energies=         -100.782403

                     E (Thermal)             CV                S
                      KCal/Mol        Cal/Mol-Kelvin    Cal/Mol-Kelvin
 Total                    2.673              8.920             61.094
 Electronic               0.000              0.000              1.377
 Translational            0.889              2.981             35.068
 Rotational               0.592              1.987             15.337
 Vibrational              1.192              3.952              9.312
 Vibration     1          0.596              1.976              4.656
 Vibration     2          0.596              1.976              4.656

 Normal termination of Gaussian 16 at Sat Aug 23 00:05:37 2025.
