 Gaussian 16, Revision C.01,
 Gaussian 16:  ES64L-G16RevC.01  3-Jul-2019

 -----------------------------------------
 # sp b3lyp/6-311g** Force nosymm scf=(qc)
 -----------------------------------------

 -------------------
 Title Card Required
 -------------------
 Symbolic Z-matrix:
 Charge =  0 Multiplicity = 2

                          Input orientation:
 ---------------------------------------------------------------------
 Center     Atomic      Atomic             Coordinates (Angstroms)
 Number     Number       Type             X           Y           Z
 ---------------------------------------------------------------------
      1          1           0        0.000000    0.000000    0.000000
      2          1           0       -2.900000    0.000000    0.000000
      3          9           0        3.600000    0.000000    0.000000
 ---------------------------------------------------------------------

 SCF Done:  E(UB3LYP) =  -100.760166546     a.u. after   31 cycles

 Alpha  occ. eigenvalues --  -24.75559  -1.21509  -0.54682  -0.45912  -0.45912
 Alpha  occ. eigenvalues --   -0.32445
 Alpha virt. eigenvalues --   -0.08202   0.25152   0.35769   0.87314   0.91372
 Alpha virt. eigenvalues --    0.91372   1.01574   1.25104   1.25104   1.26018
 Alpha virt. eigenvalues --    1.43620   1.43620   1.43742   2.15867   2.39133

  Beta  occ. eigenvalues --  -24.72434  -1.12529  -0.42780  -0.42780  -0.32784
  Beta virt. eigenvalues --   -0.25576  -0.07760   0.24938   0.36444   0.92865
  Beta virt. eigenvalues --    0.92865   0.96532   1.05630   1.24715   1.24715
  Beta virt. eigenvalues --    1.25589   1.44313   1.44313   1.44431   2.16127

 Mulliken charges and spin densities:
               1          2
     1  H    0.007711  -0.980778
     2  H    0.000701   0.990127
     3  F   -0.008412   0.990651
 Sum of Mulliken charges =   0.00000   1.00000

 Dipole moment (field-independent basis, Debye):
    X=             -0.1655    Y=             -0.0000    Z=              0.0000  Tot=              0.1655
 Quadrupole moment (field-independent basis, Debye-Ang):
   XX=             -7.1535   YY=             -7.6395   ZZ=             -7.6395
   XY=              0.0000   XZ=             -0.0000   YZ=             -0.0000

  Exact polarizability:      24.307       0.000       2.048      -0.000      -0.000       2.048
 Approx polarizability:      18.273       0.000       1.932      -0.000       0.000       1.932

 ******    2 imaginary frequencies (negative Signs) ******

                      1                      2                      3
                      A                      A                      A
 Frequencies --   -395.4739              -121.0041               132.5008
 Red. masses --      1.0090                 1.1070                 1.0155
 Frc consts  --      0.0930                 0.0096                 0.0105
 IR Inten    --      4.6838                 3.4231                 0.0344

                      4
                      A
 Frequencies --    132.5017
 Red. masses --      1.0155
 Frc consts  --      0.0105
 IR Inten    --      0.0344

 - Thermochemistry -
 -------------------
 Temperature   298.150 Kelvin.  Pressure   1.00000 Atm.
 Atom     1 has atomic number  1 and mass   1.00783

 Molecular mass:    21.01405 amu.
 Principal axes and moments of inertia in atomic units:
                           1         2         3
     Eigenvalues --     0.00000 181.09363 181.09363
           X            1.00000  -0.00000   0.00000
           Y            0.00000   1.00000   0.00000
           Z            0.00000   0.00000   1.00000
 This molecule is a prolate symmetric top.
 Rotational symmetry number  1.
 Rotational temperature (Kelvin)      0.47828
 Rotational constant (GHZ):           9.965791
    2 imaginary frequencies ignored.
 Zero-point vibrational energy       1585.1 (Joules/Mol)
                                    0.37884 (Kcal/Mol)
 Warning -- explicit consideration of   2 degrees of freedom as
           vibrations may cause significant error
 Vibrational temperatures:    190.64   190.64
          (Kelvin)

 Zero-point correction=                           0.000604 (Hartree/Particle)
 Thermal correction to Energy=                    0.004313
 Thermal correction to Enthalpy=                  0.005257
 Thermal correction to Gibbs Free Energy=        -0.021844
 Sum of electronic and zero-point Energies=           -100.759563
 Sum of electronic and thermal Energies=              -100.755854
 Sum of electronic and thermal Enthalpies=            -100.754910
 Sum of electronic and thermal Free Energies=         -100.782011

                     E (Thermal)             CV                S
                      KCal/Mol        Cal/Mol-Kelvin    Cal/Mol-Kelvin
 Total                    2.706              8.810             57.039
 Electronic               0.000              0.000              1.377
 Translational            0.889              2.981             35.068
 Rotational               0.592              1.987             14.775
 Vibrational              1.225              3.842              5.819
 Vibration     1          0.613              1.921              2.909
 Vibration     2          0.613              1.921              2.909

 Normal termination of Gaussian 16 at Fri Aug 22 23:06:59 2025.
