 Gaussian 16, Revision C.01,
 Gaussian 16:  ES64L-G16RevC.01  3-Jul-2019

 -----------------------------------------
 # sp b3lyp/6-311g** Force nosymm scf=(qc)
 -----------------------------------------

 -------------------
 Title Card Required
 -------------------
 Symbolic Z-matrix:
 Charge =  0 Multiplicity = 2

                          Input orientation:
 ---------------------------------------------------------------------
 Center     Atomic      Atomic             Coordinates (Angstroms)
 Number     Number       Type             X           Y           Z
 ---------------------------------------------------------------------
      1          1           0        0.000000    0.000000    0.000000
      2          1           0       -3.950000    0.000000    0.000000
      3          9           0        2.650000    0.000000    0.000000
 ---------------------------------------------------------------------

 SCF Done:  E(UB3LYP) =  -100.764524945     a.u. after   20 cycles

 Alpha  occ. eigenvalues --  -24.72553  -1.18720  -0.51665  -0.43393  -0.43393
 Alpha  occ. eigenvalues --   -0.32644
 Alpha virt. eigenvalues --   -0.09278   0.23616   0.35651   0.89886   0.93169
 Alpha virt. eigenvalues --    0.93169   1.05749   1.24854   1.24854   1.24872
 Alpha virt. eigenvalues --    1.41740   1.41740   1.44394   2.14176   2.38927

  Beta  occ. eigenvalues --  -24.69641  -1.10409  -0.40485  -0.40485  -0.34778
  Beta virt. eigenvalues --   -0.23858  -0.06035   0.23780   0.38116   0.94582
  Beta virt. eigenvalues --    0.94582   0.97368   1.08600   1.22559   1.22559
  Beta virt. eigenvalues --    1.26294   1.46539   1.46685   1.46685   2.13057

 Mulliken charges and spin densities:
               1          2
     1  H    0.070546  -0.920660
     2  H    0.000230   0.999322
     3  F   -0.070775   0.921338
 Sum of Mulliken charges =  -0.00000   1.00000

 Dipole moment (field-independent basis, Debye):
    X=             -0.9625    Y=             -0.0000    Z=              0.0000  Tot=              0.9625
 Quadrupole moment (field-independent basis, Debye-Ang):
   XX=             -9.0664   YY=             -7.5820   ZZ=             -7.5820
   XY=             -0.0000   XZ=              0.0000   YZ=              0.0000

  Exact polarizability:      30.775      -0.000       2.025       0.000      -0.000       2.025
 Approx polarizability:      37.311      -0.000       1.922       0.000      -0.000       1.922

 ******    2 imaginary frequencies (negative Signs) ******

                      1                      2                      3
                      A                      A                      A
 Frequencies --   -521.9729               -72.7337               197.3402
 Red. masses --      1.0563                 1.0553                 1.0234
 Frc consts  --      0.1696                 0.0033                 0.0235
 IR Inten    --     67.5497                 0.0464                 4.8651

                      4
                      A
 Frequencies --    197.3402
 Red. masses --      1.0234
 Frc consts  --      0.0235
 IR Inten    --      4.8651

 - Thermochemistry -
 -------------------
 Temperature   298.150 Kelvin.  Pressure   1.00000 Atm.
 Atom     1 has atomic number  1 and mass   1.00783

 Molecular mass:    21.01405 amu.
 Principal axes and moments of inertia in atomic units:
                           1         2         3
     Eigenvalues --     0.00000 167.27817 167.27817
           X            1.00000  -0.00000   0.00000
           Y            0.00000   1.00000   0.00000
           Z            0.00000   0.00000   1.00000
 This molecule is a prolate symmetric top.
 Rotational symmetry number  1.
 Rotational temperature (Kelvin)      0.51778
 Rotational constant (GHZ):          10.788863
    2 imaginary frequencies ignored.
 Zero-point vibrational energy       2360.7 (Joules/Mol)
                                    0.56422 (Kcal/Mol)
 Warning -- explicit consideration of   2 degrees of freedom as
           vibrations may cause significant error
 Vibrational temperatures:    283.93   283.93
          (Kelvin)

 Zero-point correction=                           0.000899 (Hartree/Particle)
 Thermal correction to Energy=                    0.004389
 Thermal correction to Enthalpy=                  0.005334
 Thermal correction to Gibbs Free Energy=        -0.020978
 Sum of electronic and zero-point Energies=           -100.763626
 Sum of electronic and thermal Energies=              -100.760136
 Sum of electronic and thermal Enthalpies=            -100.759191
 Sum of electronic and thermal Free Energies=         -100.785503

                     E (Thermal)             CV                S
                      KCal/Mol        Cal/Mol-Kelvin    Cal/Mol-Kelvin
 Total                    2.754              8.655             55.378
 Electronic               0.000              0.000              1.377
 Translational            0.889              2.981             35.068
 Rotational               0.592              1.987             14.617
 Vibrational              1.273              3.687              4.316
 Vibration     1          0.637              1.844              2.158
 Vibration     2          0.637              1.844              2.158

 Normal termination of Gaussian 16 at Fri Aug 22 18:16:16 2025.
