 Gaussian 16, Revision C.01,
 Gaussian 16:  ES64L-G16RevC.01  3-Jul-2019

 -----------------------------------------
 # sp b3lyp/6-311g** Force nosymm scf=(qc)
 -----------------------------------------

 -------------------
 Title Card Required
 -------------------
 Symbolic Z-matrix:
 Charge =  0 Multiplicity = 2

                          Input orientation:
 ---------------------------------------------------------------------
 Center     Atomic      Atomic             Coordinates (Angstroms)
 Number     Number       Type             X           Y           Z
 ---------------------------------------------------------------------
      1          1           0        0.000000    0.000000    0.000000
      2          1           0       -3.600000    0.000000    0.000000
      3          9           0        2.050000    0.000000    0.000000
 ---------------------------------------------------------------------

 SCF Done:  E(UB3LYP) =  -100.784061047     a.u. after   19 cycles

 Alpha  occ. eigenvalues --  -24.68640  -1.14964  -0.47646  -0.40112  -0.40112
 Alpha  occ. eigenvalues --   -0.33313
 Alpha virt. eigenvalues --   -0.13362   0.22478   0.32309   0.88521   0.94789
 Alpha virt. eigenvalues --    0.94789   1.05721   1.24198   1.24198   1.24265
 Alpha virt. eigenvalues --    1.35954   1.35954   1.58083   2.13930   2.30359

  Beta  occ. eigenvalues --  -24.66192  -1.08101  -0.37694  -0.37694  -0.37630
  Beta virt. eigenvalues --   -0.21076  -0.06788   0.22705   0.37963   0.90206
  Beta virt. eigenvalues --    0.95560   0.95560   1.08132   1.21740   1.21740
  Beta virt. eigenvalues --    1.45586   1.46057   1.46057   1.50512   2.11716

 Mulliken charges and spin densities:
               1          2
     1  H    0.178916  -0.768506
     2  H    0.001190   0.998205
     3  F   -0.180107   0.770301
 Sum of Mulliken charges =  -0.00000   1.00000

 Dipole moment (field-independent basis, Debye):
    X=             -1.8512    Y=              0.0000    Z=             -0.0000  Tot=              1.8512
 Quadrupole moment (field-independent basis, Debye-Ang):
   XX=             -9.9937   YY=             -7.4989   ZZ=             -7.4989
   XY=             -0.0000   XZ=              0.0000   YZ=              0.0000

  Exact polarizability:      26.205      -0.000       2.055       0.000      -0.000       2.055
 Approx polarizability:      37.458      -0.000       1.941       0.000       0.000       1.941

 ******    2 imaginary frequencies (negative Signs) ******

                      1                      2                      3
                      A                      A                      A
 Frequencies --  -1053.1189              -107.0091               446.1164
 Red. masses --      1.0572                 1.0544                 1.0260
 Frc consts  --      0.6908                 0.0071                 0.1203
 IR Inten    --    117.6767                 0.1698                30.2254

                      4
                      A
 Frequencies --    446.1164
 Red. masses --      1.0260
 Frc consts  --      0.1203
 IR Inten    --     30.2254

 - Thermochemistry -
 -------------------
 Temperature   298.150 Kelvin.  Pressure   1.00000 Atm.
 Atom     1 has atomic number  1 and mass   1.00783

 Molecular mass:    21.01405 amu.
 Principal axes and moments of inertia in atomic units:
                           1         2         3
     Eigenvalues --     0.00000 119.78032 119.78032
           X            1.00000  -0.00000   0.00000
           Y            0.00000   1.00000   0.00000
           Z            0.00000   0.00000   1.00000
 This molecule is a prolate symmetric top.
 Rotational symmetry number  1.
 Rotational temperature (Kelvin)      0.72311
 Rotational constant (GHZ):          15.067093
    2 imaginary frequencies ignored.
 Zero-point vibrational energy       5336.7 (Joules/Mol)
                                    1.27551 (Kcal/Mol)
 Warning -- explicit consideration of   2 degrees of freedom as
           vibrations may cause significant error
 Vibrational temperatures:    641.86   641.86
          (Kelvin)

 Zero-point correction=                           0.002033 (Hartree/Particle)
 Thermal correction to Energy=                    0.004927
 Thermal correction to Enthalpy=                  0.005872
 Thermal correction to Gibbs Free Energy=        -0.018842
 Sum of electronic and zero-point Energies=           -100.782028
 Sum of electronic and thermal Energies=              -100.779134
 Sum of electronic and thermal Enthalpies=            -100.778189
 Sum of electronic and thermal Free Energies=         -100.802903

                     E (Thermal)             CV                S
                      KCal/Mol        Cal/Mol-Kelvin    Cal/Mol-Kelvin
 Total                    3.092              7.707             52.014
 Electronic               0.000              0.000              1.377
 Translational            0.889              2.981             35.068
 Rotational               0.592              1.987             13.954
 Vibrational              1.611              2.739              1.615
 Vibration     1          0.805              1.369              0.808
 Vibration     2          0.805              1.369              0.808

 Normal termination of Gaussian 16 at Fri Aug 22 17:01:43 2025.
