 Gaussian 16, Revision C.01,
 Gaussian 16:  ES64L-G16RevC.01  3-Jul-2019

 -----------------------------------------
 # sp b3lyp/6-311g** Force nosymm scf=(qc)
 -----------------------------------------

 -------------------
 Title Card Required
 -------------------
 Symbolic Z-matrix:
 Charge =  0 Multiplicity = 2

                          Input orientation:
 ---------------------------------------------------------------------
 Center     Atomic      Atomic             Coordinates (Angstroms)
 Number     Number       Type             X           Y           Z
 ---------------------------------------------------------------------
      1          1           0        0.000000    0.000000    0.000000
      2          1           0       -2.550000    0.000000    0.000000
      3          9           0        2.050000    0.000000    0.000000
 ---------------------------------------------------------------------

 SCF Done:  E(UB3LYP) =  -100.787115511     a.u. after   22 cycles

 Alpha  occ. eigenvalues --  -24.68543  -1.14863  -0.47553  -0.40013  -0.40013
 Alpha  occ. eigenvalues --   -0.34630
 Alpha virt. eigenvalues --   -0.13633   0.23978   0.31310   0.89234   0.94879
 Alpha virt. eigenvalues --    0.94879   1.06246   1.23001   1.23001   1.25694
 Alpha virt. eigenvalues --    1.35381   1.35381   1.57807   2.13989   2.29425

  Beta  occ. eigenvalues --  -24.66097  -1.08008  -0.37599  -0.37599  -0.37455
  Beta virt. eigenvalues --   -0.21134  -0.09691   0.24868   0.34877   0.91683
  Beta virt. eigenvalues --    0.95667   0.95667   1.08710   1.22078   1.22078
  Beta virt. eigenvalues --    1.41619   1.41619   1.42585   1.51198   2.13189

 Mulliken charges and spin densities:
               1          2
     1  H    0.163727  -0.743032
     2  H    0.015389   0.973644
     3  F   -0.179116   0.769388
 Sum of Mulliken charges =   0.00000   1.00000

 Dipole moment (field-independent basis, Debye):
    X=             -2.0102    Y=             -0.0000    Z=              0.0000  Tot=              2.0102
 Quadrupole moment (field-independent basis, Debye-Ang):
   XX=             -9.4280   YY=             -7.5311   ZZ=             -7.5311
   XY=             -0.0000   XZ=              0.0000   YZ=              0.0000

  Exact polarizability:      37.224      -0.000       2.051       0.000      -0.000       2.051
 Approx polarizability:      45.147      -0.000       1.943       0.000      -0.000       1.943

 ******    2 imaginary frequencies (negative Signs) ******

                      1                      2                      3
                      A                      A                      A
 Frequencies --  -1134.3147              -373.0534               474.9718
 Red. masses --      1.0431                 1.0688                 1.0208
 Frc consts  --      0.7908                 0.0876                 0.1357
 IR Inten    --     93.8343                13.8018                22.3808

                      4
                      A
 Frequencies --    474.9718
 Red. masses --      1.0208
 Frc consts  --      0.1357
 IR Inten    --     22.3808

 - Thermochemistry -
 -------------------
 Temperature   298.150 Kelvin.  Pressure   1.00000 Atm.
 Atom     1 has atomic number  1 and mass   1.00783

 Molecular mass:    21.01405 amu.
 Principal axes and moments of inertia in atomic units:
                           1         2         3
     Eigenvalues --     0.00000  83.64674  83.64674
           X            1.00000  -0.00000   0.00000
           Y            0.00000   1.00000   0.00000
           Z            0.00000   0.00000   1.00000
 This molecule is a prolate symmetric top.
 Rotational symmetry number  1.
 Rotational temperature (Kelvin)      1.03547
 Rotational constant (GHZ):          21.575749
    2 imaginary frequencies ignored.
 Zero-point vibrational energy       5681.9 (Joules/Mol)
                                    1.35801 (Kcal/Mol)
 Warning -- explicit consideration of   2 degrees of freedom as
           vibrations may cause significant error
 Vibrational temperatures:    683.38   683.38
          (Kelvin)

 Zero-point correction=                           0.002164 (Hartree/Particle)
 Thermal correction to Energy=                    0.005011
 Thermal correction to Enthalpy=                  0.005955
 Thermal correction to Gibbs Free Energy=        -0.018340
 Sum of electronic and zero-point Energies=           -100.784951
 Sum of electronic and thermal Energies=              -100.782104
 Sum of electronic and thermal Enthalpies=            -100.781160
 Sum of electronic and thermal Free Energies=         -100.805455

                     E (Thermal)             CV                S
                      KCal/Mol        Cal/Mol-Kelvin    Cal/Mol-Kelvin
 Total                    3.145              7.579             51.133
 Electronic               0.000              0.000              1.377
 Translational            0.889              2.981             35.068
 Rotational               0.592              1.987             13.240
 Vibrational              1.663              2.611              1.448
 Vibration     1          0.832              1.306              0.724
 Vibration     2          0.832              1.306              0.724

 Normal termination of Gaussian 16 at Fri Aug 22 17:00:38 2025.
