 Gaussian 16, Revision C.01,
 Gaussian 16:  ES64L-G16RevC.01  3-Jul-2019

 -----------------------------------------
 # sp b3lyp/6-311g** Force nosymm scf=(qc)
 -----------------------------------------

 -------------------
 Title Card Required
 -------------------
 Symbolic Z-matrix:
 Charge =  0 Multiplicity = 2

                          Input orientation:
 ---------------------------------------------------------------------
 Center     Atomic      Atomic             Coordinates (Angstroms)
 Number     Number       Type             X           Y           Z
 ---------------------------------------------------------------------
      1          1           0        0.000000    0.000000    0.000000
      2          1           0       -2.500000    0.000000    0.000000
      3          9           0        1.850000    0.000000    0.000000
 ---------------------------------------------------------------------

 SCF Done:  E(UB3LYP) =  -100.802655650     a.u. after   18 cycles

 Alpha  occ. eigenvalues --  -24.66837  -1.13091  -0.45743  -0.38549  -0.38549
 Alpha  occ. eigenvalues --   -0.35249
 Alpha virt. eigenvalues --   -0.14367   0.23628   0.29676   0.92211   0.94986
 Alpha virt. eigenvalues --    0.94986   1.06271   1.22388   1.22388   1.25282
 Alpha virt. eigenvalues --    1.34012   1.34012   1.67755   2.13327   2.26957

  Beta  occ. eigenvalues --  -24.64780  -1.07400  -0.38704  -0.36536  -0.36536
  Beta virt. eigenvalues --   -0.19812  -0.09850   0.24388   0.34666   0.93596
  Beta virt. eigenvalues --    0.95188   0.95188   1.08575   1.23579   1.23579
  Beta virt. eigenvalues --    1.41115   1.41115   1.42516   1.62924   2.13296

 Mulliken charges and spin densities:
               1          2
     1  H    0.219214  -0.616892
     2  H    0.019883   0.970029
     3  F   -0.239097   0.646863
 Sum of Mulliken charges =   0.00000   1.00000

 Dipole moment (field-independent basis, Debye):
    X=             -2.4047    Y=              0.0000    Z=              0.0000  Tot=              2.4047
 Quadrupole moment (field-independent basis, Debye-Ang):
   XX=             -9.4887   YY=             -7.4805   ZZ=             -7.4805
   XY=              0.0000   XZ=              0.0000   YZ=              0.0000

  Exact polarizability:      34.860       0.000       2.088       0.000       0.000       2.088
 Approx polarizability:      44.431       0.000       1.982       0.000       0.000       1.982

 ******    2 imaginary frequencies (negative Signs) ******

                      1                      2                      3
                      A                      A                      A
 Frequencies --  -1464.8951              -385.3181               618.4258
 Red. masses --      1.0480                 1.0636                 1.0220
 Frc consts  --      1.3251                 0.0930                 0.2303
 IR Inten    --     98.3111                12.5272                39.5240

                      4
                      A
 Frequencies --    618.4258
 Red. masses --      1.0220
 Frc consts  --      0.2303
 IR Inten    --     39.5240

 - Thermochemistry -
 -------------------
 Temperature   298.150 Kelvin.  Pressure   1.00000 Atm.
 Atom     1 has atomic number  1 and mass   1.00783

 Molecular mass:    21.01405 amu.
 Principal axes and moments of inertia in atomic units:
                           1         2         3
     Eigenvalues --     0.00000  73.78484  73.78484
           X            1.00000  -0.00000   0.00000
           Y            0.00000   1.00000   0.00000
           Z            0.00000   0.00000   1.00000
 This molecule is a prolate symmetric top.
 Rotational symmetry number  1.
 Rotational temperature (Kelvin)      1.17387
 Rotational constant (GHZ):          24.459514
    2 imaginary frequencies ignored.
 Zero-point vibrational energy       7398.0 (Joules/Mol)
                                    1.76817 (Kcal/Mol)
 Warning -- explicit consideration of   2 degrees of freedom as
           vibrations may cause significant error
 Vibrational temperatures:    889.78   889.78
          (Kelvin)

 Zero-point correction=                           0.002818 (Hartree/Particle)
 Thermal correction to Energy=                    0.005478
 Thermal correction to Enthalpy=                  0.006423
 Thermal correction to Gibbs Free Energy=        -0.017464
 Sum of electronic and zero-point Energies=           -100.799838
 Sum of electronic and thermal Energies=              -100.797177
 Sum of electronic and thermal Enthalpies=            -100.796233
 Sum of electronic and thermal Free Energies=         -100.820120

                     E (Thermal)             CV                S
                      KCal/Mol        Cal/Mol-Kelvin    Cal/Mol-Kelvin
 Total                    3.438              6.954             50.274
 Electronic               0.000              0.000              1.377
 Translational            0.889              2.981             35.068
 Rotational               0.592              1.987             12.991
 Vibrational              1.957              1.986              0.838
 Vibration     1          0.978              0.993              0.419
 Vibration     2          0.978              0.993              0.419

 Normal termination of Gaussian 16 at Fri Aug 22 16:47:13 2025.
