 Gaussian 16, Revision C.01,
 Gaussian 16:  ES64L-G16RevC.01  3-Jul-2019

 -----------------------------------------
 # sp b3lyp/6-311g** Force nosymm scf=(qc)
 -----------------------------------------

 -------------------
 Title Card Required
 -------------------
 Symbolic Z-matrix:
 Charge =  0 Multiplicity = 2

                          Input orientation:
 ---------------------------------------------------------------------
 Center     Atomic      Atomic             Coordinates (Angstroms)
 Number     Number       Type             X           Y           Z
 ---------------------------------------------------------------------
      1          1           0        0.000000    0.000000    0.000000
      2          1           0       -2.700000    0.000000    0.000000
      3          9           0        2.350000    0.000000    0.000000
 ---------------------------------------------------------------------

 SCF Done:  E(UB3LYP) =  -100.773341050     a.u. after   15 cycles

 Alpha  occ. eigenvalues --  -24.70796  -1.17057  -0.49879  -0.41914  -0.41914
 Alpha  occ. eigenvalues --   -0.33747
 Alpha virt. eigenvalues --   -0.12090   0.24327   0.33222   0.89426   0.94095
 Alpha virt. eigenvalues --    0.94095   1.06627   1.23844   1.23844   1.25858
 Alpha virt. eigenvalues --    1.38056   1.38056   1.46432   2.14874   2.32716

  Beta  occ. eigenvalues --  -24.68048  -1.09262  -0.39181  -0.39181  -0.35970
  Beta virt. eigenvalues --   -0.22736  -0.08929   0.25219   0.35532   0.94715
  Beta virt. eigenvalues --    0.95363   0.95363   1.08934   1.21853   1.21853
  Beta virt. eigenvalues --    1.35017   1.42886   1.42886   1.43895   2.13666

 Mulliken charges and spin densities:
               1          2
     1  H    0.105785  -0.850244
     2  H    0.008018   0.983018
     3  F   -0.113803   0.867227
 Sum of Mulliken charges =  -0.00000   1.00000

 Dipole moment (field-independent basis, Debye):
    X=             -1.4553    Y=             -0.0000    Z=             -0.0000  Tot=              1.4553
 Quadrupole moment (field-independent basis, Debye-Ang):
   XX=             -9.2241   YY=             -7.5775   ZZ=             -7.5775
   XY=             -0.0000   XZ=              0.0000   YZ=             -0.0000

  Exact polarizability:      37.604      -0.000       2.025       0.000       0.000       2.025
 Approx polarizability:      44.195      -0.000       1.921       0.000      -0.000       1.921

 ******    2 imaginary frequencies (negative Signs) ******

                      1                      2                      3
                      A                      A                      A
 Frequencies --   -808.8138              -303.8079               327.7843
 Red. masses --      1.0375                 1.0747                 1.0197
 Frc consts  --      0.3999                 0.0584                 0.0646
 IR Inten    --     78.4511                10.5393                 9.7353

                      4
                      A
 Frequencies --    327.7843
 Red. masses --      1.0197
 Frc consts  --      0.0646
 IR Inten    --      9.7353

 - Thermochemistry -
 -------------------
 Temperature   298.150 Kelvin.  Pressure   1.00000 Atm.
 Atom     1 has atomic number  1 and mass   1.00783

 Molecular mass:    21.01405 amu.
 Principal axes and moments of inertia in atomic units:
                           1         2         3
     Eigenvalues --     0.00000 102.20729 102.20729
           X            1.00000  -0.00000   0.00000
           Y            0.00000   1.00000   0.00000
           Z            0.00000   0.00000   1.00000
 This molecule is a prolate symmetric top.
 Rotational symmetry number  1.
 Rotational temperature (Kelvin)      0.84743
 Rotational constant (GHZ):          17.657657
    2 imaginary frequencies ignored.
 Zero-point vibrational energy       3921.2 (Joules/Mol)
                                    0.93718 (Kcal/Mol)
 Warning -- explicit consideration of   2 degrees of freedom as
           vibrations may cause significant error
 Vibrational temperatures:    471.61   471.61
          (Kelvin)

 Zero-point correction=                           0.001493 (Hartree/Particle)
 Thermal correction to Energy=                    0.004627
 Thermal correction to Enthalpy=                  0.005571
 Thermal correction to Gibbs Free Energy=        -0.019433
 Sum of electronic and zero-point Energies=           -100.771848
 Sum of electronic and thermal Energies=              -100.768714
 Sum of electronic and thermal Enthalpies=            -100.767770
 Sum of electronic and thermal Free Energies=         -100.792774

                     E (Thermal)             CV                S
                      KCal/Mol        Cal/Mol-Kelvin    Cal/Mol-Kelvin
 Total                    2.904              8.208             52.626
 Electronic               0.000              0.000              1.377
 Translational            0.889              2.981             35.068
 Rotational               0.592              1.987             13.638
 Vibrational              1.422              3.240              2.542
 Vibration     1          0.711              1.620              1.271
 Vibration     2          0.711              1.620              1.271

 Normal termination of Gaussian 16 at Fri Aug 22 17:26:59 2025.
