 Gaussian 16, Revision C.01,
 Gaussian 16:  ES64L-G16RevC.01  3-Jul-2019

 -----------------------------------------
 # sp b3lyp/6-311g** Force nosymm scf=(qc)
 -----------------------------------------

 -------------------
 Title Card Required
 -------------------
 Symbolic Z-matrix:
 Charge =  0 Multiplicity = 2

                          Input orientation:
 ---------------------------------------------------------------------
 Center     Atomic      Atomic             Coordinates (Angstroms)
 Number     Number       Type             X           Y           Z
 ---------------------------------------------------------------------
      1          1           0        0.000000    0.000000    0.000000
      2          1           0       -2.700000    0.000000    0.000000
      3          9           0        0.500000    0.000000    0.000000
 ---------------------------------------------------------------------

 SCF Done:  E(UB3LYP) =  -100.269051259     a.u. after    6 cycles

 Alpha  occ. eigenvalues --  -24.63014  -1.42328  -0.63500  -0.44312  -0.44312
 Alpha  occ. eigenvalues --   -0.33928
 Alpha virt. eigenvalues --    0.08972   0.25758   0.62487   0.89052   0.90179
 Alpha virt. eigenvalues --    0.90179   1.20390   1.23610   1.23610   1.44990
 Alpha virt. eigenvalues --    1.58532   1.58532   2.00083   2.14997   3.76654

  Beta  occ. eigenvalues --  -24.63011  -1.42317  -0.63494  -0.44311  -0.44311
  Beta virt. eigenvalues --   -0.06883   0.10137   0.38910   0.62066   0.89113
  Beta virt. eigenvalues --    0.90167   0.90167   1.34060   1.47855   1.47855
  Beta virt. eigenvalues --    1.55920   1.58533   1.58533   1.99900   2.45271

 Mulliken charges and spin densities:
               1          2
     1  H    0.120580   0.002173
     2  H    0.003319   0.996061
     3  F   -0.123900   0.001766
 Sum of Mulliken charges =   0.00000   1.00000

 Dipole moment (field-independent basis, Debye):
    X=             -1.3307    Y=              0.0000    Z=              0.0000  Tot=              1.3307
 Quadrupole moment (field-independent basis, Debye-Ang):
   XX=             -6.5366   YY=             -6.4358   ZZ=             -6.4358
   XY=              0.0000   XZ=              0.0000   YZ=              0.0000

  Exact polarizability:       4.003      -0.000       2.427      -0.000      -0.000       2.427
 Approx polarizability:       4.024      -0.000       2.408      -0.000      -0.000       2.408

 ******    2 imaginary frequencies (negative Signs) ******

                      1                      2                      3
                      A                      A                      A
 Frequencies --  -9557.2143             -9557.2143                83.2220
 Red. masses --      1.0429                 1.0429                 1.0532
 Frc consts  --     56.1270                56.1270                 0.0043
 IR Inten    --    271.7160               271.7160                 0.1067

                      4
                      A
 Frequencies --  19159.0167
 Red. masses --      1.0583
 Frc consts  --    228.8809
 IR Inten    --     82.1432

 - Thermochemistry -
 -------------------
 Temperature   298.150 Kelvin.  Pressure   1.00000 Atm.
 Atom     1 has atomic number  1 and mass   1.00783

 Molecular mass:    21.01405 amu.
 Principal axes and moments of inertia in atomic units:
                           1         2         3
     Eigenvalues --     0.00000  35.39061  35.39061
           X            1.00000  -0.00000   0.00000
           Y            0.00000   1.00000   0.00000
           Z            0.00000   0.00000   1.00000
 This molecule is a prolate symmetric top.
 Rotational symmetry number  1.
 Rotational temperature (Kelvin)      2.44737
 Rotational constant (GHZ):          50.994915
    2 imaginary frequencies ignored.
 Zero-point vibrational energy     115094.1 (Joules/Mol)
                                   27.50816 (Kcal/Mol)
 Warning -- explicit consideration of   1 degrees of freedom as
           vibrations may cause significant error
 Vibrational temperatures:    119.74 27565.55
          (Kelvin)

 Zero-point correction=                           0.043837 (Hartree/Particle)
 Thermal correction to Energy=                    0.046965
 Thermal correction to Enthalpy=                  0.047909
 Thermal correction to Gibbs Free Energy=         0.023302
 Sum of electronic and zero-point Energies=           -100.225214
 Sum of electronic and thermal Energies=              -100.222087
 Sum of electronic and thermal Enthalpies=            -100.221142
 Sum of electronic and thermal Free Energies=         -100.245749

                     E (Thermal)             CV                S
                      KCal/Mol        Cal/Mol-Kelvin    Cal/Mol-Kelvin
 Total                   29.471              6.929             51.790
 Electronic               0.000              0.000              1.377
 Translational            0.889              2.981             35.068
 Rotational               0.592              1.987             11.531
 Vibrational             27.990              1.961              3.813
 Vibration     1          0.600              1.961              3.813

 Normal termination of Gaussian 16 at Fri Aug 22 15:37:24 2025.
