 Gaussian 16, Revision C.01,
 Gaussian 16:  ES64L-G16RevC.01  3-Jul-2019

 -----------------------------------------
 # sp b3lyp/6-311g** Force nosymm scf=(qc)
 -----------------------------------------

 -------------------
 Title Card Required
 -------------------
 Symbolic Z-matrix:
 Charge =  0 Multiplicity = 2

                          Input orientation:
 ---------------------------------------------------------------------
 Center     Atomic      Atomic             Coordinates (Angstroms)
 Number     Number       Type             X           Y           Z
 ---------------------------------------------------------------------
      1          1           0        0.000000    0.000000    0.000000
      2          1           0       -3.950000    0.000000    0.000000
      3          9           0        0.650000    0.000000    0.000000
 ---------------------------------------------------------------------

 SCF Done:  E(UB3LYP) =  -100.800651258     a.u. after    6 cycles

 Alpha  occ. eigenvalues --  -24.62939  -1.31321  -0.59805  -0.42362  -0.42362
 Alpha  occ. eigenvalues --   -0.33128
 Alpha virt. eigenvalues --    0.06985   0.24408   0.55501   0.92875   0.92875
 Alpha virt. eigenvalues --    0.94687   1.24296   1.24376   1.24376   1.31580
 Alpha virt. eigenvalues --    1.46902   1.46902   1.95819   2.14281   3.09607

  Beta  occ. eigenvalues --  -24.62939  -1.31321  -0.59805  -0.42362  -0.42362
  Beta virt. eigenvalues --   -0.04878   0.07113   0.38722   0.55476   0.92875
  Beta virt. eigenvalues --    0.92875   0.94684   1.31422   1.46903   1.46903
  Beta virt. eigenvalues --    1.49245   1.49602   1.49602   1.95851   2.45753

 Mulliken charges and spin densities:
               1          2
     1  H    0.255196   0.000267
     2  H    0.000308   0.999657
     3  F   -0.255504   0.000076
 Sum of Mulliken charges =   0.00000   1.00000

 Dipole moment (field-independent basis, Debye):
    X=             -1.5069    Y=             -0.0000    Z=             -0.0000  Tot=              1.5069
 Quadrupole moment (field-independent basis, Debye-Ang):
   XX=             -7.1650   YY=             -6.6080   ZZ=             -6.6080
   XY=             -0.0000   XZ=             -0.0000   YZ=             -0.0000

  Exact polarizability:       3.428       0.000       2.440      -0.000       0.000       2.440
 Approx polarizability:       3.742       0.000       2.420       0.000       0.000       2.420

 ******    3 imaginary frequencies (negative Signs) ******

                      1                      2                      3
                      A                      A                      A
 Frequencies --  -4608.7038             -4608.7038               -27.5113
 Red. masses --      1.0444                 1.0444                 1.0532
 Frc consts  --     13.0693                13.0693                 0.0005
 IR Inten    --    228.4548               228.4548                 0.0073

                      4
                      A
 Frequencies --  10873.4308
 Red. masses --      1.0583
 Frc consts  --     73.7219
 IR Inten    --    101.1213

 - Thermochemistry -
 -------------------
 Temperature   298.150 Kelvin.  Pressure   1.00000 Atm.
 Atom     1 has atomic number  1 and mass   1.00783

 Molecular mass:    21.01405 amu.
 Principal axes and moments of inertia in atomic units:
                           1         2         3
     Eigenvalues --     0.00000  72.91812  72.91812
           X            1.00000  -0.00000   0.00000
           Y            0.00000   1.00000   0.00000
           Z            0.00000   0.00000   1.00000
 This molecule is a prolate symmetric top.
 Rotational symmetry number  1.
 Rotational temperature (Kelvin)      1.18782
 Rotational constant (GHZ):          24.750242
    3 imaginary frequencies ignored.
 Zero-point vibrational energy      65037.6 (Joules/Mol)
                                   15.54435 (Kcal/Mol)
 Vibrational temperatures:  15644.44
          (Kelvin)

 Zero-point correction=                           0.024771 (Hartree/Particle)
 Thermal correction to Energy=                    0.027132
 Thermal correction to Enthalpy=                  0.028076
 Thermal correction to Gibbs Free Energy=         0.004598
 Sum of electronic and zero-point Energies=           -100.775880
 Sum of electronic and thermal Energies=              -100.773519
 Sum of electronic and thermal Enthalpies=            -100.772575
 Sum of electronic and thermal Free Energies=         -100.796053

                     E (Thermal)             CV                S
                      KCal/Mol        Cal/Mol-Kelvin    Cal/Mol-Kelvin
 Total                   17.026              4.968             49.413
 Electronic               0.000              0.000              1.377
 Translational            0.889              2.981             35.068
 Rotational               0.592              1.987             12.967
 Vibrational             15.544              0.000              0.000

 Normal termination of Gaussian 16 at Fri Aug 22 15:45:18 2025.
