 Gaussian 16, Revision C.01,
 Gaussian 16:  ES64L-G16RevC.01  3-Jul-2019

 -----------------------------------------
 # sp b3lyp/6-311g** Force nosymm scf=(qc)
 -----------------------------------------

 -------------------
 Title Card Required
 -------------------
 Symbolic Z-matrix:
 Charge =  0 Multiplicity = 2

                          Input orientation:
 ---------------------------------------------------------------------
 Center     Atomic      Atomic             Coordinates (Angstroms)
 Number     Number       Type             X           Y           Z
 ---------------------------------------------------------------------
      1          1           0        0.000000    0.000000    0.000000
      2          1           0       -2.900000    0.000000    0.000000
      3          9           0        2.800000    0.000000    0.000000
 ---------------------------------------------------------------------

 SCF Done:  E(UB3LYP) =  -100.763972799     a.u. after   19 cycles

 Alpha  occ. eigenvalues --  -24.73304  -1.19418  -0.52419  -0.44019  -0.44019
 Alpha  occ. eigenvalues --   -0.32946
 Alpha virt. eigenvalues --   -0.09896   0.24638   0.34574   0.90013   0.92741
 Alpha virt. eigenvalues --    0.92741   1.05162   1.24606   1.24606   1.25721
 Alpha virt. eigenvalues --    1.41310   1.41310   1.42400   2.15428   2.37527

  Beta  occ. eigenvalues --  -24.70334  -1.10923  -0.41049  -0.41049  -0.34307
  Beta virt. eigenvalues --   -0.24326  -0.08000   0.24921   0.36329   0.94181
  Beta virt. eigenvalues --    0.94181   0.98342   1.08735   1.23065   1.23065
  Beta virt. eigenvalues --    1.25135   1.44172   1.44172   1.44324   2.15564

 Mulliken charges and spin densities:
               1          2
     1  H    0.050862  -0.930817
     2  H    0.002796   0.990390
     3  F   -0.053658   0.940428
 Sum of Mulliken charges =  -0.00000   1.00000

 Dipole moment (field-independent basis, Debye):
    X=             -0.8088    Y=             -0.0000    Z=             -0.0000  Tot=              0.8088
 Quadrupole moment (field-independent basis, Debye-Ang):
   XX=             -8.5531   YY=             -7.6149   ZZ=             -7.6149
   XY=              0.0000   XZ=              0.0000   YZ=             -0.0000

  Exact polarizability:      36.841       0.000       2.019       0.000      -0.000       2.019
 Approx polarizability:      38.849       0.000       1.921       0.000       0.000       1.921

 ******    2 imaginary frequencies (negative Signs) ******

                      1                      2                      3
                      A                      A                      A
 Frequencies --   -532.7183              -219.8995               201.2169
 Red. masses --      1.0291                 1.0839                 1.0184
 Frc consts  --      0.1721                 0.0309                 0.0243
 IR Inten    --     47.9686                 7.1178                 2.2990

                      4
                      A
 Frequencies --    201.2169
 Red. masses --      1.0184
 Frc consts  --      0.0243
 IR Inten    --      2.2990

 - Thermochemistry -
 -------------------
 Temperature   298.150 Kelvin.  Pressure   1.00000 Atm.
 Atom     1 has atomic number  1 and mass   1.00783

 Molecular mass:    21.01405 amu.
 Principal axes and moments of inertia in atomic units:
                           1         2         3
     Eigenvalues --     0.00000 132.67716 132.67716
           X            1.00000  -0.00000   0.00000
           Y            0.00000   1.00000   0.00000
           Z            0.00000   0.00000   1.00000
 This molecule is a prolate symmetric top.
 Rotational symmetry number  1.
 Rotational temperature (Kelvin)      0.65282
 Rotational constant (GHZ):          13.602501
    2 imaginary frequencies ignored.
 Zero-point vibrational energy       2407.1 (Joules/Mol)
                                    0.57531 (Kcal/Mol)
 Warning -- explicit consideration of   2 degrees of freedom as
           vibrations may cause significant error
 Vibrational temperatures:    289.51   289.51
          (Kelvin)

 Zero-point correction=                           0.000917 (Hartree/Particle)
 Thermal correction to Energy=                    0.004395
 Thermal correction to Enthalpy=                  0.005339
 Thermal correction to Gibbs Free Energy=        -0.020720
 Sum of electronic and zero-point Energies=           -100.763056
 Sum of electronic and thermal Energies=              -100.759578
 Sum of electronic and thermal Enthalpies=            -100.758634
 Sum of electronic and thermal Free Energies=         -100.784693

                     E (Thermal)             CV                S
                      KCal/Mol        Cal/Mol-Kelvin    Cal/Mol-Kelvin
 Total                    2.758              8.644             54.846
 Electronic               0.000              0.000              1.377
 Translational            0.889              2.981             35.068
 Rotational               0.592              1.987             14.157
 Vibrational              1.277              3.676              4.244
 Vibration     1          0.638              1.838              2.122
 Vibration     2          0.638              1.838              2.122

 Normal termination of Gaussian 16 at Fri Aug 22 18:44:00 2025.
