 Gaussian 16, Revision C.01,
 Gaussian 16:  ES64L-G16RevC.01  3-Jul-2019

 -----------------------------------------
 # sp b3lyp/6-311g** Force nosymm scf=(qc)
 -----------------------------------------

 -------------------
 Title Card Required
 -------------------
 Symbolic Z-matrix:
 Charge =  0 Multiplicity = 2

                          Input orientation:
 ---------------------------------------------------------------------
 Center     Atomic      Atomic             Coordinates (Angstroms)
 Number     Number       Type             X           Y           Z
 ---------------------------------------------------------------------
      1          1           0        0.000000    0.000000    0.000000
      2          1           0       -3.700000    0.000000    0.000000
      3          9           0        0.750000    0.000000    0.000000
 ---------------------------------------------------------------------

 SCF Done:  E(UB3LYP) =  -100.921930757     a.u. after    6 cycles

 Alpha  occ. eigenvalues --  -24.63456  -1.25479  -0.57384  -0.41196  -0.41196
 Alpha  occ. eigenvalues --   -0.33341
 Alpha virt. eigenvalues --    0.05822   0.24542   0.49257   0.93920   0.93920
 Alpha virt. eigenvalues --    0.96509   1.24014   1.24166   1.24166   1.30069
 Alpha virt. eigenvalues --    1.41702   1.41702   2.00216   2.14416   2.67707

  Beta  occ. eigenvalues --  -24.63455  -1.25478  -0.57384  -0.41196  -0.41196
  Beta virt. eigenvalues --   -0.05125   0.06134   0.39309   0.49229   0.93920
  Beta virt. eigenvalues --    0.93920   0.96503   1.29811   1.41702   1.41702
  Beta virt. eigenvalues --    1.50766   1.50828   1.50828   2.00278   2.44713

 Mulliken charges and spin densities:
               1          2
     1  H    0.267862   0.000428
     2  H    0.000531   0.999374
     3  F   -0.268393   0.000198
 Sum of Mulliken charges =   0.00000   1.00000

 Dipole moment (field-independent basis, Debye):
    X=             -1.6628    Y=              0.0000    Z=             -0.0000  Tot=              1.6628
 Quadrupole moment (field-independent basis, Debye-Ang):
   XX=             -7.4617   YY=             -6.7169   ZZ=             -6.7169
   XY=              0.0000   XZ=             -0.0000   YZ=             -0.0000

  Exact polarizability:       4.171      -0.000       2.444       0.000      -0.000       2.444
 Approx polarizability:       4.631      -0.000       2.425       0.000      -0.000       2.425

 ******    3 imaginary frequencies (negative Signs) ******

                      1                      2                      3
                      A                      A                      A
 Frequencies --  -2710.2761             -2710.2761               -36.4063
 Red. masses --      1.0418                 1.0418                 1.0532
 Frc consts  --      4.5088                 4.5088                 0.0008
 IR Inten    --    205.7487               205.7487                 0.0172

                      4
                      A
 Frequencies --   7586.7388
 Red. masses --      1.0583
 Frc consts  --     35.8900
 IR Inten    --    105.3552

 - Thermochemistry -
 -------------------
 Temperature   298.150 Kelvin.  Pressure   1.00000 Atm.
 Atom     1 has atomic number  1 and mass   1.00783

 Molecular mass:    21.01405 amu.
 Principal axes and moments of inertia in atomic units:
                           1         2         3
     Eigenvalues --     0.00000  68.62652  68.62652
           X            1.00000  -0.00000   0.00000
           Y            0.00000   1.00000   0.00000
           Z            0.00000   0.00000   1.00000
 This molecule is a prolate symmetric top.
 Rotational symmetry number  1.
 Rotational temperature (Kelvin)      1.26211
 Rotational constant (GHZ):          26.298015
    3 imaginary frequencies ignored.
 Zero-point vibrational energy      45378.8 (Joules/Mol)
                                   10.84579 (Kcal/Mol)
 Vibrational temperatures:  10915.62
          (Kelvin)

 Zero-point correction=                           0.017284 (Hartree/Particle)
 Thermal correction to Energy=                    0.019644
 Thermal correction to Enthalpy=                  0.020589
 Thermal correction to Gibbs Free Energy=        -0.002832
 Sum of electronic and zero-point Energies=           -100.904647
 Sum of electronic and thermal Energies=              -100.902286
 Sum of electronic and thermal Enthalpies=            -100.901342
 Sum of electronic and thermal Free Energies=         -100.924763

                     E (Thermal)             CV                S
                      KCal/Mol        Cal/Mol-Kelvin    Cal/Mol-Kelvin
 Total                   12.327              4.968             49.292
 Electronic               0.000              0.000              1.377
 Translational            0.889              2.981             35.068
 Rotational               0.592              1.987             12.847
 Vibrational             10.846              0.000              0.000

 Normal termination of Gaussian 16 at Fri Aug 22 15:49:50 2025.
