 Gaussian 16, Revision C.01,
 Gaussian 16:  ES64L-G16RevC.01  3-Jul-2019

 -----------------------------------------
 # sp b3lyp/6-311g** Force nosymm scf=(qc)
 -----------------------------------------

 -------------------
 Title Card Required
 -------------------
 Symbolic Z-matrix:
 Charge =  0 Multiplicity = 2

                          Input orientation:
 ---------------------------------------------------------------------
 Center     Atomic      Atomic             Coordinates (Angstroms)
 Number     Number       Type             X           Y           Z
 ---------------------------------------------------------------------
      1          1           0        0.000000    0.000000    0.000000
      2          1           0       -3.950000    0.000000    0.000000
      3          9           0        1.250000    0.000000    0.000000
 ---------------------------------------------------------------------

 SCF Done:  E(UB3LYP) =  -100.913405814     a.u. after    6 cycles

 Alpha  occ. eigenvalues --  -24.64378  -1.11655  -0.46888  -0.37298  -0.37298
 Alpha  occ. eigenvalues --   -0.33525
 Alpha virt. eigenvalues --   -0.07402   0.21828   0.28347   0.93043   0.93043
 Alpha virt. eigenvalues --    1.01430   1.23820   1.23982   1.23982   1.24056
 Alpha virt. eigenvalues --    1.34232   1.34232   1.70882   2.13364   2.26503

  Beta  occ. eigenvalues --  -24.64377  -1.11650  -0.46884  -0.37296  -0.37296
  Beta virt. eigenvalues --   -0.07870  -0.05202   0.25703   0.38761   0.93043
  Beta virt. eigenvalues --    0.93043   1.01434   1.23947   1.34227   1.34227
  Beta virt. eigenvalues --    1.47902   1.47902   1.48459   1.70900   2.25768

 Mulliken charges and spin densities:
               1          2
     1  H    0.357065  -0.000100
     2  H    0.000468   0.999501
     3  F   -0.357534   0.000599
 Sum of Mulliken charges =   0.00000   1.00000

 Dipole moment (field-independent basis, Debye):
    X=             -2.3404    Y=             -0.0000    Z=             -0.0000  Tot=              2.3404
 Quadrupole moment (field-independent basis, Debye-Ang):
   XX=             -9.0918   YY=             -7.1644   ZZ=             -7.1644
   XY=             -0.0000   XZ=             -0.0000   YZ=              0.0000

  Exact polarizability:       9.933       0.000       2.300      -0.000      -0.000       2.300
 Approx polarizability:      14.938      -0.000       2.249      -0.000      -0.000       2.249

 ******    1 imaginary frequencies (negative Signs) ******

                      1                      2                      3
                      A                      A                      A
 Frequencies --    -35.1414               451.8862              1193.8423
 Red. masses --      1.0524                 1.0592                 1.0354
 Frc consts  --      0.0008                 0.1274                 0.8695
 IR Inten    --      0.0461                58.5984               143.5567

                      4
                      A
 Frequencies --   1193.8423
 Red. masses --      1.0354
 Frc consts  --      0.8695
 IR Inten    --    143.5567

 - Thermochemistry -
 -------------------
 Temperature   298.150 Kelvin.  Pressure   1.00000 Atm.
 Atom     1 has atomic number  1 and mass   1.00783

 Molecular mass:    21.01405 amu.
 Principal axes and moments of inertia in atomic units:
                           1         2         3
     Eigenvalues --     0.00000  95.75976  95.75976
           X            1.00000  -0.00000   0.00000
           Y            0.00000   1.00000   0.00000
           Z            0.00000   0.00000   1.00000
 This molecule is a prolate symmetric top.
 Rotational symmetry number  1.
 Rotational temperature (Kelvin)      0.90449
 Rotational constant (GHZ):          18.846551
    1 imaginary frequencies ignored.
 Zero-point vibrational energy      16984.4 (Joules/Mol)
                                    4.05937 (Kcal/Mol)
 Warning -- explicit consideration of   1 degrees of freedom as
           vibrations may cause significant error
 Vibrational temperatures:    650.16  1717.67  1717.67
          (Kelvin)

 Zero-point correction=                           0.006469 (Hartree/Particle)
 Thermal correction to Energy=                    0.009126
 Thermal correction to Enthalpy=                  0.010070
 Thermal correction to Gibbs Free Energy=        -0.014080
 Sum of electronic and zero-point Energies=           -100.906937
 Sum of electronic and thermal Energies=              -100.904280
 Sum of electronic and thermal Enthalpies=            -100.903336
 Sum of electronic and thermal Free Energies=         -100.927486

                     E (Thermal)             CV                S
                      KCal/Mol        Cal/Mol-Kelvin    Cal/Mol-Kelvin
 Total                    5.727              6.743             50.829
 Electronic               0.000              0.000              1.377
 Translational            0.889              2.981             35.068
 Rotational               0.592              1.987             13.509
 Vibrational              4.245              1.775              0.875
 Vibration     1          0.811              1.357              0.790

 Normal termination of Gaussian 16 at Fri Aug 22 16:13:53 2025.
