 Gaussian 16, Revision C.01,
 Gaussian 16:  ES64L-G16RevC.01  3-Jul-2019

 -----------------------------------------
 # sp b3lyp/6-311g** Force nosymm scf=(qc)
 -----------------------------------------

 -------------------
 Title Card Required
 -------------------
 Symbolic Z-matrix:
 Charge =  0 Multiplicity = 2

                          Input orientation:
 ---------------------------------------------------------------------
 Center     Atomic      Atomic             Coordinates (Angstroms)
 Number     Number       Type             X           Y           Z
 ---------------------------------------------------------------------
      1          1           0        0.000000    0.000000    0.000000
      2          1           0       -3.950000    0.000000    0.000000
      3          9           0        1.100000    0.000000    0.000000
 ---------------------------------------------------------------------

 SCF Done:  E(UB3LYP) =  -100.948399932     a.u. after    6 cycles

 Alpha  occ. eigenvalues --  -24.64305  -1.13875  -0.49619  -0.38111  -0.38111
 Alpha  occ. eigenvalues --   -0.33448
 Alpha virt. eigenvalues --   -0.02519   0.22889   0.31067   0.93560   0.93560
 Alpha virt. eigenvalues --    0.99596   1.24006   1.24059   1.24059   1.28309
 Alpha virt. eigenvalues --    1.35203   1.35203   1.79333   2.13665   2.31659

  Beta  occ. eigenvalues --  -24.64304  -1.13873  -0.49617  -0.38110  -0.38110
  Beta virt. eigenvalues --   -0.05463  -0.02078   0.29350   0.39342   0.93560
  Beta virt. eigenvalues --    0.93560   0.99599   1.28301   1.35201   1.35201
  Beta virt. eigenvalues --    1.49934   1.49975   1.49975   1.79357   2.31077

 Mulliken charges and spin densities:
               1          2
     1  H    0.340743   0.000140
     2  H    0.000410   0.999556
     3  F   -0.341153   0.000304
 Sum of Mulliken charges =   0.00000   1.00000

 Dipole moment (field-independent basis, Debye):
    X=             -2.1596    Y=             -0.0000    Z=              0.0000  Tot=              2.1596
 Quadrupole moment (field-independent basis, Debye-Ang):
   XX=             -8.5947   YY=             -7.0486   ZZ=             -7.0486
   XY=             -0.0000   XZ=              0.0000   YZ=             -0.0000

  Exact polarizability:       7.630      -0.000       2.362       0.000       0.000       2.362
 Approx polarizability:      10.158       0.000       2.325      -0.000       0.000       2.325

 ******    1 imaginary frequencies (negative Signs) ******

                      1                      2                      3
                      A                      A                      A
 Frequencies --    -32.2700              1190.2278              1190.2278
 Red. masses --      1.0532                 1.0373                 1.0373
 Frc consts  --      0.0006                 0.8658                 0.8658
 IR Inten    --      0.0164               159.5679               159.5679

                      4
                      A
 Frequencies --   1941.4890
 Red. masses --      1.0583
 Frc consts  --      2.3504
 IR Inten    --     74.4374

 - Thermochemistry -
 -------------------
 Temperature   298.150 Kelvin.  Pressure   1.00000 Atm.
 Atom     1 has atomic number  1 and mass   1.00783

 Molecular mass:    21.01405 amu.
 Principal axes and moments of inertia in atomic units:
                           1         2         3
     Eigenvalues --     0.00000  89.61009  89.61009
           X            1.00000  -0.00000   0.00000
           Y            0.00000   1.00000   0.00000
           Z            0.00000   0.00000   1.00000
 This molecule is a prolate symmetric top.
 Rotational symmetry number  1.
 Rotational temperature (Kelvin)      0.96656
 Rotational constant (GHZ):          20.139933
    1 imaginary frequencies ignored.
 Zero-point vibrational energy      25851.0 (Joules/Mol)
                                    6.17853 (Kcal/Mol)
 Vibrational temperatures:   1712.47  1712.47  2793.37
          (Kelvin)

 Zero-point correction=                           0.009846 (Hartree/Particle)
 Thermal correction to Energy=                    0.012242
 Thermal correction to Enthalpy=                  0.013186
 Thermal correction to Gibbs Free Energy=        -0.010528
 Sum of electronic and zero-point Energies=           -100.938554
 Sum of electronic and thermal Energies=              -100.936158
 Sum of electronic and thermal Enthalpies=            -100.935214
 Sum of electronic and thermal Free Energies=         -100.958928

                     E (Thermal)             CV                S
                      KCal/Mol        Cal/Mol-Kelvin    Cal/Mol-Kelvin
 Total                    7.682              5.406             49.910
 Electronic               0.000              0.000              1.377
 Translational            0.889              2.981             35.068
 Rotational               0.592              1.987             13.377
 Vibrational              6.201              0.438              0.088

 Normal termination of Gaussian 16 at Fri Aug 22 16:06:36 2025.
