 Gaussian 16, Revision C.01,
 Gaussian 16:  ES64L-G16RevC.01  3-Jul-2019

 -----------------------------------------
 # sp b3lyp/6-311g** Force nosymm scf=(qc)
 -----------------------------------------

 -------------------
 Title Card Required
 -------------------
 Symbolic Z-matrix:
 Charge =  0 Multiplicity = 2

                          Input orientation:
 ---------------------------------------------------------------------
 Center     Atomic      Atomic             Coordinates (Angstroms)
 Number     Number       Type             X           Y           Z
 ---------------------------------------------------------------------
      1          1           0        0.000000    0.000000    0.000000
      2          1           0       -2.100000    0.000000    0.000000
      3          9           0        2.400000    0.000000    0.000000
 ---------------------------------------------------------------------

 SCF Done:  E(UB3LYP) =  -100.780788891     a.u. after   18 cycles

 Alpha  occ. eigenvalues --  -24.71170  -1.17404  -0.50266  -0.42215  -0.42215
 Alpha  occ. eigenvalues --   -0.34868
 Alpha virt. eigenvalues --   -0.12922   0.24751   0.32199   0.89624   0.93936
 Alpha virt. eigenvalues --    0.93936   1.06119   1.23029   1.23029   1.24762
 Alpha virt. eigenvalues --    1.35259   1.35259   1.46960   2.11488   2.33083

  Beta  occ. eigenvalues --  -24.68382  -1.09484  -0.39439  -0.39439  -0.35561
  Beta virt. eigenvalues --   -0.23124  -0.11360   0.26519   0.32563   0.95252
  Beta virt. eigenvalues --    0.95252   0.95763   1.08976   1.22567   1.22567
  Beta virt. eigenvalues --    1.29442   1.37785   1.37785   1.46688   2.11921

 Mulliken charges and spin densities:
               1          2
     1  H    0.074401  -0.785148
     2  H    0.027666   0.904905
     3  F   -0.102067   0.880243
 Sum of Mulliken charges =  -0.00000   1.00000

 Dipole moment (field-independent basis, Debye):
    X=             -1.5209    Y=              0.0000    Z=             -0.0000  Tot=              1.5209
 Quadrupole moment (field-independent basis, Debye-Ang):
   XX=             -8.4659   YY=             -7.6341   ZZ=             -7.6341
   XY=              0.0000   XZ=             -0.0000   YZ=              0.0000

  Exact polarizability:      55.021       0.000       2.014      -0.000       0.000       2.014
 Approx polarizability:      59.062      -0.000       1.926       0.000      -0.000       1.926

 ******    2 imaginary frequencies (negative Signs) ******

                      1                      2                      3
                      A                      A                      A
 Frequencies --  -1254.5881              -423.8960               504.2001
 Red. masses --      1.0112                 1.1045                 1.0164
 Frc consts  --      0.9377                 0.1169                 0.1522
 IR Inten    --     63.4959                48.9084                 3.4881

                      4
                      A
 Frequencies --    504.2001
 Red. masses --      1.0164
 Frc consts  --      0.1522
 IR Inten    --      3.4881

 - Thermochemistry -
 -------------------
 Temperature   298.150 Kelvin.  Pressure   1.00000 Atm.
 Atom     1 has atomic number  1 and mass   1.00783

 Molecular mass:    21.01405 amu.
 Principal axes and moments of inertia in atomic units:
                           1         2         3
     Eigenvalues --     0.00000  85.39240  85.39240
           X            1.00000  -0.00000   0.00000
           Y            0.00000   1.00000   0.00000
           Z            0.00000   0.00000   1.00000
 This molecule is a prolate symmetric top.
 Rotational symmetry number  1.
 Rotational temperature (Kelvin)      1.01430
 Rotational constant (GHZ):          21.134683
    2 imaginary frequencies ignored.
 Zero-point vibrational energy       6031.6 (Joules/Mol)
                                    1.44158 (Kcal/Mol)
 Warning -- explicit consideration of   2 degrees of freedom as
           vibrations may cause significant error
 Vibrational temperatures:    725.43   725.43
          (Kelvin)

 Zero-point correction=                           0.002297 (Hartree/Particle)
 Thermal correction to Energy=                    0.005100
 Thermal correction to Enthalpy=                  0.006044
 Thermal correction to Gibbs Free Energy=        -0.018198
 Sum of electronic and zero-point Energies=           -100.778492
 Sum of electronic and thermal Energies=              -100.775689
 Sum of electronic and thermal Enthalpies=            -100.774745
 Sum of electronic and thermal Free Energies=         -100.798987

                     E (Thermal)             CV                S
                      KCal/Mol        Cal/Mol-Kelvin    Cal/Mol-Kelvin
 Total                    3.200              7.449             51.022
 Electronic               0.000              0.000              1.377
 Translational            0.889              2.981             35.068
 Rotational               0.592              1.987             13.281
 Vibrational              1.719              2.481              1.295
 Vibration     1          0.859              1.241              0.648
 Vibration     2          0.859              1.241              0.648

 Normal termination of Gaussian 16 at Fri Aug 22 17:32:15 2025.
