 Gaussian 16, Revision C.01,
 Gaussian 16:  ES64L-G16RevC.01  3-Jul-2019

 -----------------------------------------
 # sp b3lyp/6-311g** Force nosymm scf=(qc)
 -----------------------------------------

 -------------------
 Title Card Required
 -------------------
 Symbolic Z-matrix:
 Charge =  0 Multiplicity = 2

                          Input orientation:
 ---------------------------------------------------------------------
 Center     Atomic      Atomic             Coordinates (Angstroms)
 Number     Number       Type             X           Y           Z
 ---------------------------------------------------------------------
      1          1           0        0.000000    0.000000    0.000000
      2          1           0       -2.150000    0.000000    0.000000
      3          9           0        1.550000    0.000000    0.000000
 ---------------------------------------------------------------------

 SCF Done:  E(UB3LYP) =  -100.848685982     a.u. after   11 cycles

 Alpha  occ. eigenvalues --  -24.64164  -1.10068  -0.43707  -0.36812  -0.36281
 Alpha  occ. eigenvalues --   -0.36281
 Alpha virt. eigenvalues --   -0.12884   0.23415   0.27351   0.94355   0.94355
 Alpha virt. eigenvalues --    1.01503   1.06793   1.20609   1.20609   1.28903
 Alpha virt. eigenvalues --    1.33082   1.33082   1.74301   2.10186   2.24128

  Beta  occ. eigenvalues --  -24.63344  -1.07880  -0.41317  -0.35498  -0.35498
  Beta virt. eigenvalues --   -0.18038  -0.08506   0.25479   0.33288   0.94124
  Beta virt. eigenvalues --    0.94124   1.03545   1.08392   1.29371   1.29371
  Beta virt. eigenvalues --    1.38705   1.38705   1.43720   1.73295   2.14950

 Mulliken charges and spin densities:
               1          2
     1  H    0.302969  -0.204982
     2  H    0.038057   0.947238
     3  F   -0.341026   0.257744
 Sum of Mulliken charges =   0.00000   1.00000

 Dipole moment (field-independent basis, Debye):
    X=             -2.9820    Y=             -0.0000    Z=             -0.0000  Tot=              2.9820
 Quadrupole moment (field-independent basis, Debye-Ang):
   XX=             -9.0615   YY=             -7.3443   ZZ=             -7.3443
   XY=             -0.0000   XZ=             -0.0000   YZ=             -0.0000

  Exact polarizability:      29.689      -0.000       2.195      -0.000       0.000       2.195
 Approx polarizability:      42.038      -0.000       2.119      -0.000       0.000       2.119

 ******    2 imaginary frequencies (negative Signs) ******

                      1                      2                      3
                      A                      A                      A
 Frequencies --  -1906.4520              -395.6436               937.6746
 Red. masses --      1.0420                 1.0699                 1.0224
 Frc consts  --      2.2313                 0.0987                 0.5296
 IR Inten    --      0.8446                 4.7479                71.2318

                      4
                      A
 Frequencies --    937.6746
 Red. masses --      1.0224
 Frc consts  --      0.5296
 IR Inten    --     71.2318

 - Thermochemistry -
 -------------------
 Temperature   298.150 Kelvin.  Pressure   1.00000 Atm.
 Atom     1 has atomic number  1 and mass   1.00783

 Molecular mass:    21.01405 amu.
 Principal axes and moments of inertia in atomic units:
                           1         2         3
     Eigenvalues --     0.00000  53.15957  53.15957
           X            1.00000  -0.00000   0.00000
           Y            0.00000   1.00000   0.00000
           Z            0.00000   0.00000   1.00000
 This molecule is a prolate symmetric top.
 Rotational symmetry number  1.
 Rotational temperature (Kelvin)      1.62932
 Rotational constant (GHZ):          33.949509
    2 imaginary frequencies ignored.
 Zero-point vibrational energy      11217.1 (Joules/Mol)
                                    2.68095 (Kcal/Mol)
 Vibrational temperatures:   1349.10  1349.10
          (Kelvin)

 Zero-point correction=                           0.004272 (Hartree/Particle)
 Thermal correction to Energy=                    0.006726
 Thermal correction to Enthalpy=                  0.007671
 Thermal correction to Gibbs Free Energy=        -0.015623
 Sum of electronic and zero-point Energies=           -100.844414
 Sum of electronic and thermal Energies=              -100.841960
 Sum of electronic and thermal Enthalpies=            -100.841015
 Sum of electronic and thermal Free Energies=         -100.864309

                     E (Thermal)             CV                S
                      KCal/Mol        Cal/Mol-Kelvin    Cal/Mol-Kelvin
 Total                    4.221              5.869             49.025
 Electronic               0.000              0.000              1.377
 Translational            0.889              2.981             35.068
 Rotational               0.592              1.987             12.339
 Vibrational              2.740              0.901              0.240

 Normal termination of Gaussian 16 at Fri Aug 22 16:28:25 2025.
