 Gaussian 16, Revision C.01,
 Gaussian 16:  ES64L-G16RevC.01  3-Jul-2019

 -----------------------------------------
 # sp b3lyp/6-311g** Force nosymm scf=(qc)
 -----------------------------------------

 -------------------
 Title Card Required
 -------------------
 Symbolic Z-matrix:
 Charge =  0 Multiplicity = 2

                          Input orientation:
 ---------------------------------------------------------------------
 Center     Atomic      Atomic             Coordinates (Angstroms)
 Number     Number       Type             X           Y           Z
 ---------------------------------------------------------------------
      1          1           0        0.000000    0.000000    0.000000
      2          1           0       -3.950000    0.000000    0.000000
      3          9           0        4.000000    0.000000    0.000000
 ---------------------------------------------------------------------

 SCF Done:  E(UB3LYP) =  -100.758384455     a.u. after   57 cycles

 Alpha  occ. eigenvalues --  -24.75877  -1.21804  -0.55002  -0.46181  -0.46181
 Alpha  occ. eigenvalues --   -0.32226
 Alpha virt. eigenvalues --   -0.06001   0.24197   0.37924   0.86560   0.91173
 Alpha virt. eigenvalues --    0.91173   1.01083   1.25269   1.25269   1.25295
 Alpha virt. eigenvalues --    1.46472   1.46504   1.46504   2.14624   2.42303

  Beta  occ. eigenvalues --  -24.72731  -1.12759  -0.43027  -0.43027  -0.32426
  Beta virt. eigenvalues --   -0.25729  -0.05833   0.24036   0.38226   0.92671
  Beta virt. eigenvalues --    0.92671   0.95938   1.05210   1.25055   1.25055
  Beta virt. eigenvalues --    1.25067   1.46681   1.46775   1.46775   2.14588

 Mulliken charges and spin densities:
               1          2
     1  H    0.002423  -0.996574
     2  H    0.000019   0.999286
     3  F   -0.002442   0.997288
 Sum of Mulliken charges =  -0.00000   1.00000

 Dipole moment (field-independent basis, Debye):
    X=             -0.0511    Y=              0.0000    Z=              0.0000  Tot=              0.0511
 Quadrupole moment (field-independent basis, Debye-Ang):
   XX=             -6.9250   YY=             -7.6192   ZZ=             -7.6192
   XY=             -0.0000   XZ=             -0.0000   YZ=              0.0000

  Exact polarizability:      10.089      -0.000       2.036      -0.000       0.000       2.036
 Approx polarizability:       7.528      -0.000       1.937      -0.000      -0.000       1.937

 ******    2 imaginary frequencies (negative Signs) ******

                      1                      2                      3
                      A                      A                      A
 Frequencies --   -136.6316               -58.4517                43.0342
 Red. masses --      1.0229                 1.0909                 1.0178
 Frc consts  --      0.0113                 0.0022                 0.0011
 IR Inten    --      0.9865                 0.1739                 0.0058

                      4
                      A
 Frequencies --     43.0342
 Red. masses --      1.0178
 Frc consts  --      0.0011
 IR Inten    --      0.0058

 - Thermochemistry -
 -------------------
 Temperature   298.150 Kelvin.  Pressure   1.00000 Atm.
 Atom     1 has atomic number  1 and mass   1.00783

 Molecular mass:    21.01405 amu.
 Principal axes and moments of inertia in atomic units:
                           1         2         3
     Eigenvalues --     0.00000 260.40177 260.40177
           X            1.00000  -0.00000   0.00000
           Y            0.00000   1.00000   0.00000
           Z            0.00000   0.00000   1.00000
 This molecule is a prolate symmetric top.
 Rotational symmetry number  1.
 Rotational temperature (Kelvin)      0.33262
 Rotational constant (GHZ):           6.930603
    2 imaginary frequencies ignored.
 Zero-point vibrational energy        514.8 (Joules/Mol)
                                    0.12304 (Kcal/Mol)
 Warning -- explicit consideration of   2 degrees of freedom as
           vibrations may cause significant error
 Vibrational temperatures:     61.92    61.92
          (Kelvin)

 Zero-point correction=                           0.000196 (Hartree/Particle)
 Thermal correction to Energy=                    0.004256
 Thermal correction to Enthalpy=                  0.005200
 Thermal correction to Gibbs Free Energy=        -0.024340
 Sum of electronic and zero-point Energies=           -100.758188
 Sum of electronic and thermal Energies=              -100.754129
 Sum of electronic and thermal Enthalpies=            -100.753185
 Sum of electronic and thermal Free Energies=         -100.782724

                     E (Thermal)             CV                S
                      KCal/Mol        Cal/Mol-Kelvin    Cal/Mol-Kelvin
 Total                    2.670              8.928             62.171
 Electronic               0.000              0.000              1.377
 Translational            0.889              2.981             35.068
 Rotational               0.592              1.987             15.497
 Vibrational              1.189              3.960             10.229
 Vibration     1          0.595              1.980              5.114
 Vibration     2          0.595              1.980              5.114

 Normal termination of Gaussian 16 at Sat Aug 23 01:59:30 2025.
