 Gaussian 16, Revision C.01,
 Gaussian 16:  ES64L-G16RevC.01  3-Jul-2019

 -----------------------------------------
 # sp b3lyp/6-311g** Force nosymm scf=(qc)
 -----------------------------------------

 -------------------
 Title Card Required
 -------------------
 Symbolic Z-matrix:
 Charge =  0 Multiplicity = 2

                          Input orientation:
 ---------------------------------------------------------------------
 Center     Atomic      Atomic             Coordinates (Angstroms)
 Number     Number       Type             X           Y           Z
 ---------------------------------------------------------------------
      1          1           0        0.000000    0.000000    0.000000
      2          1           0       -1.000000    0.000000    0.000000
      3          9           0        2.550000    0.000000    0.000000
 ---------------------------------------------------------------------

 SCF Done:  E(UB3LYP) =  -100.907304499     a.u. after    7 cycles

 Alpha  occ. eigenvalues --  -24.75750  -1.21685  -0.54950  -0.46086  -0.46086
 Alpha  occ. eigenvalues --   -0.39725
 Alpha virt. eigenvalues --    0.00207   0.21335   0.39254   0.89720   0.91144
 Alpha virt. eigenvalues --    0.91144   1.08344   1.08344   1.09697   1.37174
 Alpha virt. eigenvalues --    1.65003   1.65003   2.22338   2.36257   2.58481

  Beta  occ. eigenvalues --  -24.72646  -1.12774  -0.42978  -0.42978  -0.39621
  Beta virt. eigenvalues --   -0.26085   0.00652   0.21607   0.39674   0.92613
  Beta virt. eigenvalues --    0.92613   0.98123   1.08542   1.08542   1.13965
  Beta virt. eigenvalues --    1.37526   1.65153   1.65153   2.22637   2.36444

 Mulliken charges and spin densities:
               1          2
     1  H   -0.009730  -0.015869
     2  H    0.019549   0.034299
     3  F   -0.009819   0.981570
 Sum of Mulliken charges =   0.00000   1.00000

 Dipole moment (field-independent basis, Debye):
    X=             -0.2244    Y=              0.0000    Z=             -0.0000  Tot=              0.2244
 Quadrupole moment (field-independent basis, Debye-Ang):
   XX=             -5.7668   YY=             -7.2610   ZZ=             -7.2610
   XY=              0.0000   XZ=             -0.0000   YZ=             -0.0000

  Exact polarizability:      21.817       0.000       2.074      -0.000      -0.000       2.074
 Approx polarizability:      25.203      -0.000       2.127       0.000       0.000       2.127

 ******    1 imaginary frequencies (negative Signs) ******

                      1                      2                      3
                      A                      A                      A
 Frequencies --   -182.4279              1520.5692              1520.5692
 Red. masses --      1.1084                 1.0105                 1.0105
 Frc consts  --      0.0217                 1.3765                 1.3765
 IR Inten    --      9.9751                 0.2349                 0.2349

                      4
                      A
 Frequencies --   1734.7653
 Red. masses --      1.0079
 Frc consts  --      1.7871
 IR Inten    --     87.7211

 - Thermochemistry -
 -------------------
 Temperature   298.150 Kelvin.  Pressure   1.00000 Atm.
 Atom     1 has atomic number  1 and mass   1.00783

 Molecular mass:    21.01405 amu.
 Principal axes and moments of inertia in atomic units:
                           1         2         3
     Eigenvalues --     0.00000  62.33635  62.33635
           X            1.00000  -0.00000   0.00000
           Y            0.00000   1.00000   0.00000
           Z            0.00000   0.00000   1.00000
 This molecule is a prolate symmetric top.
 Rotational symmetry number  1.
 Rotational temperature (Kelvin)      1.38946
 Rotational constant (GHZ):          28.951664
    1 imaginary frequencies ignored.
 Zero-point vibrational energy      28566.2 (Joules/Mol)
                                    6.82750 (Kcal/Mol)
 Vibrational temperatures:   2187.76  2187.76  2495.94
          (Kelvin)

 Zero-point correction=                           0.010880 (Hartree/Particle)
 Thermal correction to Energy=                    0.013252
 Thermal correction to Enthalpy=                  0.014196
 Thermal correction to Gibbs Free Energy=        -0.009146
 Sum of electronic and zero-point Energies=           -100.896424
 Sum of electronic and thermal Energies=              -100.894053
 Sum of electronic and thermal Enthalpies=            -100.893109
 Sum of electronic and thermal Free Energies=         -100.916451

                     E (Thermal)             CV                S
                      KCal/Mol        Cal/Mol-Kelvin    Cal/Mol-Kelvin
 Total                    8.316              5.140             49.127
 Electronic               0.000              0.000              1.377
 Translational            0.889              2.981             35.068
 Rotational               0.592              1.987             12.656
 Vibrational              6.834              0.172              0.026

 Normal termination of Gaussian 16 at Fri Aug 22 17:51:22 2025.
