 Gaussian 16, Revision C.01,
 Gaussian 16:  ES64L-G16RevC.01  3-Jul-2019

 -----------------------------------------
 # sp b3lyp/6-311g** Force nosymm scf=(qc)
 -----------------------------------------

 -------------------
 Title Card Required
 -------------------
 Symbolic Z-matrix:
 Charge =  0 Multiplicity = 2

                          Input orientation:
 ---------------------------------------------------------------------
 Center     Atomic      Atomic             Coordinates (Angstroms)
 Number     Number       Type             X           Y           Z
 ---------------------------------------------------------------------
      1          1           0        0.000000    0.000000    0.000000
      2          1           0       -1.800000    0.000000    0.000000
      3          9           0        3.250000    0.000000    0.000000
 ---------------------------------------------------------------------

 SCF Done:  E(UB3LYP) =  -100.786739698     a.u. after   40 cycles

 Alpha  occ. eigenvalues --  -24.75285  -1.21256  -0.54408  -0.45688  -0.45688
 Alpha  occ. eigenvalues --   -0.33592
 Alpha virt. eigenvalues --   -0.11388   0.25522   0.30839   0.88551   0.91520
 Alpha virt. eigenvalues --    0.91520   1.02564   1.09463   1.24012   1.24012
 Alpha virt. eigenvalues --    1.36985   1.36985   1.60868   2.14384   2.39601

  Beta  occ. eigenvalues --  -24.72187  -1.12358  -0.42584  -0.42584  -0.33567
  Beta virt. eigenvalues --   -0.25532  -0.11146   0.25647   0.31231   0.93003
  Beta virt. eigenvalues --    0.93003   0.97542   1.06541   1.09574   1.24034
  Beta virt. eigenvalues --    1.24034   1.37270   1.37270   1.61150   2.15151

 Mulliken charges and spin densities:
               1          2
     1  H    0.003434  -0.711009
     2  H    0.011780   0.728928
     3  F   -0.015214   0.982081
 Sum of Mulliken charges =  -0.00000   1.00000

 Dipole moment (field-independent basis, Debye):
    X=             -0.3534    Y=              0.0000    Z=             -0.0000  Tot=              0.3534
 Quadrupole moment (field-independent basis, Debye-Ang):
   XX=             -6.5506   YY=             -7.7479   ZZ=             -7.7479
   XY=              0.0000   XZ=             -0.0000   YZ=             -0.0000

  Exact polarizability:      52.984       0.000       2.033      -0.000       0.000       2.033
 Approx polarizability:      53.718       0.000       1.957      -0.000      -0.000       1.957

 ******    2 imaginary frequencies (negative Signs) ******

                      1                      2                      3
                      A                      A                      A
 Frequencies --  -1735.1056              -171.5773               765.6105
 Red. masses --      1.0079                 1.1085                 1.0124
 Frc consts  --      1.7877                 0.0192                 0.3496
 IR Inten    --     39.5009                14.3120                 0.0008

                      4
                      A
 Frequencies --    765.6105
 Red. masses --      1.0124
 Frc consts  --      0.3496
 IR Inten    --      0.0008

 - Thermochemistry -
 -------------------
 Temperature   298.150 Kelvin.  Pressure   1.00000 Atm.
 Atom     1 has atomic number  1 and mass   1.00783

 Molecular mass:    21.01405 amu.
 Principal axes and moments of inertia in atomic units:
                           1         2         3
     Eigenvalues --     0.00000 117.90735 117.90735
           X            1.00000  -0.00000   0.00000
           Y            0.00000   1.00000   0.00000
           Z            0.00000   0.00000   1.00000
 This molecule is a prolate symmetric top.
 Rotational symmetry number  1.
 Rotational temperature (Kelvin)      0.73459
 Rotational constant (GHZ):          15.306435
    2 imaginary frequencies ignored.
 Zero-point vibrational energy       9158.7 (Joules/Mol)
                                    2.18899 (Kcal/Mol)
 Vibrational temperatures:   1101.54  1101.54
          (Kelvin)

 Zero-point correction=                           0.003488 (Hartree/Particle)
 Thermal correction to Energy=                    0.006027
 Thermal correction to Enthalpy=                  0.006971
 Thermal correction to Gibbs Free Energy=        -0.017186
 Sum of electronic and zero-point Energies=           -100.783251
 Sum of electronic and thermal Energies=              -100.780713
 Sum of electronic and thermal Enthalpies=            -100.779769
 Sum of electronic and thermal Free Energies=         -100.803926

                     E (Thermal)             CV                S
                      KCal/Mol        Cal/Mol-Kelvin    Cal/Mol-Kelvin
 Total                    3.782              6.386             50.842
 Electronic               0.000              0.000              1.377
 Translational            0.889              2.981             35.068
 Rotational               0.592              1.987             13.922
 Vibrational              2.301              1.418              0.474

 Normal termination of Gaussian 16 at Fri Aug 22 20:34:07 2025.
