 Gaussian 16, Revision C.01,
 Gaussian 16:  ES64L-G16RevC.01  3-Jul-2019

 -----------------------------------------
 # sp b3lyp/6-311g** Force nosymm scf=(qc)
 -----------------------------------------

 -------------------
 Title Card Required
 -------------------
 Symbolic Z-matrix:
 Charge =  0 Multiplicity = 2

                          Input orientation:
 ---------------------------------------------------------------------
 Center     Atomic      Atomic             Coordinates (Angstroms)
 Number     Number       Type             X           Y           Z
 ---------------------------------------------------------------------
      1          1           0        0.000000    0.000000    0.000000
      2          1           0       -2.650000    0.000000    0.000000
      3          9           0        2.300000    0.000000    0.000000
 ---------------------------------------------------------------------

 SCF Done:  E(UB3LYP) =  -100.775222796     a.u. after   14 cycles

 Alpha  occ. eigenvalues --  -24.70451  -1.16726  -0.49526  -0.41624  -0.41624
 Alpha  occ. eigenvalues --   -0.33913
 Alpha virt. eigenvalues --   -0.12400   0.24314   0.32917   0.89249   0.94253
 Alpha virt. eigenvalues --    0.94253   1.06595   1.23691   1.23691   1.25945
 Alpha virt. eigenvalues --    1.37520   1.37520   1.47751   2.14731   2.32059

  Beta  occ. eigenvalues --  -24.67740  -1.09050  -0.38930  -0.38930  -0.36189
  Beta virt. eigenvalues --   -0.22503  -0.09150   0.25261   0.35318   0.94045
  Beta virt. eigenvalues --    0.95474   0.95474   1.08892   1.21797   1.21797
  Beta virt. eigenvalues --    1.37083   1.42528   1.42528   1.43854   2.13526

 Mulliken charges and spin densities:
               1          2
     1  H    0.113380  -0.835345
     2  H    0.009551   0.980427
     3  F   -0.122932   0.854918
 Sum of Mulliken charges =   0.00000   1.00000

 Dipole moment (field-independent basis, Debye):
    X=             -1.5465    Y=             -0.0000    Z=              0.0000  Tot=              1.5465
 Quadrupole moment (field-independent basis, Debye-Ang):
   XX=             -9.2539   YY=             -7.5728   ZZ=             -7.5728
   XY=             -0.0000   XZ=              0.0000   YZ=              0.0000

  Exact polarizability:      38.121      -0.000       2.027       0.000       0.000       2.027
 Approx polarizability:      44.801      -0.000       1.923       0.000      -0.000       1.923

 ******    2 imaginary frequencies (negative Signs) ******

                      1                      2                      3
                      A                      A                      A
 Frequencies --   -859.0589              -323.4004               351.2266
 Red. masses --      1.0372                 1.0751                 1.0198
 Frc consts  --      0.4510                 0.0662                 0.0741
 IR Inten    --     79.8693                12.3375                11.0570

                      4
                      A
 Frequencies --    351.2266
 Red. masses --      1.0198
 Frc consts  --      0.0741
 IR Inten    --     11.0570

 - Thermochemistry -
 -------------------
 Temperature   298.150 Kelvin.  Pressure   1.00000 Atm.
 Atom     1 has atomic number  1 and mass   1.00783

 Molecular mass:    21.01405 amu.
 Principal axes and moments of inertia in atomic units:
                           1         2         3
     Eigenvalues --     0.00000  98.15081  98.15081
           X            1.00000  -0.00000   0.00000
           Y            0.00000   1.00000   0.00000
           Z            0.00000   0.00000   1.00000
 This molecule is a prolate symmetric top.
 Rotational symmetry number  1.
 Rotational temperature (Kelvin)      0.88246
 Rotational constant (GHZ):          18.387430
    2 imaginary frequencies ignored.
 Zero-point vibrational energy       4201.6 (Joules/Mol)
                                    1.00421 (Kcal/Mol)
 Warning -- explicit consideration of   2 degrees of freedom as
           vibrations may cause significant error
 Vibrational temperatures:    505.34   505.34
          (Kelvin)

 Zero-point correction=                           0.001600 (Hartree/Particle)
 Thermal correction to Energy=                    0.004681
 Thermal correction to Enthalpy=                  0.005625
 Thermal correction to Gibbs Free Energy=        -0.019236
 Sum of electronic and zero-point Energies=           -100.773622
 Sum of electronic and thermal Energies=              -100.770542
 Sum of electronic and thermal Enthalpies=            -100.769598
 Sum of electronic and thermal Free Energies=         -100.794459

                     E (Thermal)             CV                S
                      KCal/Mol        Cal/Mol-Kelvin    Cal/Mol-Kelvin
 Total                    2.937              8.113             52.325
 Electronic               0.000              0.000              1.377
 Translational            0.889              2.981             35.068
 Rotational               0.592              1.987             13.558
 Vibrational              1.456              3.145              2.321
 Vibration     1          0.728              1.573              1.161
 Vibration     2          0.728              1.573              1.161

 Normal termination of Gaussian 16 at Fri Aug 22 17:22:31 2025.
