 Gaussian 16, Revision C.01,
 Gaussian 16:  ES64L-G16RevC.01  3-Jul-2019

 -----------------------------------------
 # sp b3lyp/6-311g** Force nosymm scf=(qc)
 -----------------------------------------

 -------------------
 Title Card Required
 -------------------
 Symbolic Z-matrix:
 Charge =  0 Multiplicity = 2

                          Input orientation:
 ---------------------------------------------------------------------
 Center     Atomic      Atomic             Coordinates (Angstroms)
 Number     Number       Type             X           Y           Z
 ---------------------------------------------------------------------
      1          1           0        0.000000    0.000000    0.000000
      2          1           0       -0.750000    0.000000    0.000000
      3          9           0        3.250000    0.000000    0.000000
 ---------------------------------------------------------------------

 SCF Done:  E(UB3LYP) =  -100.934194907     a.u. after   88 cycles

 Alpha  occ. eigenvalues --  -24.76476  -1.22307  -0.55504  -0.46728  -0.46655
 Alpha  occ. eigenvalues --   -0.43078
 Alpha virt. eigenvalues --    0.05893   0.19855   0.46567   0.85933   0.90807
 Alpha virt. eigenvalues --    0.93523   1.03450   1.08588   1.08593   1.55393
 Alpha virt. eigenvalues --    1.82444   1.82450   1.97941   2.38381   3.28292

  Beta  occ. eigenvalues --  -24.73316  -1.13224  -0.43698  -0.43487  -0.42938
  Beta virt. eigenvalues --   -0.26134   0.05921   0.19874   0.46650   0.92306
  Beta virt. eigenvalues --    0.95176   0.95394   1.07319   1.08588   1.08593
  Beta virt. eigenvalues --    1.55405   1.82444   1.82449   1.97969   2.38385

 Mulliken charges and spin densities:
               1          2
     1  H   -0.003631  -0.000783
     2  H   -0.002874  -0.000018
     3  F    0.006504   1.000801
 Sum of Mulliken charges =   0.00000   1.00000

 Dipole moment (field-independent basis, Debye):
    X=              0.0695    Y=             -0.0000    Z=              0.0000  Tot=              0.0695
 Quadrupole moment (field-independent basis, Debye-Ang):
   XX=             -6.1278   YY=             -6.7837   ZZ=             -6.2662
   XY=             -0.0000   XZ=              0.0000   YZ=             -0.3459

  Exact polarizability:       8.484      -0.000       2.052      -0.000      -0.185       2.329
 Approx polarizability:       9.709      -0.000       2.152      -0.000      -0.232       2.499

                      1                      2                      3
                      A                      A                      A
 Frequencies --     42.1281               423.7721               426.6758
 Red. masses --      1.1085                 1.0089                 1.0089
 Frc consts  --      0.0012                 0.1067                 0.1082
 IR Inten    --      0.1885                 0.0050                 0.0041

                      4
                      A
 Frequencies --   4337.5830
 Red. masses --      1.0078
 Frc consts  --     11.1720
 IR Inten    --      0.1539

 - Thermochemistry -
 -------------------
 Temperature   298.150 Kelvin.  Pressure   1.00000 Atm.
 Atom     1 has atomic number  1 and mass   1.00783

 Molecular mass:    21.01405 amu.
 Principal axes and moments of inertia in atomic units:
                           1         2         3
     Eigenvalues --     0.00000  86.52601  86.52601
           X            1.00000  -0.00000   0.00000
           Y            0.00000   1.00000   0.00000
           Z            0.00000   0.00000   1.00000
 This molecule is a prolate symmetric top.
 Rotational symmetry number  1.
 Rotational temperature (Kelvin)      1.00102
 Rotational constant (GHZ):          20.857788
 Zero-point vibrational energy      31283.3 (Joules/Mol)
                                    7.47689 (Kcal/Mol)
 Warning -- explicit consideration of   3 degrees of freedom as
           vibrations may cause significant error
 Vibrational temperatures:     60.61   609.71   613.89  6240.81
          (Kelvin)

 Zero-point correction=                           0.011915 (Hartree/Particle)
 Thermal correction to Energy=                    0.015698
 Thermal correction to Enthalpy=                  0.016643
 Thermal correction to Gibbs Free Energy=        -0.010278
 Sum of electronic and zero-point Energies=           -100.922280
 Sum of electronic and thermal Energies=              -100.918497
 Sum of electronic and thermal Enthalpies=            -100.917552
 Sum of electronic and thermal Free Energies=         -100.944472

                     E (Thermal)             CV                S
                      KCal/Mol        Cal/Mol-Kelvin    Cal/Mol-Kelvin
 Total                    9.851              9.779             56.658
 Electronic               0.000              0.000              1.377
 Translational            0.889              2.981             35.068
 Rotational               0.592              1.987             13.307
 Vibrational              8.370              4.811              6.905
 Vibration     1          0.595              1.980              5.156
 Vibration     2          0.786              1.419              0.879
 Vibration     3          0.788              1.412              0.870

 Normal termination of Gaussian 16 at Fri Aug 22 20:27:04 2025.
