 Gaussian 16, Revision C.01,
 Gaussian 16:  ES64L-G16RevC.01  3-Jul-2019

 -----------------------------------------
 # sp b3lyp/6-311g** Force nosymm scf=(qc)
 -----------------------------------------

 -------------------
 Title Card Required
 -------------------
 Symbolic Z-matrix:
 Charge =  0 Multiplicity = 2

                          Input orientation:
 ---------------------------------------------------------------------
 Center     Atomic      Atomic             Coordinates (Angstroms)
 Number     Number       Type             X           Y           Z
 ---------------------------------------------------------------------
      1          1           0        0.000000    0.000000    0.000000
      2          1           0       -3.450000    0.000000    0.000000
      3          9           0        0.800000    0.000000    0.000000
 ---------------------------------------------------------------------

 SCF Done:  E(UB3LYP) =  -100.950318192     a.u. after    6 cycles

 Alpha  occ. eigenvalues --  -24.63674  -1.23039  -0.56188  -0.40649  -0.40649
 Alpha  occ. eigenvalues --   -0.33557
 Alpha virt. eigenvalues --    0.05104   0.24780   0.45850   0.94206   0.94206
 Alpha virt. eigenvalues --    0.97007   1.23667   1.23957   1.23957   1.30284
 Alpha virt. eigenvalues --    1.39819   1.39819   2.02581   2.14518   2.53079

  Beta  occ. eigenvalues --  -24.63673  -1.23036  -0.56185  -0.40648  -0.40648
  Beta virt. eigenvalues --   -0.05475   0.05662   0.39331   0.45815   0.94206
  Beta virt. eigenvalues --    0.94206   0.96998   1.29745   1.39819   1.39819
  Beta virt. eigenvalues --    1.50748   1.50973   1.50973   2.02619   2.44515

 Mulliken charges and spin densities:
               1          2
     1  H    0.274507   0.000674
     2  H    0.000895   0.998890
     3  F   -0.275401   0.000437
 Sum of Mulliken charges =   0.00000   1.00000

 Dipole moment (field-independent basis, Debye):
    X=             -1.7451    Y=              0.0000    Z=              0.0000  Tot=              1.7451
 Quadrupole moment (field-independent basis, Debye-Ang):
   XX=             -7.5903   YY=             -6.7691   ZZ=             -6.7691
   XY=              0.0000   XZ=              0.0000   YZ=              0.0000

  Exact polarizability:       4.746       0.000       2.443      -0.000      -0.000       2.443
 Approx polarizability:       5.302       0.000       2.425      -0.000      -0.000       2.425

 ******    3 imaginary frequencies (negative Signs) ******

                      1                      2                      3
                      A                      A                      A
 Frequencies --  -1979.3803             -1979.3803               -44.1208
 Red. masses --      1.0400                 1.0400                 1.0532
 Frc consts  --      2.4007                 2.4007                 0.0012
 IR Inten    --    195.6512               195.6512                 0.0389

                      4
                      A
 Frequencies --   6349.7640
 Red. masses --      1.0583
 Frc consts  --     25.1409
 IR Inten    --    106.4568

 - Thermochemistry -
 -------------------
 Temperature   298.150 Kelvin.  Pressure   1.00000 Atm.
 Atom     1 has atomic number  1 and mass   1.00783

 Molecular mass:    21.01405 amu.
 Principal axes and moments of inertia in atomic units:
                           1         2         3
     Eigenvalues --     0.00000  62.90855  62.90855
           X            1.00000  -0.00000   0.00000
           Y            0.00000   1.00000   0.00000
           Z            0.00000   0.00000   1.00000
 This molecule is a prolate symmetric top.
 Rotational symmetry number  1.
 Rotational temperature (Kelvin)      1.37682
 Rotational constant (GHZ):          28.688330
    3 imaginary frequencies ignored.
 Zero-point vibrational energy      37980.0 (Joules/Mol)
                                    9.07744 (Kcal/Mol)
 Vibrational temperatures:   9135.89
          (Kelvin)

 Zero-point correction=                           0.014466 (Hartree/Particle)
 Thermal correction to Energy=                    0.016826
 Thermal correction to Enthalpy=                  0.017770
 Thermal correction to Gibbs Free Energy=        -0.005568
 Sum of electronic and zero-point Energies=           -100.935852
 Sum of electronic and thermal Energies=              -100.933492
 Sum of electronic and thermal Enthalpies=            -100.932548
 Sum of electronic and thermal Free Energies=         -100.955886

                     E (Thermal)             CV                S
                      KCal/Mol        Cal/Mol-Kelvin    Cal/Mol-Kelvin
 Total                   10.559              4.968             49.119
 Electronic               0.000              0.000              1.377
 Translational            0.889              2.981             35.068
 Rotational               0.592              1.987             12.674
 Vibrational              9.077              0.000              0.000

 Normal termination of Gaussian 16 at Fri Aug 22 15:52:02 2025.
