 Gaussian 16, Revision C.01,
 Gaussian 16:  ES64L-G16RevC.01  3-Jul-2019

 -----------------------------------------
 # sp b3lyp/6-311g** Force nosymm scf=(qc)
 -----------------------------------------

 -------------------
 Title Card Required
 -------------------
 Symbolic Z-matrix:
 Charge =  0 Multiplicity = 2

                          Input orientation:
 ---------------------------------------------------------------------
 Center     Atomic      Atomic             Coordinates (Angstroms)
 Number     Number       Type             X           Y           Z
 ---------------------------------------------------------------------
      1          1           0        0.000000    0.000000    0.000000
      2          1           0       -1.050000    0.000000    0.000000
      3          9           0        3.800000    0.000000    0.000000
 ---------------------------------------------------------------------

 SCF Done:  E(UB3LYP) =  -100.898420578     a.u. after  155 cycles

 Alpha  occ. eigenvalues --  -24.76244  -1.22136  -0.55338  -0.46518  -0.46494
 Alpha  occ. eigenvalues --   -0.38171
 Alpha virt. eigenvalues --   -0.00760   0.21783   0.37428   0.86039   0.90916
 Alpha virt. eigenvalues --    0.91669   1.01052   1.09927   1.09929   1.33626
 Alpha virt. eigenvalues --    1.62835   1.62837   2.19753   2.35167   2.56205

  Beta  occ. eigenvalues --  -24.73088  -1.13061  -0.43354  -0.43330  -0.38170
  Beta virt. eigenvalues --   -0.25986  -0.00757   0.21787   0.37448   0.92416
  Beta virt. eigenvalues --    0.93162   0.95504   1.05190   1.09927   1.09929
  Beta virt. eigenvalues --    1.33629   1.62834   1.62837   2.19757   2.35168

 Mulliken charges and spin densities:
               1          2
     1  H    0.000595  -0.000120
     2  H   -0.002148  -0.000052
     3  F    0.001552   1.000172
 Sum of Mulliken charges =  -0.00000   1.00000

 Dipole moment (field-independent basis, Debye):
    X=              0.0274    Y=              0.0000    Z=             -0.0000  Tot=              0.0274
 Quadrupole moment (field-independent basis, Debye-Ang):
   XX=             -6.3199   YY=             -7.1917   ZZ=             -6.6064
   XY=             -0.0000   XZ=             -0.0000   YZ=              0.3181

  Exact polarizability:      12.897      -0.000       2.143      -0.000       0.172       2.458
 Approx polarizability:      17.583      -0.000       2.206      -0.000       0.214       2.600

 ******    1 imaginary frequencies (negative Signs) ******

                      1                      2                      3
                      A                      A                      A
 Frequencies --    -59.1028              1410.7653              1542.7307
 Red. masses --      1.1085                 1.0078                 1.0093
 Frc consts  --      0.0023                 1.1818                 1.4153
 IR Inten    --      0.0643                 0.0710                 0.0015

                      4
                      A
 Frequencies --   1544.5581
 Red. masses --      1.0093
 Frc consts  --      1.4187
 IR Inten    --      0.0006

 - Thermochemistry -
 -------------------
 Temperature   298.150 Kelvin.  Pressure   1.00000 Atm.
 Atom     1 has atomic number  1 and mass   1.00783

 Molecular mass:    21.01405 amu.
 Principal axes and moments of inertia in atomic units:
                           1         2         3
     Eigenvalues --     0.00000 123.71248 123.71248
           X            1.00000  -0.00000   0.00000
           Y            0.00000   1.00000   0.00000
           Z            0.00000   0.00000   1.00000
 This molecule is a prolate symmetric top.
 Rotational symmetry number  1.
 Rotational temperature (Kelvin)      0.70012
 Rotational constant (GHZ):          14.588190
    1 imaginary frequencies ignored.
 Zero-point vibrational energy      26904.3 (Joules/Mol)
                                    6.43029 (Kcal/Mol)
 Vibrational temperatures:   2029.78  2219.65  2222.27
          (Kelvin)

 Zero-point correction=                           0.010247 (Hartree/Particle)
 Thermal correction to Energy=                    0.012623
 Thermal correction to Enthalpy=                  0.013567
 Thermal correction to Gibbs Free Energy=        -0.010427
 Sum of electronic and zero-point Energies=           -100.888173
 Sum of electronic and thermal Energies=              -100.885797
 Sum of electronic and thermal Enthalpies=            -100.884853
 Sum of electronic and thermal Free Energies=         -100.908848

                     E (Thermal)             CV                S
                      KCal/Mol        Cal/Mol-Kelvin    Cal/Mol-Kelvin
 Total                    7.921              5.199             50.500
 Electronic               0.000              0.000              1.377
 Translational            0.889              2.981             35.068
 Rotational               0.592              1.987             14.018
 Vibrational              6.440              0.230              0.037

 Normal termination of Gaussian 16 at Sat Aug 23 00:32:13 2025.
