 Gaussian 16, Revision C.01,
 Gaussian 16:  ES64L-G16RevC.01  3-Jul-2019

 -----------------------------------------
 # sp b3lyp/6-311g** Force nosymm scf=(qc)
 -----------------------------------------

 -------------------
 Title Card Required
 -------------------
 Symbolic Z-matrix:
 Charge =  0 Multiplicity = 2

                          Input orientation:
 ---------------------------------------------------------------------
 Center     Atomic      Atomic             Coordinates (Angstroms)
 Number     Number       Type             X           Y           Z
 ---------------------------------------------------------------------
      1          1           0        0.000000    0.000000    0.000000
      2          1           0       -3.800000    0.000000    0.000000
      3          9           0        1.050000    0.000000    0.000000
 ---------------------------------------------------------------------

 SCF Done:  E(UB3LYP) =  -100.958250117     a.u. after    6 cycles

 Alpha  occ. eigenvalues --  -24.64256  -1.14884  -0.50618  -0.38443  -0.38443
 Alpha  occ. eigenvalues --   -0.33513
 Alpha virt. eigenvalues --   -0.00937   0.23253   0.32708   0.93800   0.93800
 Alpha virt. eigenvalues --    0.99055   1.23931   1.23996   1.23996   1.28866
 Alpha virt. eigenvalues --    1.35516   1.35516   1.84342   2.13868   2.32907

  Beta  occ. eigenvalues --  -24.64255  -1.14881  -0.50615  -0.38442  -0.38442
  Beta virt. eigenvalues --   -0.05470  -0.00497   0.31136   0.39498   0.93800
  Beta virt. eigenvalues --    0.93800   0.99057   1.28833   1.35515   1.35515
  Beta virt. eigenvalues --    1.50035   1.50264   1.50264   1.84376   2.32451

 Mulliken charges and spin densities:
               1          2
     1  H    0.331238   0.000256
     2  H    0.000549   0.999391
     3  F   -0.331787   0.000353
 Sum of Mulliken charges =   0.00000   1.00000

 Dipole moment (field-independent basis, Debye):
    X=             -2.0973    Y=             -0.0000    Z=             -0.0000  Tot=              2.0973
 Quadrupole moment (field-independent basis, Debye-Ang):
   XX=             -8.4185   YY=             -7.0063   ZZ=             -7.0063
   XY=              0.0000   XZ=             -0.0000   YZ=             -0.0000

  Exact polarizability:       7.058      -0.000       2.380      -0.000      -0.000       2.380
 Approx polarizability:       9.037      -0.000       2.348      -0.000      -0.000       2.348

 ******    1 imaginary frequencies (negative Signs) ******

                      1                      2                      3
                      A                      A                      A
 Frequencies --    -33.9291              1124.8244              1124.8244
 Red. masses --      1.0532                 1.0375                 1.0375
 Frc consts  --      0.0007                 0.7734                 0.7734
 IR Inten    --      0.0231               164.5819               164.5819

                      4
                      A
 Frequencies --   2453.2192
 Red. masses --      1.0583
 Frc consts  --      3.7527
 IR Inten    --     81.1840

 - Thermochemistry -
 -------------------
 Temperature   298.150 Kelvin.  Pressure   1.00000 Atm.
 Atom     1 has atomic number  1 and mass   1.00783

 Molecular mass:    21.01405 amu.
 Principal axes and moments of inertia in atomic units:
                           1         2         3
     Eigenvalues --     0.00000  82.61714  82.61714
           X            1.00000  -0.00000   0.00000
           Y            0.00000   1.00000   0.00000
           Z            0.00000   0.00000   1.00000
 This molecule is a prolate symmetric top.
 Rotational symmetry number  1.
 Rotational temperature (Kelvin)      1.04838
 Rotational constant (GHZ):          21.844635
    1 imaginary frequencies ignored.
 Zero-point vibrational energy      28129.4 (Joules/Mol)
                                    6.72309 (Kcal/Mol)
 Vibrational temperatures:   1618.37  1618.37  3529.64
          (Kelvin)

 Zero-point correction=                           0.010714 (Hartree/Particle)
 Thermal correction to Energy=                    0.013120
 Thermal correction to Enthalpy=                  0.014064
 Thermal correction to Gibbs Free Energy=        -0.009585
 Sum of electronic and zero-point Energies=           -100.947536
 Sum of electronic and thermal Energies=              -100.945130
 Sum of electronic and thermal Enthalpies=            -100.944186
 Sum of electronic and thermal Free Energies=         -100.967835

                     E (Thermal)             CV                S
                      KCal/Mol        Cal/Mol-Kelvin    Cal/Mol-Kelvin
 Total                    8.233              5.489             49.774
 Electronic               0.000              0.000              1.377
 Translational            0.889              2.981             35.068
 Rotational               0.592              1.987             13.216
 Vibrational              6.752              0.521              0.113

 Normal termination of Gaussian 16 at Fri Aug 22 16:04:07 2025.
