 Gaussian 16, Revision C.01,
 Gaussian 16:  ES64L-G16RevC.01  3-Jul-2019

 -----------------------------------------
 # sp b3lyp/6-311g** Force nosymm scf=(qc)
 -----------------------------------------

 -------------------
 Title Card Required
 -------------------
 Symbolic Z-matrix:
 Charge =  0 Multiplicity = 2

                          Input orientation:
 ---------------------------------------------------------------------
 Center     Atomic      Atomic             Coordinates (Angstroms)
 Number     Number       Type             X           Y           Z
 ---------------------------------------------------------------------
      1          1           0        0.000000    0.000000    0.000000
      2          1           0       -2.550000    0.000000    0.000000
      3          9           0        3.600000    0.000000    0.000000
 ---------------------------------------------------------------------

 SCF Done:  E(UB3LYP) =  -100.762309248     a.u. after   29 cycles

 Alpha  occ. eigenvalues --  -24.75589  -1.21537  -0.54712  -0.45938  -0.45938
 Alpha  occ. eigenvalues --   -0.32600
 Alpha virt. eigenvalues --   -0.09263   0.25661   0.34607   0.87306   0.91351
 Alpha virt. eigenvalues --    0.91351   1.01552   1.25032   1.25032   1.26603
 Alpha virt. eigenvalues --    1.41776   1.41776   1.43069   2.15900   2.37154

  Beta  occ. eigenvalues --  -24.72463  -1.12553  -0.42805  -0.42805  -0.32864
  Beta virt. eigenvalues --   -0.25598  -0.08856   0.25461   0.35209   0.92844
  Beta virt. eigenvalues --    0.92844   0.96537   1.05619   1.24723   1.24723
  Beta virt. eigenvalues --    1.26240   1.42399   1.42399   1.43690   2.16274

 Mulliken charges and spin densities:
               1          2
     1  H    0.006336  -0.964922
     2  H    0.001669   0.973915
     3  F   -0.008005   0.991007
 Sum of Mulliken charges =  -0.00000   1.00000

 Dipole moment (field-independent basis, Debye):
    X=             -0.1683    Y=             -0.0000    Z=              0.0000  Tot=              0.1683
 Quadrupole moment (field-independent basis, Debye-Ang):
   XX=             -7.0129   YY=             -7.6617   ZZ=             -7.6617
   XY=             -0.0000   XZ=              0.0000   YZ=              0.0000

  Exact polarizability:      29.049      -0.000       1.986       0.000       0.000       1.986
 Approx polarizability:      21.579      -0.000       1.930       0.000      -0.000       1.930

 ******    2 imaginary frequencies (negative Signs) ******

                      1                      2                      3
                      A                      A                      A
 Frequencies --   -622.4225              -124.2553               232.2155
 Red. masses --      1.0080                 1.1083                 1.0143
 Frc consts  --      0.2301                 0.0101                 0.0322
 IR Inten    --      4.0971                 4.1660                 0.0494

                      4
                      A
 Frequencies --    232.2157
 Red. masses --      1.0143
 Frc consts  --      0.0322
 IR Inten    --      0.0494

 - Thermochemistry -
 -------------------
 Temperature   298.150 Kelvin.  Pressure   1.00000 Atm.
 Atom     1 has atomic number  1 and mass   1.00783

 Molecular mass:    21.01405 amu.
 Principal axes and moments of inertia in atomic units:
                           1         2         3
     Eigenvalues --     0.00000 166.35821 166.35821
           X            1.00000  -0.00000   0.00000
           Y            0.00000   1.00000   0.00000
           Z            0.00000   0.00000   1.00000
 This molecule is a prolate symmetric top.
 Rotational symmetry number  1.
 Rotational temperature (Kelvin)      0.52065
 Rotational constant (GHZ):          10.848525
    2 imaginary frequencies ignored.
 Zero-point vibrational energy       2777.9 (Joules/Mol)
                                    0.66394 (Kcal/Mol)
 Warning -- explicit consideration of   2 degrees of freedom as
           vibrations may cause significant error
 Vibrational temperatures:    334.11   334.11
          (Kelvin)

 Zero-point correction=                           0.001058 (Hartree/Particle)
 Thermal correction to Energy=                    0.004442
 Thermal correction to Enthalpy=                  0.005387
 Thermal correction to Gibbs Free Energy=        -0.020639
 Sum of electronic and zero-point Energies=           -100.761251
 Sum of electronic and thermal Energies=              -100.757867
 Sum of electronic and thermal Enthalpies=            -100.756923
 Sum of electronic and thermal Free Energies=         -100.782948

                     E (Thermal)             CV                S
                      KCal/Mol        Cal/Mol-Kelvin    Cal/Mol-Kelvin
 Total                    2.788              8.551             54.775
 Electronic               0.000              0.000              1.377
 Translational            0.889              2.981             35.068
 Rotational               0.592              1.987             14.607
 Vibrational              1.306              3.583              3.724
 Vibration     1          0.653              1.792              1.862
 Vibration     2          0.653              1.792              1.862

 Normal termination of Gaussian 16 at Fri Aug 22 23:06:26 2025.
