 Gaussian 16, Revision C.01,
 Gaussian 16:  ES64L-G16RevC.01  3-Jul-2019

 -----------------------------------------
 # sp b3lyp/6-311g** Force nosymm scf=(qc)
 -----------------------------------------

 -------------------
 Title Card Required
 -------------------
 Symbolic Z-matrix:
 Charge =  0 Multiplicity = 2

                          Input orientation:
 ---------------------------------------------------------------------
 Center     Atomic      Atomic             Coordinates (Angstroms)
 Number     Number       Type             X           Y           Z
 ---------------------------------------------------------------------
      1          1           0        0.000000    0.000000    0.000000
      2          1           0       -2.700000    0.000000    0.000000
      3          9           0        1.100000    0.000000    0.000000
 ---------------------------------------------------------------------

 SCF Done:  E(UB3LYP) =  -100.948775279     a.u. after    5 cycles

 Alpha  occ. eigenvalues --  -24.64190  -1.13784  -0.49567  -0.38011  -0.38011
 Alpha  occ. eigenvalues --   -0.34782
 Alpha virt. eigenvalues --   -0.01858   0.24748   0.30596   0.93658   0.93658
 Alpha virt. eigenvalues --    0.99655   1.21732   1.22759   1.22759   1.32966
 Alpha virt. eigenvalues --    1.35318   1.35318   1.80410   2.14022   2.32485

  Beta  occ. eigenvalues --  -24.64171  -1.13735  -0.49491  -0.37994  -0.37994
  Beta virt. eigenvalues --   -0.09684  -0.00057   0.30518   0.37274   0.93659
  Beta virt. eigenvalues --    0.93659   0.99691   1.29526   1.35285   1.35285
  Beta virt. eigenvalues --    1.44911   1.44911   1.46930   1.80665   2.32357

 Mulliken charges and spin densities:
               1          2
     1  H    0.336457   0.001384
     2  H    0.005835   0.992530
     3  F   -0.342292   0.006086
 Sum of Mulliken charges =   0.00000   1.00000

 Dipole moment (field-independent basis, Debye):
    X=             -2.2371    Y=              0.0000    Z=              0.0000  Tot=              2.2371
 Quadrupole moment (field-independent basis, Debye-Ang):
   XX=             -8.3354   YY=             -7.0458   ZZ=             -7.0458
   XY=              0.0000   XZ=              0.0000   YZ=              0.0000

  Exact polarizability:       9.874       0.000       2.382      -0.000      -0.000       2.382
 Approx polarizability:      12.119      -0.000       2.349      -0.000      -0.000       2.349

 ******    1 imaginary frequencies (negative Signs) ******

                      1                      2                      3
                      A                      A                      A
 Frequencies --   -114.9180              1168.1056              1168.1056
 Red. masses --      1.0524                 1.0314                 1.0314
 Frc consts  --      0.0082                 0.8291                 0.8291
 IR Inten    --      1.0573               147.0168               147.0168

                      4
                      A
 Frequencies --   1924.6561
 Red. masses --      1.0592
 Frc consts  --      2.3117
 IR Inten    --    106.4764

 - Thermochemistry -
 -------------------
 Temperature   298.150 Kelvin.  Pressure   1.00000 Atm.
 Atom     1 has atomic number  1 and mass   1.00783

 Molecular mass:    21.01405 amu.
 Principal axes and moments of inertia in atomic units:
                           1         2         3
     Eigenvalues --     0.00000  52.18019  52.18019
           X            1.00000  -0.00000   0.00000
           Y            0.00000   1.00000   0.00000
           Z            0.00000   0.00000   1.00000
 This molecule is a prolate symmetric top.
 Rotational symmetry number  1.
 Rotational temperature (Kelvin)      1.65990
 Rotational constant (GHZ):          34.586711
    1 imaginary frequencies ignored.
 Zero-point vibrational energy      25485.6 (Joules/Mol)
                                    6.09122 (Kcal/Mol)
 Vibrational temperatures:   1680.64  1680.64  2769.15
          (Kelvin)

 Zero-point correction=                           0.009707 (Hartree/Particle)
 Thermal correction to Energy=                    0.012106
 Thermal correction to Enthalpy=                  0.013050
 Thermal correction to Gibbs Free Energy=        -0.010157
 Sum of electronic and zero-point Energies=           -100.939068
 Sum of electronic and thermal Energies=              -100.936669
 Sum of electronic and thermal Enthalpies=            -100.935725
 Sum of electronic and thermal Free Energies=         -100.958932

                     E (Thermal)             CV                S
                      KCal/Mol        Cal/Mol-Kelvin    Cal/Mol-Kelvin
 Total                    7.597              5.437             48.844
 Electronic               0.000              0.000              1.377
 Translational            0.889              2.981             35.068
 Rotational               0.592              1.987             12.302
 Vibrational              6.116              0.469              0.096

 Normal termination of Gaussian 16 at Fri Aug 22 16:05:48 2025.
