 Gaussian 16, Revision C.01,
 Gaussian 16:  ES64L-G16RevC.01  3-Jul-2019

 -----------------------------------------
 # sp b3lyp/6-311g** Force nosymm scf=(qc)
 -----------------------------------------

 -------------------
 Title Card Required
 -------------------
 Symbolic Z-matrix:
 Charge =  0 Multiplicity = 2

                          Input orientation:
 ---------------------------------------------------------------------
 Center     Atomic      Atomic             Coordinates (Angstroms)
 Number     Number       Type             X           Y           Z
 ---------------------------------------------------------------------
      1          1           0        0.000000    0.000000    0.000000
      2          1           0       -1.050000    0.000000    0.000000
      3          9           0        2.950000    0.000000    0.000000
 ---------------------------------------------------------------------

 SCF Done:  E(UB3LYP) =  -100.899112156     a.u. after   19 cycles

 Alpha  occ. eigenvalues --  -24.76703  -1.22515  -0.55703  -0.46966  -0.46852
 Alpha  occ. eigenvalues --   -0.37987
 Alpha virt. eigenvalues --   -0.00455   0.21988   0.37861   0.85763   0.90635
 Alpha virt. eigenvalues --    0.93579   1.04938   1.10075   1.10083   1.33828
 Alpha virt. eigenvalues --    1.62986   1.62994   2.21575   2.36108   2.56827

  Beta  occ. eigenvalues --  -24.73542  -1.13428  -0.43815  -0.43683  -0.37964
  Beta virt. eigenvalues --   -0.26325  -0.00429   0.22013   0.37949   0.92134
  Beta virt. eigenvalues --    0.95219   0.95338   1.08712   1.10075   1.10082
  Beta virt. eigenvalues --    1.33833   1.62985   1.62993   2.21587   2.36115

 Mulliken charges and spin densities:
               1          2
     1  H   -0.002672  -0.000653
     2  H   -0.006281  -0.000541
     3  F    0.008953   1.001194
 Sum of Mulliken charges =  -0.00000   1.00000

 Dipole moment (field-independent basis, Debye):
    X=              0.1082    Y=             -0.0000    Z=              0.0000  Tot=              0.1082
 Quadrupole moment (field-independent basis, Debye-Ang):
   XX=             -6.1294   YY=             -7.3397   ZZ=             -6.4766
   XY=             -0.0000   XZ=              0.0000   YZ=             -0.0137

  Exact polarizability:      13.576       0.000       2.072       0.000      -0.007       2.531
 Approx polarizability:      18.160      -0.000       2.119       0.000      -0.009       2.697

                      1                      2                      3
                      A                      A                      A
 Frequencies --     48.6656              1411.3392              1541.3027
 Red. masses --      1.1085                 1.0078                 1.0101
 Frc consts  --      0.0015                 1.1828                 1.4138
 IR Inten    --      0.4889                 0.9887                 0.0001

                      4
                      A
 Frequencies --   1543.2158
 Red. masses --      1.0101
 Frc consts  --      1.4173
 IR Inten    --      0.0002

 - Thermochemistry -
 -------------------
 Temperature   298.150 Kelvin.  Pressure   1.00000 Atm.
 Atom     1 has atomic number  1 and mass   1.00783

 Molecular mass:    21.01405 amu.
 Principal axes and moments of inertia in atomic units:
                           1         2         3
     Eigenvalues --     0.00000  80.56716  80.56716
           X            1.00000  -0.00000   0.00000
           Y            0.00000   1.00000   0.00000
           Z            0.00000   0.00000   1.00000
 This molecule is a prolate symmetric top.
 Rotational symmetry number  1.
 Rotational temperature (Kelvin)      1.07505
 Rotational constant (GHZ):          22.400456
 Zero-point vibrational energy      27182.3 (Joules/Mol)
                                    6.49672 (Kcal/Mol)
 Warning -- explicit consideration of   1 degrees of freedom as
           vibrations may cause significant error
 Vibrational temperatures:     70.02  2030.60  2217.59  2220.34
          (Kelvin)

 Zero-point correction=                           0.010353 (Hartree/Particle)
 Thermal correction to Energy=                    0.013567
 Thermal correction to Enthalpy=                  0.014511
 Thermal correction to Gibbs Free Energy=        -0.011393
 Sum of electronic and zero-point Energies=           -100.888759
 Sum of electronic and thermal Energies=              -100.885546
 Sum of electronic and thermal Enthalpies=            -100.884601
 Sum of electronic and thermal Free Energies=         -100.910505

                     E (Thermal)             CV                S
                      KCal/Mol        Cal/Mol-Kelvin    Cal/Mol-Kelvin
 Total                    8.513              7.177             54.519
 Electronic               0.000              0.000              1.377
 Translational            0.889              2.981             35.068
 Rotational               0.592              1.987             13.166
 Vibrational              7.032              2.209              4.908
 Vibration     1          0.595              1.978              4.871

 Normal termination of Gaussian 16 at Fri Aug 22 19:12:00 2025.
