 Gaussian 16, Revision C.01,
 Gaussian 16:  ES64L-G16RevC.01  3-Jul-2019

 -----------------------------------------
 # sp b3lyp/6-311g** Force nosymm scf=(qc)
 -----------------------------------------

 -------------------
 Title Card Required
 -------------------
 Symbolic Z-matrix:
 Charge =  0 Multiplicity = 2

                          Input orientation:
 ---------------------------------------------------------------------
 Center     Atomic      Atomic             Coordinates (Angstroms)
 Number     Number       Type             X           Y           Z
 ---------------------------------------------------------------------
      1          1           0        0.000000    0.000000    0.000000
      2          1           0       -1.150000    0.000000    0.000000
      3          9           0        1.950000    0.000000    0.000000
 ---------------------------------------------------------------------

 SCF Done:  E(UB3LYP) =  -100.887600670     a.u. after   13 cycles

 Alpha  occ. eigenvalues --  -24.72167  -1.18467  -0.52060  -0.43173  -0.43173
 Alpha  occ. eigenvalues --   -0.39786
 Alpha virt. eigenvalues --   -0.03165   0.21491   0.34416   0.89908   0.91950
 Alpha virt. eigenvalues --    0.91950   1.07064   1.09275   1.09275   1.42833
 Alpha virt. eigenvalues --    1.54511   1.54511   2.11883   2.29530   2.54519

  Beta  occ. eigenvalues --  -24.69381  -1.10595  -0.40409  -0.40409  -0.39631
  Beta virt. eigenvalues --   -0.24791  -0.01513   0.22485   0.34965   0.93156
  Beta virt. eigenvalues --    0.93156   0.96633   1.10011   1.10665   1.10665
  Beta virt. eigenvalues --    1.45961   1.55435   1.55435   2.13599   2.30931

 Mulliken charges and spin densities:
               1          2
     1  H    0.047539  -0.106561
     2  H    0.051153   0.234325
     3  F   -0.098692   0.872236
 Sum of Mulliken charges =  -0.00000   1.00000

 Dipole moment (field-independent basis, Debye):
    X=             -1.2158    Y=              0.0000    Z=              0.0000  Tot=              1.2158
 Quadrupole moment (field-independent basis, Debye-Ang):
   XX=             -6.8902   YY=             -7.3226   ZZ=             -7.3226
   XY=              0.0000   XZ=              0.0000   YZ=             -0.0000

  Exact polarizability:      38.514       0.000       2.191       0.000      -0.000       2.191
 Approx polarizability:      54.970      -0.000       2.189      -0.000       0.000       2.189

 ******    1 imaginary frequencies (negative Signs) ******

                      1                      2                      3
                      A                      A                      A
 Frequencies --  -1278.9299               299.6157              1399.8982
 Red. masses --      1.0264                 1.0869                 1.0128
 Frc consts  --      0.9891                 0.0575                 1.1694
 IR Inten    --    963.8600                23.6985                 0.1094

                      4
                      A
 Frequencies --   1399.8982
 Red. masses --      1.0128
 Frc consts  --      1.1694
 IR Inten    --      0.1094

 - Thermochemistry -
 -------------------
 Temperature   298.150 Kelvin.  Pressure   1.00000 Atm.
 Atom     1 has atomic number  1 and mass   1.00783

 Molecular mass:    21.01405 amu.
 Principal axes and moments of inertia in atomic units:
                           1         2         3
     Eigenvalues --     0.00000  43.86979  43.86979
           X            1.00000  -0.00000   0.00000
           Y            0.00000   1.00000   0.00000
           Z            0.00000   0.00000   1.00000
 This molecule is a prolate symmetric top.
 Rotational symmetry number  1.
 Rotational temperature (Kelvin)      1.97434
 Rotational constant (GHZ):          41.138584
    1 imaginary frequencies ignored.
 Zero-point vibrational energy      18538.6 (Joules/Mol)
                                    4.43083 (Kcal/Mol)
 Warning -- explicit consideration of   1 degrees of freedom as
           vibrations may cause significant error
 Vibrational temperatures:    431.08  2014.14  2014.14
          (Kelvin)

 Zero-point correction=                           0.007061 (Hartree/Particle)
 Thermal correction to Energy=                    0.009857
 Thermal correction to Enthalpy=                  0.010801
 Thermal correction to Gibbs Free Energy=        -0.012888
 Sum of electronic and zero-point Energies=           -100.880540
 Sum of electronic and thermal Energies=              -100.877744
 Sum of electronic and thermal Enthalpies=            -100.876800
 Sum of electronic and thermal Free Energies=         -100.900489

                     E (Thermal)             CV                S
                      KCal/Mol        Cal/Mol-Kelvin    Cal/Mol-Kelvin
 Total                    6.185              6.854             49.858
 Electronic               0.000              0.000              1.377
 Translational            0.889              2.981             35.068
 Rotational               0.592              1.987             11.958
 Vibrational              4.704              1.886              1.455
 Vibration     1          0.692              1.674              1.419

 Normal termination of Gaussian 16 at Fri Aug 22 16:52:30 2025.
