 Gaussian 16, Revision C.01,
 Gaussian 16:  ES64L-G16RevC.01  3-Jul-2019

 -----------------------------------------
 # sp b3lyp/6-311g** Force nosymm scf=(qc)
 -----------------------------------------

 -------------------
 Title Card Required
 -------------------
 Symbolic Z-matrix:
 Charge =  0 Multiplicity = 2

                          Input orientation:
 ---------------------------------------------------------------------
 Center     Atomic      Atomic             Coordinates (Angstroms)
 Number     Number       Type             X           Y           Z
 ---------------------------------------------------------------------
      1          1           0        0.000000    0.000000    0.000000
      2          1           0       -0.500000    0.000000    0.000000
      3          9           0        1.250000    0.000000    0.000000
 ---------------------------------------------------------------------

 SCF Done:  E(UB3LYP) =  -100.844239452     a.u. after    6 cycles

 Alpha  occ. eigenvalues --  -24.70169  -1.19165  -0.63985  -0.42720  -0.42720
 Alpha  occ. eigenvalues --   -0.40793
 Alpha virt. eigenvalues --    0.12958   0.19018   0.60913   0.87322   0.87322
 Alpha virt. eigenvalues --    0.94918   1.14196   1.14196   1.52065   1.61840
 Alpha virt. eigenvalues --    1.84516   1.95001   1.95001   2.50090   3.78118

  Beta  occ. eigenvalues --  -24.67587  -1.12400  -0.55942  -0.40282  -0.40282
  Beta virt. eigenvalues --   -0.20148   0.14057   0.19617   0.64128   0.88710
  Beta virt. eigenvalues --    0.88710   1.00518   1.16833   1.16833   1.55625
  Beta virt. eigenvalues --    1.65831   1.85685   1.97034   1.97034   2.54590

 Mulliken charges and spin densities:
               1          2
     1  H    0.210379  -0.012920
     2  H   -0.042211   0.282538
     3  F   -0.168168   0.730383
 Sum of Mulliken charges =   0.00000   1.00000

 Dipole moment (field-independent basis, Debye):
    X=             -1.0591    Y=              0.0000    Z=              0.0000  Tot=              1.0591
 Quadrupole moment (field-independent basis, Debye-Ang):
   XX=             -6.8852   YY=             -6.4033   ZZ=             -6.4033
   XY=              0.0000   XZ=              0.0000   YZ=              0.0000

  Exact polarizability:      12.461       0.000       2.332      -0.000      -0.000       2.332
 Approx polarizability:      14.775       0.000       2.396      -0.000      -0.000       2.396

 ******    2 imaginary frequencies (negative Signs) ******

                      1                      2                      3
                      A                      A                      A
 Frequencies --  -5019.1149             -5019.1149              1214.1915
 Red. masses --      1.0106                 1.0106                 1.1085
 Frc consts  --     14.9992                14.9992                 0.9629
 IR Inten    --      1.3282                 1.3282                32.2238

                      4
                      A
 Frequencies --   9740.8907
 Red. masses --      1.0078
 Frc consts  --     56.3428
 IR Inten    --    372.0818

 - Thermochemistry -
 -------------------
 Temperature   298.150 Kelvin.  Pressure   1.00000 Atm.
 Atom     1 has atomic number  1 and mass   1.00783

 Molecular mass:    21.01405 amu.
 Principal axes and moments of inertia in atomic units:
                           1         2         3
     Eigenvalues --     0.00000  15.09195  15.09195
           X            1.00000  -0.00000   0.00000
           Y            0.00000   1.00000   0.00000
           Z            0.00000   0.00000   1.00000
 This molecule is a prolate symmetric top.
 Rotational symmetry number  1.
 Rotational temperature (Kelvin)      5.73908
 Rotational constant (GHZ):         119.583018
    2 imaginary frequencies ignored.
 Zero-point vibrational energy      65525.9 (Joules/Mol)
                                   15.66108 (Kcal/Mol)
 Vibrational temperatures:   1746.95 14014.97
          (Kelvin)

 Zero-point correction=                           0.024958 (Hartree/Particle)
 Thermal correction to Energy=                    0.027334
 Thermal correction to Enthalpy=                  0.028278
 Thermal correction to Gibbs Free Energy=         0.006269
 Sum of electronic and zero-point Energies=           -100.819282
 Sum of electronic and thermal Energies=              -100.816906
 Sum of electronic and thermal Enthalpies=            -100.815961
 Sum of electronic and thermal Free Energies=         -100.837970

                     E (Thermal)             CV                S
                      KCal/Mol        Cal/Mol-Kelvin    Cal/Mol-Kelvin
 Total                   17.152              5.164             46.322
 Electronic               0.000              0.000              1.377
 Translational            0.889              2.981             35.068
 Rotational               0.592              1.987              9.837
 Vibrational             15.671              0.196              0.039

 Normal termination of Gaussian 16 at Fri Aug 22 16:11:29 2025.
