 Gaussian 16, Revision C.01,
 Gaussian 16:  ES64L-G16RevC.01  3-Jul-2019

 -----------------------------------------
 # sp b3lyp/6-311g** Force nosymm scf=(qc)
 -----------------------------------------

 -------------------
 Title Card Required
 -------------------
 Symbolic Z-matrix:
 Charge =  0 Multiplicity = 2

                          Input orientation:
 ---------------------------------------------------------------------
 Center     Atomic      Atomic             Coordinates (Angstroms)
 Number     Number       Type             X           Y           Z
 ---------------------------------------------------------------------
      1          1           0        0.000000    0.000000    0.000000
      2          1           0       -1.250000    0.000000    0.000000
      3          9           0        3.800000    0.000000    0.000000
 ---------------------------------------------------------------------

 SCF Done:  E(UB3LYP) =  -100.862612170     a.u. after  108 cycles

 Alpha  occ. eigenvalues --  -24.76258  -1.22152  -0.55354  -0.46534  -0.46510
 Alpha  occ. eigenvalues --   -0.35796
 Alpha virt. eigenvalues --   -0.05147   0.23198   0.33422   0.86021   0.90898
 Alpha virt. eigenvalues --    0.91534   1.00973   1.14109   1.14111   1.18775
 Alpha virt. eigenvalues --    1.51863   1.51865   2.02803   2.30181   2.53673

  Beta  occ. eigenvalues --  -24.73102  -1.13078  -0.43370  -0.43346  -0.35795
  Beta virt. eigenvalues --   -0.26002  -0.05145   0.23202   0.33438   0.92398
  Beta virt. eigenvalues --    0.93027   0.95487   1.05114   1.14109   1.14111
  Beta virt. eigenvalues --    1.18780   1.51863   1.51865   2.02806   2.30182

 Mulliken charges and spin densities:
               1          2
     1  H    0.000834  -0.000063
     2  H   -0.002212  -0.000092
     3  F    0.001378   1.000155
 Sum of Mulliken charges =   0.00000   1.00000

 Dipole moment (field-independent basis, Debye):
    X=              0.0280    Y=             -0.0000    Z=             -0.0000  Tot=              0.0280
 Quadrupole moment (field-independent basis, Debye-Ang):
   XX=             -6.3154   YY=             -7.4105   ZZ=             -6.8132
   XY=              0.0000   XZ=             -0.0000   YZ=              0.3126

  Exact polarizability:      16.893      -0.000       2.149      -0.000       0.170       2.473
 Approx polarizability:      26.529       0.000       2.187       0.000       0.211       2.589

 ******    2 imaginary frequencies (negative Signs) ******

                      1                      2                      3
                      A                      A                      A
 Frequencies --   -789.8258               -54.4908              1433.1282
 Red. masses --      1.0078                 1.1085                 1.0098
 Frc consts  --      0.3704                 0.0019                 1.2220
 IR Inten    --      0.0809                 0.0613                 0.0042

                      4
                      A
 Frequencies --   1436.1657
 Red. masses --      1.0098
 Frc consts  --      1.2271
 IR Inten    --      0.0012

 - Thermochemistry -
 -------------------
 Temperature   298.150 Kelvin.  Pressure   1.00000 Atm.
 Atom     1 has atomic number  1 and mass   1.00783

 Molecular mass:    21.01405 amu.
 Principal axes and moments of inertia in atomic units:
                           1         2         3
     Eigenvalues --     0.00000 130.23439 130.23439
           X            1.00000  -0.00000   0.00000
           Y            0.00000   1.00000   0.00000
           Z            0.00000   0.00000   1.00000
 This molecule is a prolate symmetric top.
 Rotational symmetry number  1.
 Rotational temperature (Kelvin)      0.66506
 Rotational constant (GHZ):          13.857639
    2 imaginary frequencies ignored.
 Zero-point vibrational energy      17162.2 (Joules/Mol)
                                    4.10186 (Kcal/Mol)
 Vibrational temperatures:   2061.95  2066.32
          (Kelvin)

 Zero-point correction=                           0.006537 (Hartree/Particle)
 Thermal correction to Energy=                    0.008910
 Thermal correction to Enthalpy=                  0.009854
 Thermal correction to Gibbs Free Energy=        -0.014186
 Sum of electronic and zero-point Energies=           -100.856075
 Sum of electronic and thermal Energies=              -100.853702
 Sum of electronic and thermal Enthalpies=            -100.852758
 Sum of electronic and thermal Free Energies=         -100.876798

                     E (Thermal)             CV                S
                      KCal/Mol        Cal/Mol-Kelvin    Cal/Mol-Kelvin
 Total                    5.591              5.156             50.596
 Electronic               0.000              0.000              1.377
 Translational            0.889              2.981             35.068
 Rotational               0.592              1.987             14.120
 Vibrational              4.110              0.188              0.031

 Normal termination of Gaussian 16 at Sat Aug 23 00:33:56 2025.
