 Gaussian 16, Revision C.01,
 Gaussian 16:  ES64L-G16RevC.01  3-Jul-2019

 -----------------------------------------
 # sp b3lyp/6-311g** Force nosymm scf=(qc)
 -----------------------------------------

 -------------------
 Title Card Required
 -------------------
 Symbolic Z-matrix:
 Charge =  0 Multiplicity = 2

                          Input orientation:
 ---------------------------------------------------------------------
 Center     Atomic      Atomic             Coordinates (Angstroms)
 Number     Number       Type             X           Y           Z
 ---------------------------------------------------------------------
      1          1           0        0.000000    0.000000    0.000000
      2          1           0       -2.400000    0.000000    0.000000
      3          9           0        0.500000    0.000000    0.000000
 ---------------------------------------------------------------------

 SCF Done:  E(UB3LYP) =  -100.268971689     a.u. after    6 cycles

 Alpha  occ. eigenvalues --  -24.63004  -1.42319  -0.63506  -0.44300  -0.44300
 Alpha  occ. eigenvalues --   -0.34306
 Alpha virt. eigenvalues --    0.09883   0.25557   0.60953   0.89202   0.90193
 Alpha virt. eigenvalues --    0.90193   1.18376   1.23249   1.23249   1.50777
 Alpha virt. eigenvalues --    1.58534   1.58534   1.98968   2.17504   3.76667

  Beta  occ. eigenvalues --  -24.62996  -1.42293  -0.63489  -0.44297  -0.44297
  Beta virt. eigenvalues --   -0.07883   0.11222   0.38386   0.60463   0.89329
  Beta virt. eigenvalues --    0.90172   0.90172   1.31591   1.45664   1.45664
  Beta virt. eigenvalues --    1.58518   1.58518   1.60812   2.01171   2.46014

 Mulliken charges and spin densities:
               1          2
     1  H    0.115032   0.004587
     2  H    0.005423   0.993494
     3  F   -0.120455   0.001920
 Sum of Mulliken charges =   0.00000   1.00000

 Dipole moment (field-independent basis, Debye):
    X=             -1.3455    Y=              0.0000    Z=             -0.0000  Tot=              1.3455
 Quadrupole moment (field-independent basis, Debye-Ang):
   XX=             -6.4877   YY=             -6.4298   ZZ=             -6.4298
   XY=              0.0000   XZ=             -0.0000   YZ=             -0.0000

  Exact polarizability:       4.526       0.000       2.436      -0.000       0.000       2.436
 Approx polarizability:       4.456       0.000       2.419       0.000       0.000       2.419

 ******    2 imaginary frequencies (negative Signs) ******

                      1                      2                      3
                      A                      A                      A
 Frequencies --  -9532.7351             -9532.7351               182.5068
 Red. masses --      1.0414                 1.0414                 1.0533
 Frc consts  --     55.7593                55.7593                 0.0207
 IR Inten    --    262.0469               262.0469                 0.0964

                      4
                      A
 Frequencies --  19158.8119
 Red. masses --      1.0583
 Frc consts  --    228.8751
 IR Inten    --     84.8345

 - Thermochemistry -
 -------------------
 Temperature   298.150 Kelvin.  Pressure   1.00000 Atm.
 Atom     1 has atomic number  1 and mass   1.00783

 Molecular mass:    21.01405 amu.
 Principal axes and moments of inertia in atomic units:
                           1         2         3
     Eigenvalues --     0.00000  29.17208  29.17208
           X            1.00000  -0.00000   0.00000
           Y            0.00000   1.00000   0.00000
           Z            0.00000   0.00000   1.00000
 This molecule is a prolate symmetric top.
 Rotational symmetry number  1.
 Rotational temperature (Kelvin)      2.96907
 Rotational constant (GHZ):          61.865363
    2 imaginary frequencies ignored.
 Zero-point vibrational energy     115686.8 (Joules/Mol)
                                   27.64980 (Kcal/Mol)
 Warning -- explicit consideration of   1 degrees of freedom as
           vibrations may cause significant error
 Vibrational temperatures:    262.59 27565.26
          (Kelvin)

 Zero-point correction=                           0.044063 (Hartree/Particle)
 Thermal correction to Energy=                    0.047012
 Thermal correction to Enthalpy=                  0.047956
 Thermal correction to Gibbs Free Energy=         0.024249
 Sum of electronic and zero-point Energies=           -100.224909
 Sum of electronic and thermal Energies=              -100.221960
 Sum of electronic and thermal Enthalpies=            -100.221016
 Sum of electronic and thermal Free Energies=         -100.244722

                     E (Thermal)             CV                S
                      KCal/Mol        Cal/Mol-Kelvin    Cal/Mol-Kelvin
 Total                   29.500              6.832             49.895
 Electronic               0.000              0.000              1.377
 Translational            0.889              2.981             35.068
 Rotational               0.592              1.987             11.147
 Vibrational             28.019              1.864              2.303
 Vibration     1          0.630              1.864              2.303

 Normal termination of Gaussian 16 at Fri Aug 22 15:37:11 2025.
