 Gaussian 16, Revision C.01,
 Gaussian 16:  ES64L-G16RevC.01  3-Jul-2019

 -----------------------------------------
 # sp b3lyp/6-311g** Force nosymm scf=(qc)
 -----------------------------------------

 -------------------
 Title Card Required
 -------------------
 Symbolic Z-matrix:
 Charge =  0 Multiplicity = 2

                          Input orientation:
 ---------------------------------------------------------------------
 Center     Atomic      Atomic             Coordinates (Angstroms)
 Number     Number       Type             X           Y           Z
 ---------------------------------------------------------------------
      1          1           0        0.000000    0.000000    0.000000
      2          1           0       -3.550000    0.000000    0.000000
      3          9           0        2.050000    0.000000    0.000000
 ---------------------------------------------------------------------

 SCF Done:  E(UB3LYP) =  -100.784093920     a.u. after   20 cycles

 Alpha  occ. eigenvalues --  -24.68640  -1.14963  -0.47645  -0.40111  -0.40111
 Alpha  occ. eigenvalues --   -0.33345
 Alpha virt. eigenvalues --   -0.13358   0.22486   0.32344   0.88536   0.94790
 Alpha virt. eigenvalues --    0.94790   1.05736   1.24167   1.24167   1.24255
 Alpha virt. eigenvalues --    1.35949   1.35949   1.58080   2.13980   2.30359

  Beta  occ. eigenvalues --  -24.66191  -1.08100  -0.37693  -0.37693  -0.37629
  Beta virt. eigenvalues --   -0.21076  -0.06878   0.22747   0.37923   0.90233
  Beta virt. eigenvalues --    0.95561   0.95561   1.08144   1.21743   1.21743
  Beta virt. eigenvalues --    1.45456   1.45960   1.45960   1.50543   2.11782

 Mulliken charges and spin densities:
               1          2
     1  H    0.178732  -0.768275
     2  H    0.001352   0.997962
     3  F   -0.180084   0.770313
 Sum of Mulliken charges =  -0.00000   1.00000

 Dipole moment (field-independent basis, Debye):
    X=             -1.8535    Y=             -0.0000    Z=             -0.0000  Tot=              1.8535
 Quadrupole moment (field-independent basis, Debye-Ang):
   XX=             -9.9827   YY=             -7.4995   ZZ=             -7.4995
   XY=             -0.0000   XZ=              0.0000   YZ=              0.0000

  Exact polarizability:      26.380      -0.000       2.055       0.000       0.000       2.055
 Approx polarizability:      37.579      -0.000       1.941       0.000      -0.000       1.941

 ******    2 imaginary frequencies (negative Signs) ******

                      1                      2                      3
                      A                      A                      A
 Frequencies --  -1053.7805              -113.4097               445.9502
 Red. masses --      1.0570                 1.0545                 1.0257
 Frc consts  --      0.6916                 0.0080                 0.1202
 IR Inten    --    117.4417                 0.2111                30.0789

                      4
                      A
 Frequencies --    445.9502
 Red. masses --      1.0257
 Frc consts  --      0.1202
 IR Inten    --     30.0789

 - Thermochemistry -
 -------------------
 Temperature   298.150 Kelvin.  Pressure   1.00000 Atm.
 Atom     1 has atomic number  1 and mass   1.00783

 Molecular mass:    21.01405 amu.
 Principal axes and moments of inertia in atomic units:
                           1         2         3
     Eigenvalues --     0.00000 117.88835 117.88835
           X            1.00000  -0.00000   0.00000
           Y            0.00000   1.00000   0.00000
           Z            0.00000   0.00000   1.00000
 This molecule is a prolate symmetric top.
 Rotational symmetry number  1.
 Rotational temperature (Kelvin)      0.73471
 Rotational constant (GHZ):          15.308902
    2 imaginary frequencies ignored.
 Zero-point vibrational energy       5334.7 (Joules/Mol)
                                    1.27504 (Kcal/Mol)
 Warning -- explicit consideration of   2 degrees of freedom as
           vibrations may cause significant error
 Vibrational temperatures:    641.62   641.62
          (Kelvin)

 Zero-point correction=                           0.002032 (Hartree/Particle)
 Thermal correction to Energy=                    0.004927
 Thermal correction to Enthalpy=                  0.005871
 Thermal correction to Gibbs Free Energy=        -0.018828
 Sum of electronic and zero-point Energies=           -100.782062
 Sum of electronic and thermal Energies=              -100.779167
 Sum of electronic and thermal Enthalpies=            -100.778223
 Sum of electronic and thermal Free Energies=         -100.802922

                     E (Thermal)             CV                S
                      KCal/Mol        Cal/Mol-Kelvin    Cal/Mol-Kelvin
 Total                    3.092              7.708             51.984
 Electronic               0.000              0.000              1.377
 Translational            0.889              2.981             35.068
 Rotational               0.592              1.987             13.922
 Vibrational              1.610              2.740              1.616
 Vibration     1          0.805              1.370              0.808
 Vibration     2          0.805              1.370              0.808

 Normal termination of Gaussian 16 at Fri Aug 22 17:01:40 2025.
