 Gaussian 16, Revision C.01,
 Gaussian 16:  ES64L-G16RevC.01  3-Jul-2019

 -----------------------------------------
 # sp b3lyp/6-311g** Force nosymm scf=(qc)
 -----------------------------------------

 -------------------
 Title Card Required
 -------------------
 Symbolic Z-matrix:
 Charge =  0 Multiplicity = 2

                          Input orientation:
 ---------------------------------------------------------------------
 Center     Atomic      Atomic             Coordinates (Angstroms)
 Number     Number       Type             X           Y           Z
 ---------------------------------------------------------------------
      1          1           0        0.000000    0.000000    0.000000
      2          1           0       -2.850000    0.000000    0.000000
      3          9           0        1.400000    0.000000    0.000000
 ---------------------------------------------------------------------

 SCF Done:  E(UB3LYP) =  -100.877763747     a.u. after    7 cycles

 Alpha  occ. eigenvalues --  -24.64247  -1.10209  -0.44532  -0.36607  -0.36607
 Alpha  occ. eigenvalues --   -0.34831
 Alpha virt. eigenvalues --   -0.11546   0.22212   0.27423   0.93228   0.93228
 Alpha virt. eigenvalues --    1.03204   1.15969   1.22689   1.22689   1.23663
 Alpha virt. eigenvalues --    1.32804   1.32804   1.72382   2.13688   2.21906

  Beta  occ. eigenvalues --  -24.64193  -1.10069  -0.44364  -0.36557  -0.36557
  Beta virt. eigenvalues --   -0.13149  -0.06752   0.25107   0.36995   0.93213
  Beta virt. eigenvalues --    0.93213   1.03344   1.16251   1.32615   1.32615
  Beta virt. eigenvalues --    1.44388   1.44535   1.44535   1.72522   2.21601

 Mulliken charges and spin densities:
               1          2
     1  H    0.351335  -0.008552
     2  H    0.007448   0.991653
     3  F   -0.358783   0.016899
 Sum of Mulliken charges =  -0.00000   1.00000

 Dipole moment (field-independent basis, Debye):
    X=             -2.6004    Y=              0.0000    Z=              0.0000  Tot=              2.6004
 Quadrupole moment (field-independent basis, Debye-Ang):
   XX=             -9.3016   YY=             -7.2654   ZZ=             -7.2654
   XY=              0.0000   XZ=              0.0000   YZ=             -0.0000

  Exact polarizability:      15.906      -0.000       2.241       0.000       0.000       2.241
 Approx polarizability:      24.899      -0.000       2.177      -0.000       0.000       2.177

 ******    2 imaginary frequencies (negative Signs) ******

                      1                      2                      3
                      A                      A                      A
 Frequencies --  -1052.9470              -151.7091              1078.6212
 Red. masses --      1.0539                 1.0577                 1.0283
 Frc consts  --      0.6884                 0.0143                 0.7049
 IR Inten    --     84.9194                 0.9951               118.0762

                      4
                      A
 Frequencies --   1078.6212
 Red. masses --      1.0283
 Frc consts  --      0.7049
 IR Inten    --    118.0762

 - Thermochemistry -
 -------------------
 Temperature   298.150 Kelvin.  Pressure   1.00000 Atm.
 Atom     1 has atomic number  1 and mass   1.00783

 Molecular mass:    21.01405 amu.
 Principal axes and moments of inertia in atomic units:
                           1         2         3
     Eigenvalues --     0.00000  66.55110  66.55110
           X            1.00000  -0.00000   0.00000
           Y            0.00000   1.00000   0.00000
           Z            0.00000   0.00000   1.00000
 This molecule is a prolate symmetric top.
 Rotational symmetry number  1.
 Rotational temperature (Kelvin)      1.30146
 Rotational constant (GHZ):          27.118126
    2 imaginary frequencies ignored.
 Zero-point vibrational energy      12903.2 (Joules/Mol)
                                    3.08393 (Kcal/Mol)
 Vibrational temperatures:   1551.90  1551.90
          (Kelvin)

 Zero-point correction=                           0.004915 (Hartree/Particle)
 Thermal correction to Energy=                    0.007329
 Thermal correction to Enthalpy=                  0.008273
 Thermal correction to Gibbs Free Energy=        -0.015183
 Sum of electronic and zero-point Energies=           -100.872849
 Sum of electronic and thermal Energies=              -100.870434
 Sum of electronic and thermal Enthalpies=            -100.869490
 Sum of electronic and thermal Free Energies=         -100.892946

                     E (Thermal)             CV                S
                      KCal/Mol        Cal/Mol-Kelvin    Cal/Mol-Kelvin
 Total                    4.599              5.566             49.367
 Electronic               0.000              0.000              1.377
 Translational            0.889              2.981             35.068
 Rotational               0.592              1.987             12.786
 Vibrational              3.118              0.598              0.136

 Normal termination of Gaussian 16 at Fri Aug 22 16:20:46 2025.
