 Gaussian 16, Revision C.01,
 Gaussian 16:  ES64L-G16RevC.01  3-Jul-2019

 -----------------------------------------
 # sp b3lyp/6-311g** Force nosymm scf=(qc)
 -----------------------------------------

 -------------------
 Title Card Required
 -------------------
 Symbolic Z-matrix:
 Charge =  0 Multiplicity = 2

                          Input orientation:
 ---------------------------------------------------------------------
 Center     Atomic      Atomic             Coordinates (Angstroms)
 Number     Number       Type             X           Y           Z
 ---------------------------------------------------------------------
      1          1           0        0.000000    0.000000    0.000000
      2          1           0       -2.550000    0.000000    0.000000
      3          9           0        1.200000    0.000000    0.000000
 ---------------------------------------------------------------------

 SCF Done:  E(UB3LYP) =  -100.926206280     a.u. after    7 cycles

 Alpha  occ. eigenvalues --  -24.64161  -1.12132  -0.47688  -0.37369  -0.37369
 Alpha  occ. eigenvalues --   -0.35207
 Alpha virt. eigenvalues --   -0.04934   0.24443   0.28417   0.93331   0.93331
 Alpha virt. eigenvalues --    1.00904   1.20790   1.22327   1.22327   1.31691
 Alpha virt. eigenvalues --    1.34813   1.34813   1.74026   2.13472   2.29422

  Beta  occ. eigenvalues --  -24.64120  -1.12029  -0.47521  -0.37332  -0.37332
  Beta virt. eigenvalues --   -0.11268  -0.02420   0.28249   0.36582   0.93330
  Beta virt. eigenvalues --    0.93330   1.00997   1.27145   1.34722   1.34722
  Beta virt. eigenvalues --    1.43711   1.43711   1.45732   1.74355   2.29064

 Mulliken charges and spin densities:
               1          2
     1  H    0.346570  -0.000673
     2  H    0.009519   0.988089
     3  F   -0.356089   0.012584
 Sum of Mulliken charges =   0.00000   1.00000

 Dipole moment (field-independent basis, Debye):
    X=             -2.4055    Y=             -0.0000    Z=             -0.0000  Tot=              2.4055
 Quadrupole moment (field-independent basis, Debye-Ang):
   XX=             -8.5603   YY=             -7.1235   ZZ=             -7.1235
   XY=              0.0000   XZ=             -0.0000   YZ=              0.0000

  Exact polarizability:      12.497       0.000       2.345      -0.000      -0.000       2.345
 Approx polarizability:      16.144      -0.000       2.303      -0.000      -0.000       2.303

 ******    1 imaginary frequencies (negative Signs) ******

                      1                      2                      3
                      A                      A                      A
 Frequencies --   -173.8436               948.3958              1182.3916
 Red. masses --      1.0467                 1.0651                 1.0290
 Frc consts  --      0.0186                 0.5644                 0.8476
 IR Inten    --      4.7684               114.8829               132.0524

                      4
                      A
 Frequencies --   1182.3916
 Red. masses --      1.0290
 Frc consts  --      0.8476
 IR Inten    --    132.0524

 - Thermochemistry -
 -------------------
 Temperature   298.150 Kelvin.  Pressure   1.00000 Atm.
 Atom     1 has atomic number  1 and mass   1.00783

 Molecular mass:    21.01405 amu.
 Principal axes and moments of inertia in atomic units:
                           1         2         3
     Eigenvalues --     0.00000  51.56433  51.56433
           X            1.00000  -0.00000   0.00000
           Y            0.00000   1.00000   0.00000
           Z            0.00000   0.00000   1.00000
 This molecule is a prolate symmetric top.
 Rotational symmetry number  1.
 Rotational temperature (Kelvin)      1.67973
 Rotational constant (GHZ):          34.999800
    1 imaginary frequencies ignored.
 Zero-point vibrational energy      19817.2 (Joules/Mol)
                                    4.73643 (Kcal/Mol)
 Vibrational temperatures:   1364.53  1701.20  1701.20
          (Kelvin)

 Zero-point correction=                           0.007548 (Hartree/Particle)
 Thermal correction to Energy=                    0.009989
 Thermal correction to Enthalpy=                  0.010934
 Thermal correction to Gibbs Free Energy=        -0.012314
 Sum of electronic and zero-point Energies=           -100.918658
 Sum of electronic and thermal Energies=              -100.916217
 Sum of electronic and thermal Enthalpies=            -100.915273
 Sum of electronic and thermal Free Energies=         -100.938520

                     E (Thermal)             CV                S
                      KCal/Mol        Cal/Mol-Kelvin    Cal/Mol-Kelvin
 Total                    6.268              5.839             48.928
 Electronic               0.000              0.000              1.377
 Translational            0.889              2.981             35.068
 Rotational               0.592              1.987             12.279
 Vibrational              4.787              0.871              0.204

 Normal termination of Gaussian 16 at Fri Aug 22 16:10:32 2025.
