 Gaussian 16, Revision C.01,
 Gaussian 16:  ES64L-G16RevC.01  3-Jul-2019

 -----------------------------------------
 # sp b3lyp/6-311g** Force nosymm scf=(qc)
 -----------------------------------------

 -------------------
 Title Card Required
 -------------------
 Symbolic Z-matrix:
 Charge =  0 Multiplicity = 2

                          Input orientation:
 ---------------------------------------------------------------------
 Center     Atomic      Atomic             Coordinates (Angstroms)
 Number     Number       Type             X           Y           Z
 ---------------------------------------------------------------------
      1          1           0        0.000000    0.000000    0.000000
      2          1           0       -2.350000    0.000000    0.000000
      3          9           0        2.350000    0.000000    0.000000
 ---------------------------------------------------------------------

 SCF Done:  E(UB3LYP) =  -100.776734798     a.u. after   18 cycles

 Alpha  occ. eigenvalues --  -24.70778  -1.17034  -0.49861  -0.41890  -0.41890
 Alpha  occ. eigenvalues --   -0.34391
 Alpha virt. eigenvalues --   -0.12748   0.24697   0.32550   0.89578   0.94122
 Alpha virt. eigenvalues --    0.94122   1.06615   1.23335   1.23335   1.27095
 Alpha virt. eigenvalues --    1.36373   1.36373   1.45679   2.13516   2.31682

  Beta  occ. eigenvalues --  -24.68029  -1.09238  -0.39156  -0.39156  -0.35868
  Beta virt. eigenvalues --   -0.22779  -0.10351   0.26055   0.33940   0.95197
  Beta virt. eigenvalues --    0.95396   0.95396   1.09202   1.22131   1.22131
  Beta virt. eigenvalues --    1.35202   1.40177   1.40177   1.43098   2.13183

 Mulliken charges and spin densities:
               1          2
     1  H    0.094758  -0.822133
     2  H    0.018053   0.954781
     3  F   -0.112812   0.867352
 Sum of Mulliken charges =   0.00000   1.00000

 Dipole moment (field-independent basis, Debye):
    X=             -1.5437    Y=              0.0000    Z=             -0.0000  Tot=              1.5437
 Quadrupole moment (field-independent basis, Debye-Ang):
   XX=             -8.8819   YY=             -7.6025   ZZ=             -7.6025
   XY=              0.0000   XZ=             -0.0000   YZ=             -0.0000

  Exact polarizability:      46.505       0.000       2.020      -0.000      -0.000       2.020
 Approx polarizability:      50.704      -0.000       1.922       0.000      -0.000       1.922

 ******    2 imaginary frequencies (negative Signs) ******

                      1                      2                      3
                      A                      A                      A
 Frequencies --   -989.0519              -404.1122               399.7985
 Red. masses --      1.0195                 1.0947                 1.0179
 Frc consts  --      0.5876                 0.1053                 0.0959
 IR Inten    --     58.2263                34.0285                 6.9198

                      4
                      A
 Frequencies --    399.7985
 Red. masses --      1.0179
 Frc consts  --      0.0959
 IR Inten    --      6.9198

 - Thermochemistry -
 -------------------
 Temperature   298.150 Kelvin.  Pressure   1.00000 Atm.
 Atom     1 has atomic number  1 and mass   1.00783

 Molecular mass:    21.01405 amu.
 Principal axes and moments of inertia in atomic units:
                           1         2         3
     Eigenvalues --     0.00000  90.79863  90.79863
           X            1.00000  -0.00000   0.00000
           Y            0.00000   1.00000   0.00000
           Z            0.00000   0.00000   1.00000
 This molecule is a prolate symmetric top.
 Rotational symmetry number  1.
 Rotational temperature (Kelvin)      0.95391
 Rotational constant (GHZ):          19.876305
    2 imaginary frequencies ignored.
 Zero-point vibrational energy       4782.7 (Joules/Mol)
                                    1.14308 (Kcal/Mol)
 Warning -- explicit consideration of   2 degrees of freedom as
           vibrations may cause significant error
 Vibrational temperatures:    575.22   575.22
          (Kelvin)

 Zero-point correction=                           0.001822 (Hartree/Particle)
 Thermal correction to Energy=                    0.004801
 Thermal correction to Enthalpy=                  0.005745
 Thermal correction to Gibbs Free Energy=        -0.018855
 Sum of electronic and zero-point Energies=           -100.774913
 Sum of electronic and thermal Energies=              -100.771934
 Sum of electronic and thermal Enthalpies=            -100.770989
 Sum of electronic and thermal Free Energies=         -100.795590

                     E (Thermal)             CV                S
                      KCal/Mol        Cal/Mol-Kelvin    Cal/Mol-Kelvin
 Total                    3.013              7.909             51.775
 Electronic               0.000              0.000              1.377
 Translational            0.889              2.981             35.068
 Rotational               0.592              1.987             13.403
 Vibrational              1.532              2.941              1.927
 Vibration     1          0.766              1.471              0.963
 Vibration     2          0.766              1.471              0.963

 Normal termination of Gaussian 16 at Fri Aug 22 17:26:39 2025.
