 Gaussian 16, Revision C.01,
 Gaussian 16:  ES64L-G16RevC.01  3-Jul-2019

 -----------------------------------------
 # sp b3lyp/6-311g** Force nosymm scf=(qc)
 -----------------------------------------

 -------------------
 Title Card Required
 -------------------
 Symbolic Z-matrix:
 Charge =  0 Multiplicity = 2

                          Input orientation:
 ---------------------------------------------------------------------
 Center     Atomic      Atomic             Coordinates (Angstroms)
 Number     Number       Type             X           Y           Z
 ---------------------------------------------------------------------
      1          1           0        0.000000    0.000000    0.000000
      2          1           0       -2.100000    0.000000    0.000000
      3          9           0        3.400000    0.000000    0.000000
 ---------------------------------------------------------------------

 SCF Done:  E(UB3LYP) =  -100.771005189     a.u. after   33 cycles

 Alpha  occ. eigenvalues --  -24.75378  -1.21341  -0.54500  -0.45762  -0.45762
 Alpha  occ. eigenvalues --   -0.33084
 Alpha virt. eigenvalues --   -0.10909   0.25836   0.32656   0.87956   0.91477
 Alpha virt. eigenvalues --    0.91477   1.02031   1.20606   1.24839   1.24839
 Alpha virt. eigenvalues --    1.38325   1.38325   1.47588   2.13304   2.35857

  Beta  occ. eigenvalues --  -24.72269  -1.12408  -0.42646  -0.42646  -0.33226
  Beta virt. eigenvalues --   -0.25519  -0.10538   0.25761   0.33226   0.92964
  Beta virt. eigenvalues --    0.92964   0.97068   1.06056   1.20494   1.24651
  Beta virt. eigenvalues --    1.24651   1.38872   1.38872   1.48015   2.14037

 Mulliken charges and spin densities:
               1          2
     1  H    0.006161  -0.883126
     2  H    0.006286   0.897373
     3  F   -0.012447   0.985752
 Sum of Mulliken charges =  -0.00000   1.00000

 Dipole moment (field-independent basis, Debye):
    X=             -0.2797    Y=              0.0000    Z=             -0.0000  Tot=              0.2797
 Quadrupole moment (field-independent basis, Debye-Ang):
   XX=             -6.8603   YY=             -7.7101   ZZ=             -7.7101
   XY=              0.0000   XZ=             -0.0000   YZ=              0.0000

  Exact polarizability:      45.505       0.000       2.015      -0.000       0.000       2.015
 Approx polarizability:      37.314       0.000       1.932      -0.000       0.000       1.932

 ******    2 imaginary frequencies (negative Signs) ******

                      1                      2                      3
                      A                      A                      A
 Frequencies --  -1183.2591              -152.9636               466.9025
 Red. masses --      1.0079                 1.1085                 1.0132
 Frc consts  --      0.8314                 0.0153                 0.1301
 IR Inten    --     11.6976                 9.8518                 0.0105

                      4
                      A
 Frequencies --    466.9025
 Red. masses --      1.0132
 Frc consts  --      0.1301
 IR Inten    --      0.0105

 - Thermochemistry -
 -------------------
 Temperature   298.150 Kelvin.  Pressure   1.00000 Atm.
 Atom     1 has atomic number  1 and mass   1.00783

 Molecular mass:    21.01405 amu.
 Principal axes and moments of inertia in atomic units:
                           1         2         3
     Eigenvalues --     0.00000 136.80235 136.80235
           X            1.00000  -0.00000   0.00000
           Y            0.00000   1.00000   0.00000
           Z            0.00000   0.00000   1.00000
 This molecule is a prolate symmetric top.
 Rotational symmetry number  1.
 Rotational temperature (Kelvin)      0.63313
 Rotational constant (GHZ):          13.192326
    2 imaginary frequencies ignored.
 Zero-point vibrational energy       5585.4 (Joules/Mol)
                                    1.33494 (Kcal/Mol)
 Warning -- explicit consideration of   2 degrees of freedom as
           vibrations may cause significant error
 Vibrational temperatures:    671.77   671.77
          (Kelvin)

 Zero-point correction=                           0.002127 (Hartree/Particle)
 Thermal correction to Energy=                    0.004987
 Thermal correction to Enthalpy=                  0.005932
 Thermal correction to Gibbs Free Energy=        -0.018849
 Sum of electronic and zero-point Energies=           -100.768878
 Sum of electronic and thermal Energies=              -100.766018
 Sum of electronic and thermal Enthalpies=            -100.765074
 Sum of electronic and thermal Free Energies=         -100.789855

                     E (Thermal)             CV                S
                      KCal/Mol        Cal/Mol-Kelvin    Cal/Mol-Kelvin
 Total                    3.130              7.615             52.156
 Electronic               0.000              0.000              1.377
 Translational            0.889              2.981             35.068
 Rotational               0.592              1.987             14.218
 Vibrational              1.648              2.647              1.493
 Vibration     1          0.824              1.323              0.746
 Vibration     2          0.824              1.323              0.746

 Normal termination of Gaussian 16 at Fri Aug 22 21:16:48 2025.
