 Gaussian 16, Revision C.01,
 Gaussian 16:  ES64L-G16RevC.01  3-Jul-2019

 -----------------------------------------
 # sp b3lyp/6-311g** Force nosymm scf=(qc)
 -----------------------------------------

 -------------------
 Title Card Required
 -------------------
 Symbolic Z-matrix:
 Charge =  0 Multiplicity = 2

                          Input orientation:
 ---------------------------------------------------------------------
 Center     Atomic      Atomic             Coordinates (Angstroms)
 Number     Number       Type             X           Y           Z
 ---------------------------------------------------------------------
      1          1           0        0.000000    0.000000    0.000000
      2          1           0       -1.550000    0.000000    0.000000
      3          9           0        3.800000    0.000000    0.000000
 ---------------------------------------------------------------------

 SCF Done:  E(UB3LYP) =  -100.812655326     a.u. after  166 cycles

 Alpha  occ. eigenvalues --  -24.76255  -1.22152  -0.55355  -0.46533  -0.46511
 Alpha  occ. eigenvalues --   -0.33424
 Alpha virt. eigenvalues --   -0.10060   0.25192   0.30471   0.86016   0.90894
 Alpha virt. eigenvalues --    0.91438   1.00928   1.06888   1.21438   1.21440
 Alpha virt. eigenvalues --    1.40387   1.40389   1.78082   2.20757   2.44988

  Beta  occ. eigenvalues --  -24.73100  -1.13079  -0.43372  -0.43348  -0.33421
  Beta virt. eigenvalues --   -0.26004  -0.10076   0.25182   0.30500   0.92395
  Beta virt. eigenvalues --    0.92913   0.95483   1.05055   1.06894   1.21433
  Beta virt. eigenvalues --    1.21436   1.40383   1.40384   1.78100   2.20824

 Mulliken charges and spin densities:
               1          2
     1  H    0.000963  -0.335069
     2  H   -0.002145   0.334996
     3  F    0.001182   1.000073
 Sum of Mulliken charges =   0.00000   1.00000

 Dipole moment (field-independent basis, Debye):
    X=              0.0288    Y=             -0.0000    Z=              0.0000  Tot=              0.0288
 Quadrupole moment (field-independent basis, Debye-Ang):
   XX=             -6.3796   YY=             -7.0361   ZZ=             -7.6310
   XY=             -0.0000   XZ=              0.0000   YZ=             -0.3137

  Exact polarizability:      23.100      -0.000       2.424       0.000      -0.168       2.105
 Approx polarizability:      42.248      -0.000       2.511       0.000      -0.211       2.110

 ******    2 imaginary frequencies (negative Signs) ******

                      1                      2                      3
                      A                      A                      A
 Frequencies --  -2128.1741               -50.6467              1137.6987
 Red. masses --      1.0078                 1.1085                 1.0106
 Frc consts  --      2.6894                 0.0017                 0.7707
 IR Inten    --      0.0162                 0.0642                 0.0019

                      4
                      A
 Frequencies --   1139.4654
 Red. masses --      1.0106
 Frc consts  --      0.7731
 IR Inten    --      0.0003

 - Thermochemistry -
 -------------------
 Temperature   298.150 Kelvin.  Pressure   1.00000 Atm.
 Atom     1 has atomic number  1 and mass   1.00783

 Molecular mass:    21.01405 amu.
 Principal axes and moments of inertia in atomic units:
                           1         2         3
     Eigenvalues --     0.00000 140.53122 140.53122
           X            1.00000  -0.00000   0.00000
           Y            0.00000   1.00000   0.00000
           Z            0.00000   0.00000   1.00000
 This molecule is a prolate symmetric top.
 Rotational symmetry number  1.
 Rotational temperature (Kelvin)      0.61633
 Rotational constant (GHZ):          12.842279
    2 imaginary frequencies ignored.
 Zero-point vibrational energy      13620.5 (Joules/Mol)
                                    3.25537 (Kcal/Mol)
 Vibrational temperatures:   1636.89  1639.44
          (Kelvin)

 Zero-point correction=                           0.005188 (Hartree/Particle)
 Thermal correction to Energy=                    0.007591
 Thermal correction to Enthalpy=                  0.008535
 Thermal correction to Gibbs Free Energy=        -0.015612
 Sum of electronic and zero-point Energies=           -100.807468
 Sum of electronic and thermal Energies=              -100.805064
 Sum of electronic and thermal Enthalpies=            -100.804120
 Sum of electronic and thermal Free Energies=         -100.828268

                     E (Thermal)             CV                S
                      KCal/Mol        Cal/Mol-Kelvin    Cal/Mol-Kelvin
 Total                    4.763              5.465             50.823
 Electronic               0.000              0.000              1.377
 Translational            0.889              2.981             35.068
 Rotational               0.592              1.987             14.271
 Vibrational              3.282              0.497              0.106

 Normal termination of Gaussian 16 at Sat Aug 23 00:42:17 2025.
