 Gaussian 16, Revision C.01,
 Gaussian 16:  ES64L-G16RevC.01  3-Jul-2019

 -----------------------------------------
 # sp b3lyp/6-311g** Force nosymm scf=(qc)
 -----------------------------------------

 -------------------
 Title Card Required
 -------------------
 Symbolic Z-matrix:
 Charge =  0 Multiplicity = 2

                          Input orientation:
 ---------------------------------------------------------------------
 Center     Atomic      Atomic             Coordinates (Angstroms)
 Number     Number       Type             X           Y           Z
 ---------------------------------------------------------------------
      1          1           0        0.000000    0.000000    0.000000
      2          1           0       -3.000000    0.000000    0.000000
      3          9           0        2.400000    0.000000    0.000000
 ---------------------------------------------------------------------

 SCF Done:  E(UB3LYP) =  -100.770698593     a.u. after   16 cycles

 Alpha  occ. eigenvalues --  -24.71131  -1.17378  -0.50222  -0.42199  -0.42199
 Alpha  occ. eigenvalues --   -0.33328
 Alpha virt. eigenvalues --   -0.11339   0.23918   0.34144   0.89464   0.93927
 Alpha virt. eigenvalues --    0.93927   1.06517   1.24216   1.24216   1.25124
 Alpha virt. eigenvalues --    1.39313   1.39313   1.45802   2.14921   2.34069

  Beta  occ. eigenvalues --  -24.68348  -1.09477  -0.39429  -0.39429  -0.35780
  Beta virt. eigenvalues --   -0.22945  -0.07933   0.24590   0.36706   0.95016
  Beta virt. eigenvalues --    0.95233   0.95233   1.08739   1.21869   1.21869
  Beta virt. eigenvalues --    1.32976   1.44462   1.44462   1.44590   2.13359

 Mulliken charges and spin densities:
               1          2
     1  H    0.102043  -0.870881
     2  H    0.003590   0.992426
     3  F   -0.105633   0.878455
 Sum of Mulliken charges =   0.00000   1.00000

 Dipole moment (field-independent basis, Debye):
    X=             -1.3360    Y=              0.0000    Z=              0.0000  Tot=              1.3360
 Quadrupole moment (field-independent basis, Debye-Ang):
   XX=             -9.3250   YY=             -7.5707   ZZ=             -7.5707
   XY=              0.0000   XZ=             -0.0000   YZ=             -0.0000

  Exact polarizability:      33.553       0.000       2.025      -0.000       0.000       2.025
 Approx polarizability:      41.322       0.000       1.920      -0.000       0.000       1.920

 ******    2 imaginary frequencies (negative Signs) ******

                      1                      2                      3
                      A                      A                      A
 Frequencies --   -717.3329              -216.2684               287.1459
 Red. masses --      1.0471                 1.0646                 1.0209
 Frc consts  --      0.3175                 0.0293                 0.0496
 IR Inten    --     84.4564                 2.8329                 9.5087

                      4
                      A
 Frequencies --    287.1459
 Red. masses --      1.0209
 Frc consts  --      0.0496
 IR Inten    --      9.5087

 - Thermochemistry -
 -------------------
 Temperature   298.150 Kelvin.  Pressure   1.00000 Atm.
 Atom     1 has atomic number  1 and mass   1.00783

 Molecular mass:    21.01405 amu.
 Principal axes and moments of inertia in atomic units:
                           1         2         3
     Eigenvalues --     0.00000 115.17597 115.17597
           X            1.00000  -0.00000   0.00000
           Y            0.00000   1.00000   0.00000
           Z            0.00000   0.00000   1.00000
 This molecule is a prolate symmetric top.
 Rotational symmetry number  1.
 Rotational temperature (Kelvin)      0.75201
 Rotational constant (GHZ):          15.669424
    2 imaginary frequencies ignored.
 Zero-point vibrational energy       3435.0 (Joules/Mol)
                                    0.82099 (Kcal/Mol)
 Warning -- explicit consideration of   2 degrees of freedom as
           vibrations may cause significant error
 Vibrational temperatures:    413.14   413.14
          (Kelvin)

 Zero-point correction=                           0.001308 (Hartree/Particle)
 Thermal correction to Energy=                    0.004542
 Thermal correction to Enthalpy=                  0.005486
 Thermal correction to Gibbs Free Energy=        -0.019840
 Sum of electronic and zero-point Energies=           -100.769390
 Sum of electronic and thermal Energies=              -100.766157
 Sum of electronic and thermal Enthalpies=            -100.765213
 Sum of electronic and thermal Free Energies=         -100.790539

                     E (Thermal)             CV                S
                      KCal/Mol        Cal/Mol-Kelvin    Cal/Mol-Kelvin
 Total                    2.850              8.363             53.303
 Electronic               0.000              0.000              1.377
 Translational            0.889              2.981             35.068
 Rotational               0.592              1.987             13.876
 Vibrational              1.369              3.395              2.981
 Vibration     1          0.684              1.698              1.491
 Vibration     2          0.684              1.698              1.491

 Normal termination of Gaussian 16 at Fri Aug 22 17:33:05 2025.
