 Gaussian 16, Revision C.01,
 Gaussian 16:  ES64L-G16RevC.01  3-Jul-2019

 -----------------------------------------
 # sp b3lyp/6-311g** Force nosymm scf=(qc)
 -----------------------------------------

 -------------------
 Title Card Required
 -------------------
 Symbolic Z-matrix:
 Charge =  0 Multiplicity = 2

                          Input orientation:
 ---------------------------------------------------------------------
 Center     Atomic      Atomic             Coordinates (Angstroms)
 Number     Number       Type             X           Y           Z
 ---------------------------------------------------------------------
      1          1           0        0.000000    0.000000    0.000000
      2          1           0       -0.700000    0.000000    0.000000
      3          9           0        3.950000    0.000000    0.000000
 ---------------------------------------------------------------------

 SCF Done:  E(UB3LYP) =  -100.932227754     a.u. after   76 cycles

 Alpha  occ. eigenvalues --  -24.76176  -1.22070  -0.55274  -0.46449  -0.46430
 Alpha  occ. eigenvalues --   -0.44256
 Alpha virt. eigenvalues --    0.06672   0.19481   0.48365   0.86098   0.90975
 Alpha virt. eigenvalues --    0.91735   1.01092   1.08901   1.08903   1.57335
 Alpha virt. eigenvalues --    1.85799   1.85802   1.89077   2.37694   3.56833

  Beta  occ. eigenvalues --  -24.73021  -1.12995  -0.44266  -0.43275  -0.43266
  Beta virt. eigenvalues --   -0.25923   0.06678   0.19484   0.48389   0.92475
  Beta virt. eigenvalues --    0.93223   0.95564   1.05227   1.08901   1.08903
  Beta virt. eigenvalues --    1.57338   1.85799   1.85801   1.89085   2.37694

 Mulliken charges and spin densities:
               1          2
     1  H    0.000152  -0.000164
     2  H   -0.001549   0.000015
     3  F    0.001396   1.000149
 Sum of Mulliken charges =   0.00000   1.00000

 Dipole moment (field-independent basis, Debye):
    X=              0.0212    Y=              0.0000    Z=              0.0000  Tot=              0.0212
 Quadrupole moment (field-independent basis, Debye-Ang):
   XX=             -6.2856   YY=             -6.1857   ZZ=             -6.7104
   XY=              0.0000   XZ=              0.0000   YZ=              0.3436

  Exact polarizability:       7.398       0.000       2.304       0.000       0.185       2.021
 Approx polarizability:       8.404       0.000       2.475       0.000       0.232       2.122

 ******    3 imaginary frequencies (negative Signs) ******

                      1                      2                      3
                      A                      A                      A
 Frequencies --  -1184.3628             -1182.3786               -60.0658
 Red. masses --      1.0085                 1.0085                 1.1085
 Frc consts  --      0.8335                 0.8307                 0.0024
 IR Inten    --      0.0001                 0.0000                 0.0459

                      4
                      A
 Frequencies --   5087.6953
 Red. masses --      1.0078
 Frc consts  --     15.3701
 IR Inten    --      0.0182

 - Thermochemistry -
 -------------------
 Temperature   298.150 Kelvin.  Pressure   1.00000 Atm.
 Atom     1 has atomic number  1 and mass   1.00783

 Molecular mass:    21.01405 amu.
 Principal axes and moments of inertia in atomic units:
                           1         2         3
     Eigenvalues --     0.00000 121.20709 121.20709
           X            1.00000  -0.00000   0.00000
           Y            0.00000   1.00000   0.00000
           Z            0.00000   0.00000   1.00000
 This molecule is a prolate symmetric top.
 Rotational symmetry number  1.
 Rotational temperature (Kelvin)      0.71459
 Rotational constant (GHZ):          14.889734
    3 imaginary frequencies ignored.
 Zero-point vibrational energy      30431.2 (Joules/Mol)
                                    7.27323 (Kcal/Mol)
 Vibrational temperatures:   7320.06
          (Kelvin)

 Zero-point correction=                           0.011591 (Hartree/Particle)
 Thermal correction to Energy=                    0.013951
 Thermal correction to Enthalpy=                  0.014895
 Thermal correction to Gibbs Free Energy=        -0.009062
 Sum of electronic and zero-point Energies=           -100.920637
 Sum of electronic and thermal Energies=              -100.918277
 Sum of electronic and thermal Enthalpies=            -100.917332
 Sum of electronic and thermal Free Energies=         -100.941290

                     E (Thermal)             CV                S
                      KCal/Mol        Cal/Mol-Kelvin    Cal/Mol-Kelvin
 Total                    8.754              4.968             50.423
 Electronic               0.000              0.000              1.377
 Translational            0.889              2.981             35.068
 Rotational               0.592              1.987             13.977
 Vibrational              7.273              0.000              0.000

 Normal termination of Gaussian 16 at Sat Aug 23 01:29:37 2025.
