 Gaussian 16, Revision C.01,
 Gaussian 16:  ES64L-G16RevC.01  3-Jul-2019

 -----------------------------------------
 # sp b3lyp/6-311g** Force nosymm scf=(qc)
 -----------------------------------------

 -------------------
 Title Card Required
 -------------------
 Symbolic Z-matrix:
 Charge =  0 Multiplicity = 2

                          Input orientation:
 ---------------------------------------------------------------------
 Center     Atomic      Atomic             Coordinates (Angstroms)
 Number     Number       Type             X           Y           Z
 ---------------------------------------------------------------------
      1          1           0        0.000000    0.000000    0.000000
      2          1           0       -2.700000    0.000000    0.000000
      3          9           0        2.850000    0.000000    0.000000
 ---------------------------------------------------------------------

 SCF Done:  E(UB3LYP) =  -100.764420975     a.u. after   21 cycles

 Alpha  occ. eigenvalues --  -24.73538  -1.19634  -0.52653  -0.44213  -0.44213
 Alpha  occ. eigenvalues --   -0.33050
 Alpha virt. eigenvalues --   -0.10256   0.24992   0.34018   0.89959   0.92605
 Alpha virt. eigenvalues --    0.92605   1.04876   1.24539   1.24539   1.26225
 Alpha virt. eigenvalues --    1.40534   1.40534   1.41823   2.15533   2.37096

  Beta  occ. eigenvalues --  -24.70550  -1.11085  -0.41226  -0.41226  -0.34168
  Beta virt. eigenvalues --   -0.24468  -0.08610   0.25278   0.35580   0.94052
  Beta virt. eigenvalues --    0.94052   0.98457   1.08616   1.23246   1.23246
  Beta virt. eigenvalues --    1.25305   1.43140   1.43140   1.43834   2.16053

 Mulliken charges and spin densities:
               1          2
     1  H    0.044242  -0.929416
     2  H    0.004307   0.983410
     3  F   -0.048550   0.946006
 Sum of Mulliken charges =  -0.00000   1.00000

 Dipole moment (field-independent basis, Debye):
    X=             -0.7649    Y=             -0.0000    Z=              0.0000  Tot=              0.7649
 Quadrupole moment (field-independent basis, Debye-Ang):
   XX=             -8.3547   YY=             -7.6289   ZZ=             -7.6289
   XY=             -0.0000   XZ=              0.0000   YZ=             -0.0000

  Exact polarizability:      40.065      -0.000       2.017       0.000       0.000       2.017
 Approx polarizability:      39.882      -0.000       1.921       0.000      -0.000       1.921

 ******    2 imaginary frequencies (negative Signs) ******

                      1                      2                      3
                      A                      A                      A
 Frequencies --   -593.8203              -246.0569               224.6842
 Red. masses --      1.0175                 1.0971                 1.0173
 Frc consts  --      0.2114                 0.0391                 0.0303
 IR Inten    --     37.1177                14.5402                 1.6611

                      4
                      A
 Frequencies --    224.6842
 Red. masses --      1.0173
 Frc consts  --      0.0303
 IR Inten    --      1.6611

 - Thermochemistry -
 -------------------
 Temperature   298.150 Kelvin.  Pressure   1.00000 Atm.
 Atom     1 has atomic number  1 and mass   1.00783

 Molecular mass:    21.01405 amu.
 Principal axes and moments of inertia in atomic units:
                           1         2         3
     Eigenvalues --     0.00000 127.91226 127.91226
           X            1.00000  -0.00000   0.00000
           Y            0.00000   1.00000   0.00000
           Z            0.00000   0.00000   1.00000
 This molecule is a prolate symmetric top.
 Rotational symmetry number  1.
 Rotational temperature (Kelvin)      0.67714
 Rotational constant (GHZ):          14.109212
    2 imaginary frequencies ignored.
 Zero-point vibrational energy       2687.8 (Joules/Mol)
                                    0.64240 (Kcal/Mol)
 Warning -- explicit consideration of   2 degrees of freedom as
           vibrations may cause significant error
 Vibrational temperatures:    323.27   323.27
          (Kelvin)

 Zero-point correction=                           0.001024 (Hartree/Particle)
 Thermal correction to Energy=                    0.004430
 Thermal correction to Enthalpy=                  0.005374
 Thermal correction to Gibbs Free Energy=        -0.020459
 Sum of electronic and zero-point Energies=           -100.763397
 Sum of electronic and thermal Energies=              -100.759991
 Sum of electronic and thermal Enthalpies=            -100.759046
 Sum of electronic and thermal Free Energies=         -100.784880

                     E (Thermal)             CV                S
                      KCal/Mol        Cal/Mol-Kelvin    Cal/Mol-Kelvin
 Total                    2.780              8.575             54.372
 Electronic               0.000              0.000              1.377
 Translational            0.889              2.981             35.068
 Rotational               0.592              1.987             14.084
 Vibrational              1.299              3.607              3.842
 Vibration     1          0.649              1.803              1.921
 Vibration     2          0.649              1.803              1.921

 Normal termination of Gaussian 16 at Fri Aug 22 18:54:06 2025.
