 Gaussian 16, Revision C.01,
 Gaussian 16:  ES64L-G16RevC.01  3-Jul-2019

 -----------------------------------------
 # sp b3lyp/6-311g** Force nosymm scf=(qc)
 -----------------------------------------

 -------------------
 Title Card Required
 -------------------
 Symbolic Z-matrix:
 Charge =  0 Multiplicity = 2

                          Input orientation:
 ---------------------------------------------------------------------
 Center     Atomic      Atomic             Coordinates (Angstroms)
 Number     Number       Type             X           Y           Z
 ---------------------------------------------------------------------
      1          1           0        0.000000    0.000000    0.000000
      2          1           0       -1.300000    0.000000    0.000000
      3          9           0        2.300000    0.000000    0.000000
 ---------------------------------------------------------------------

 SCF Done:  E(UB3LYP) =  -100.857141907     a.u. after   17 cycles

 Alpha  occ. eigenvalues --  -24.73605  -1.19726  -0.52917  -0.44313  -0.44313
 Alpha  occ. eigenvalues --   -0.37450
 Alpha virt. eigenvalues --   -0.07084   0.22718   0.33207   0.88164   0.92245
 Alpha virt. eigenvalues --    0.92245   1.06191   1.13194   1.13194   1.23290
 Alpha virt. eigenvalues --    1.47396   1.47396   1.96764   2.26554   2.52221

  Beta  occ. eigenvalues --  -24.70662  -1.11330  -0.41376  -0.41376  -0.37019
  Beta virt. eigenvalues --   -0.25242  -0.06064   0.23407   0.33648   0.93629
  Beta virt. eigenvalues --    0.93629   0.95270   1.09003   1.13911   1.13911
  Beta virt. eigenvalues --    1.26257   1.47966   1.47966   1.97592   2.27466

 Mulliken charges and spin densities:
               1          2
     1  H    0.016762  -0.114307
     2  H    0.039917   0.186002
     3  F   -0.056679   0.928305
 Sum of Mulliken charges =  -0.00000   1.00000

 Dipole moment (field-independent basis, Debye):
    X=             -0.8975    Y=              0.0000    Z=             -0.0000  Tot=              0.8975
 Quadrupole moment (field-independent basis, Debye-Ang):
   XX=             -6.6096   YY=             -7.5219   ZZ=             -7.5219
   XY=              0.0000   XZ=             -0.0000   YZ=              0.0000

  Exact polarizability:      46.786       0.000       2.113      -0.000      -0.000       2.113
 Approx polarizability:      65.153      -0.000       2.106       0.000      -0.000       2.106

 ******    2 imaginary frequencies (negative Signs) ******

                      1                      2                      3
                      A                      A                      A
 Frequencies --  -1440.2647              -263.0891              1337.3181
 Red. masses --      1.0109                 1.1048                 1.0125
 Frc consts  --      1.2355                 0.0451                 1.0669
 IR Inten    --    738.4428                 9.8029                 0.0019

                      4
                      A
 Frequencies --   1337.3181
 Red. masses --      1.0125
 Frc consts  --      1.0669
 IR Inten    --      0.0019

 - Thermochemistry -
 -------------------
 Temperature   298.150 Kelvin.  Pressure   1.00000 Atm.
 Atom     1 has atomic number  1 and mass   1.00783

 Molecular mass:    21.01405 amu.
 Principal axes and moments of inertia in atomic units:
                           1         2         3
     Eigenvalues --     0.00000  59.67346  59.67346
           X            1.00000  -0.00000   0.00000
           Y            0.00000   1.00000   0.00000
           Z            0.00000   0.00000   1.00000
 This molecule is a prolate symmetric top.
 Rotational symmetry number  1.
 Rotational temperature (Kelvin)      1.45146
 Rotational constant (GHZ):          30.243616
    2 imaginary frequencies ignored.
 Zero-point vibrational energy      15997.9 (Joules/Mol)
                                    3.82358 (Kcal/Mol)
 Vibrational temperatures:   1924.10  1924.10
          (Kelvin)

 Zero-point correction=                           0.006093 (Hartree/Particle)
 Thermal correction to Energy=                    0.008473
 Thermal correction to Enthalpy=                  0.009417
 Thermal correction to Gibbs Free Energy=        -0.013893
 Sum of electronic and zero-point Energies=           -100.851049
 Sum of electronic and thermal Energies=              -100.848669
 Sum of electronic and thermal Enthalpies=            -100.847725
 Sum of electronic and thermal Free Energies=         -100.871035

                     E (Thermal)             CV                S
                      KCal/Mol        Cal/Mol-Kelvin    Cal/Mol-Kelvin
 Total                    5.317              5.230             49.061
 Electronic               0.000              0.000              1.377
 Translational            0.889              2.981             35.068
 Rotational               0.592              1.987             12.569
 Vibrational              3.836              0.262              0.047

 Normal termination of Gaussian 16 at Fri Aug 22 17:21:10 2025.
