 Gaussian 16, Revision C.01,
 Gaussian 16:  ES64L-G16RevC.01  3-Jul-2019

 -----------------------------------------
 # sp b3lyp/6-311g** Force nosymm scf=(qc)
 -----------------------------------------

 -------------------
 Title Card Required
 -------------------
 Symbolic Z-matrix:
 Charge =  0 Multiplicity = 2

                          Input orientation:
 ---------------------------------------------------------------------
 Center     Atomic      Atomic             Coordinates (Angstroms)
 Number     Number       Type             X           Y           Z
 ---------------------------------------------------------------------
      1          1           0        0.000000    0.000000    0.000000
      2          1           0       -1.800000    0.000000    0.000000
      3          9           0        3.350000    0.000000    0.000000
 ---------------------------------------------------------------------

 SCF Done:  E(UB3LYP) =  -100.786503504     a.u. after   30 cycles

 Alpha  occ. eigenvalues --  -24.75486  -1.21443  -0.54610  -0.45858  -0.45858
 Alpha  occ. eigenvalues --   -0.33474
 Alpha virt. eigenvalues --   -0.11280   0.25596   0.30897   0.88130   0.91394
 Alpha virt. eigenvalues --    0.91394   1.02145   1.09549   1.24136   1.24136
 Alpha virt. eigenvalues --    1.37134   1.37134   1.60969   2.14503   2.39524

  Beta  occ. eigenvalues --  -24.72375  -1.12503  -0.42740  -0.42740  -0.33460
  Beta virt. eigenvalues --   -0.25628  -0.11080   0.25621   0.31283   0.92882
  Beta virt. eigenvalues --    0.92882   0.97209   1.06160   1.09625   1.24149
  Beta virt. eigenvalues --    1.24149   1.37363   1.37363   1.61195   2.15147

 Mulliken charges and spin densities:
               1          2
     1  H    0.001703  -0.713896
     2  H    0.009747   0.727506
     3  F   -0.011450   0.986391
 Sum of Mulliken charges =   0.00000   1.00000

 Dipole moment (field-independent basis, Debye):
    X=             -0.2790    Y=              0.0000    Z=              0.0000  Tot=              0.2790
 Quadrupole moment (field-independent basis, Debye-Ang):
   XX=             -6.4216   YY=             -7.7509   ZZ=             -7.7509
   XY=              0.0000   XZ=              0.0000   YZ=             -0.0000

  Exact polarizability:      49.174      -0.000       1.995      -0.000      -0.000       1.995
 Approx polarizability:      50.269       0.000       1.957       0.000       0.000       1.957

 ******    2 imaginary frequencies (negative Signs) ******

                      1                      2                      3
                      A                      A                      A
 Frequencies --  -1733.7896              -152.5968               766.9078
 Red. masses --      1.0078                 1.1085                 1.0122
 Frc consts  --      1.7850                 0.0152                 0.3507
 IR Inten    --     28.1240                10.2777                 0.0044

                      4
                      A
 Frequencies --    766.9078
 Red. masses --      1.0122
 Frc consts  --      0.3507
 IR Inten    --      0.0044

 - Thermochemistry -
 -------------------
 Temperature   298.150 Kelvin.  Pressure   1.00000 Atm.
 Atom     1 has atomic number  1 and mass   1.00783

 Molecular mass:    21.01405 amu.
 Principal axes and moments of inertia in atomic units:
                           1         2         3
     Eigenvalues --     0.00000 123.37373 123.37373
           X            1.00000  -0.00000   0.00000
           Y            0.00000   1.00000   0.00000
           Z            0.00000   0.00000   1.00000
 This molecule is a prolate symmetric top.
 Rotational symmetry number  1.
 Rotational temperature (Kelvin)      0.70205
 Rotational constant (GHZ):          14.628246
    2 imaginary frequencies ignored.
 Zero-point vibrational energy       9174.3 (Joules/Mol)
                                    2.19270 (Kcal/Mol)
 Vibrational temperatures:   1103.41  1103.41
          (Kelvin)

 Zero-point correction=                           0.003494 (Hartree/Particle)
 Thermal correction to Energy=                    0.006032
 Thermal correction to Enthalpy=                  0.006976
 Thermal correction to Gibbs Free Energy=        -0.017222
 Sum of electronic and zero-point Energies=           -100.783009
 Sum of electronic and thermal Energies=              -100.780472
 Sum of electronic and thermal Enthalpies=            -100.779528
 Sum of electronic and thermal Free Energies=         -100.803726

                     E (Thermal)             CV                S
                      KCal/Mol        Cal/Mol-Kelvin    Cal/Mol-Kelvin
 Total                    3.785              6.382             50.930
 Electronic               0.000              0.000              1.377
 Translational            0.889              2.981             35.068
 Rotational               0.592              1.987             14.012
 Vibrational              2.304              1.414              0.472

 Normal termination of Gaussian 16 at Fri Aug 22 21:00:52 2025.
