 Gaussian 16, Revision C.01,
 Gaussian 16:  ES64L-G16RevC.01  3-Jul-2019

 -----------------------------------------
 # sp b3lyp/6-311g** Force nosymm scf=(qc)
 -----------------------------------------

 -------------------
 Title Card Required
 -------------------
 Symbolic Z-matrix:
 Charge =  0 Multiplicity = 2

                          Input orientation:
 ---------------------------------------------------------------------
 Center     Atomic      Atomic             Coordinates (Angstroms)
 Number     Number       Type             X           Y           Z
 ---------------------------------------------------------------------
      1          1           0        0.000000    0.000000    0.000000
      2          1           0       -3.450000    0.000000    0.000000
      3          9           0        2.900000    0.000000    0.000000
 ---------------------------------------------------------------------

 SCF Done:  E(UB3LYP) =  -100.761892104     a.u. after   21 cycles

 Alpha  occ. eigenvalues --  -24.73704  -1.19792  -0.52822  -0.44356  -0.44356
 Alpha  occ. eigenvalues --   -0.32616
 Alpha virt. eigenvalues --   -0.08573   0.23983   0.35895   0.89682   0.92503
 Alpha virt. eigenvalues --    0.92503   1.04487   1.24893   1.24893   1.25090
 Alpha virt. eigenvalues --    1.43416   1.43416   1.43843   2.14827   2.39355

  Beta  occ. eigenvalues --  -24.70704  -1.11202  -0.41354  -0.41354  -0.33997
  Beta virt. eigenvalues --   -0.24555  -0.06689   0.24033   0.37799   0.93955
  Beta virt. eigenvalues --    0.93955   0.98191   1.08096   1.23326   1.23326
  Beta virt. eigenvalues --    1.24211   1.45692   1.45957   1.45957   2.14813

 Mulliken charges and spin densities:
               1          2
     1  H    0.044502  -0.948053
     2  H    0.000595   0.997668
     3  F   -0.045097   0.950385
 Sum of Mulliken charges =  -0.00000   1.00000

 Dipole moment (field-independent basis, Debye):
    X=             -0.6810    Y=              0.0000    Z=             -0.0000  Tot=              0.6810
 Quadrupole moment (field-independent basis, Debye-Ang):
   XX=             -8.5017   YY=             -7.6053   ZZ=             -7.6053
   XY=              0.0000   XZ=             -0.0000   YZ=              0.0000

  Exact polarizability:      32.469       0.000       2.024      -0.000       0.000       2.024
 Approx polarizability:      34.594       0.000       1.924      -0.000      -0.000       1.924

 ******    2 imaginary frequencies (negative Signs) ******

                      1                      2                      3
                      A                      A                      A
 Frequencies --   -418.7534              -125.5700               150.6500
 Red. masses --      1.0474                 1.0643                 1.0202
 Frc consts  --      0.1082                 0.0099                 0.0136
 IR Inten    --     46.5385                 0.7027                 1.8586

                      4
                      A
 Frequencies --    150.6500
 Red. masses --      1.0202
 Frc consts  --      0.0136
 IR Inten    --      1.8586

 - Thermochemistry -
 -------------------
 Temperature   298.150 Kelvin.  Pressure   1.00000 Atm.
 Atom     1 has atomic number  1 and mass   1.00783

 Molecular mass:    21.01405 amu.
 Principal axes and moments of inertia in atomic units:
                           1         2         3
     Eigenvalues --     0.00000 160.62000 160.62000
           X            1.00000  -0.00000   0.00000
           Y            0.00000   1.00000   0.00000
           Z            0.00000   0.00000   1.00000
 This molecule is a prolate symmetric top.
 Rotational symmetry number  1.
 Rotational temperature (Kelvin)      0.53925
 Rotational constant (GHZ):          11.236092
    2 imaginary frequencies ignored.
 Zero-point vibrational energy       1802.2 (Joules/Mol)
                                    0.43073 (Kcal/Mol)
 Warning -- explicit consideration of   2 degrees of freedom as
           vibrations may cause significant error
 Vibrational temperatures:    216.75   216.75
          (Kelvin)

 Zero-point correction=                           0.000686 (Hartree/Particle)
 Thermal correction to Energy=                    0.004331
 Thermal correction to Enthalpy=                  0.005275
 Thermal correction to Gibbs Free Energy=        -0.021479
 Sum of electronic and zero-point Energies=           -100.761206
 Sum of electronic and thermal Energies=              -100.757561
 Sum of electronic and thermal Enthalpies=            -100.756617
 Sum of electronic and thermal Free Energies=         -100.783371

                     E (Thermal)             CV                S
                      KCal/Mol        Cal/Mol-Kelvin    Cal/Mol-Kelvin
 Total                    2.718              8.772             56.310
 Electronic               0.000              0.000              1.377
 Translational            0.889              2.981             35.068
 Rotational               0.592              1.987             14.537
 Vibrational              1.237              3.804              5.328
 Vibration     1          0.618              1.902              2.664
 Vibration     2          0.618              1.902              2.664

 Normal termination of Gaussian 16 at Fri Aug 22 19:04:44 2025.
