 Gaussian 16, Revision C.01,
 Gaussian 16:  ES64L-G16RevC.01  3-Jul-2019

 -----------------------------------------
 # sp b3lyp/6-311g** Force nosymm scf=(qc)
 -----------------------------------------

 -------------------
 Title Card Required
 -------------------
 Symbolic Z-matrix:
 Charge =  0 Multiplicity = 2

                          Input orientation:
 ---------------------------------------------------------------------
 Center     Atomic      Atomic             Coordinates (Angstroms)
 Number     Number       Type             X           Y           Z
 ---------------------------------------------------------------------
      1          1           0        0.000000    0.000000    0.000000
      2          1           0       -0.800000    0.000000    0.000000
      3          9           0        3.850000    0.000000    0.000000
 ---------------------------------------------------------------------

 SCF Done:  E(UB3LYP) =  -100.931849068     a.u. after  167 cycles

 Alpha  occ. eigenvalues --  -24.76211  -1.22101  -0.55304  -0.46482  -0.46460
 Alpha  occ. eigenvalues --   -0.42201
 Alpha virt. eigenvalues --    0.04727   0.20106   0.44886   0.86072   0.90949
 Alpha virt. eigenvalues --    0.91813   1.01135   1.08272   1.08274   1.52146
 Alpha virt. eigenvalues --    1.78935   1.78937   2.03865   2.37871   3.05361

  Beta  occ. eigenvalues --  -24.73055  -1.13026  -0.43325  -0.43296  -0.42193
  Beta virt. eigenvalues --   -0.25952   0.04732   0.20110   0.44912   0.92450
  Beta virt. eigenvalues --    0.93304   0.95538   1.05267   1.08272   1.08274
  Beta virt. eigenvalues --    1.52149   1.78935   1.78937   2.03872   2.37871

 Mulliken charges and spin densities:
               1          2
     1  H    0.000166  -0.000177
     2  H   -0.001822  -0.000003
     3  F    0.001656   1.000180
 Sum of Mulliken charges =   0.00000   1.00000

 Dipole moment (field-independent basis, Debye):
    X=              0.0252    Y=             -0.0000    Z=             -0.0000  Tot=              0.0252
 Quadrupole moment (field-independent basis, Debye-Ang):
   XX=             -6.2959   YY=             -6.1665   ZZ=             -7.0068
   XY=             -0.0000   XZ=             -0.0000   YZ=              0.1018

  Exact polarizability:       8.774      -0.000       2.442      -0.000       0.055       1.990
 Approx polarizability:      10.404      -0.000       2.629      -0.000       0.069       2.063

 ******    1 imaginary frequencies (negative Signs) ******

                      1                      2                      3
                      A                      A                      A
 Frequencies --    -50.6392              1069.7787              1071.2711
 Red. masses --      1.1085                 1.0087                 1.0087
 Frc consts  --      0.0017                 0.6802                 0.6821
 IR Inten    --      0.0590                 0.0001                 0.0001

                      4
                      A
 Frequencies --   3694.5757
 Red. masses --      1.0078
 Frc consts  --      8.1052
 IR Inten    --      0.0349

 - Thermochemistry -
 -------------------
 Temperature   298.150 Kelvin.  Pressure   1.00000 Atm.
 Atom     1 has atomic number  1 and mass   1.00783

 Molecular mass:    21.01405 amu.
 Principal axes and moments of inertia in atomic units:
                           1         2         3
     Eigenvalues --     0.00000 118.69502 118.69502
           X            1.00000  -0.00000   0.00000
           Y            0.00000   1.00000   0.00000
           Z            0.00000   0.00000   1.00000
 This molecule is a prolate symmetric top.
 Rotational symmetry number  1.
 Rotational temperature (Kelvin)      0.72972
 Rotational constant (GHZ):          15.204861
    1 imaginary frequencies ignored.
 Zero-point vibrational energy      34904.8 (Joules/Mol)
                                    8.34245 (Kcal/Mol)
 Vibrational temperatures:   1539.17  1541.32  5315.67
          (Kelvin)

 Zero-point correction=                           0.013295 (Hartree/Particle)
 Thermal correction to Energy=                    0.015711
 Thermal correction to Enthalpy=                  0.016655
 Thermal correction to Gibbs Free Energy=        -0.007349
 Sum of electronic and zero-point Energies=           -100.918555
 Sum of electronic and thermal Energies=              -100.916138
 Sum of electronic and thermal Enthalpies=            -100.915194
 Sum of electronic and thermal Free Energies=         -100.939198

                     E (Thermal)             CV                S
                      KCal/Mol        Cal/Mol-Kelvin    Cal/Mol-Kelvin
 Total                    9.859              5.580             50.522
 Electronic               0.000              0.000              1.377
 Translational            0.889              2.981             35.068
 Rotational               0.592              1.987             13.936
 Vibrational              8.378              0.612              0.141

 Normal termination of Gaussian 16 at Sat Aug 23 00:55:41 2025.
