 Gaussian 16, Revision C.01,
 Gaussian 16:  ES64L-G16RevC.01  3-Jul-2019

 -----------------------------------------
 # sp b3lyp/6-311g** Force nosymm scf=(qc)
 -----------------------------------------

 -------------------
 Title Card Required
 -------------------
 Symbolic Z-matrix:
 Charge =  0 Multiplicity = 2

                          Input orientation:
 ---------------------------------------------------------------------
 Center     Atomic      Atomic             Coordinates (Angstroms)
 Number     Number       Type             X           Y           Z
 ---------------------------------------------------------------------
      1          1           0        0.000000    0.000000    0.000000
      2          1           0       -0.800000    0.000000    0.000000
      3          9           0        2.050000    0.000000    0.000000
 ---------------------------------------------------------------------

 SCF Done:  E(UB3LYP) =  -100.933207096     a.u. after    6 cycles

 Alpha  occ. eigenvalues --  -24.74866  -1.20938  -0.54647  -0.45390  -0.45390
 Alpha  occ. eigenvalues --   -0.43569
 Alpha virt. eigenvalues --    0.05826   0.20498   0.43711   0.90852   0.90852
 Alpha virt. eigenvalues --    0.91027   1.07032   1.07032   1.13722   1.58790
 Alpha virt. eigenvalues --    1.77590   1.77590   2.03397   2.38766   3.05480

  Beta  occ. eigenvalues --  -24.71836  -1.12295  -0.43757  -0.42367  -0.42367
  Beta virt. eigenvalues --   -0.25670   0.06650   0.21039   0.44151   0.92228
  Beta virt. eigenvalues --    0.92228   0.98980   1.07655   1.07655   1.17232
  Beta virt. eigenvalues --    1.60144   1.77939   1.77939   2.03958   2.39431

 Mulliken charges and spin densities:
               1          2
     1  H    0.003988  -0.026629
     2  H    0.029598   0.074876
     3  F   -0.033586   0.951753
 Sum of Mulliken charges =   0.00000   1.00000

 Dipole moment (field-independent basis, Debye):
    X=             -0.4407    Y=             -0.0000    Z=             -0.0000  Tot=              0.4407
 Quadrupole moment (field-independent basis, Debye-Ang):
   XX=             -6.0513   YY=             -6.9815   ZZ=             -6.9815
   XY=             -0.0000   XZ=             -0.0000   YZ=              0.0000

  Exact polarizability:      19.482       0.000       2.095       0.000       0.000       2.095
 Approx polarizability:      21.961       0.000       2.152       0.000       0.000       2.152

 ******    1 imaginary frequencies (negative Signs) ******

                      1                      2                      3
                      A                      A                      A
 Frequencies --   -223.8277               936.2105               936.2105
 Red. masses --      1.1085                 1.0105                 1.0105
 Frc consts  --      0.0327                 0.5218                 0.5218
 IR Inten    --     29.8415                 0.1913                 0.1913

                      4
                      A
 Frequencies --   3609.4605
 Red. masses --      1.0079
 Frc consts  --      7.7363
 IR Inten    --    261.1024

 - Thermochemistry -
 -------------------
 Temperature   298.150 Kelvin.  Pressure   1.00000 Atm.
 Atom     1 has atomic number  1 and mass   1.00783

 Molecular mass:    21.01405 amu.
 Principal axes and moments of inertia in atomic units:
                           1         2         3
     Eigenvalues --     0.00000  40.21349  40.21349
           X            1.00000  -0.00000   0.00000
           Y            0.00000   1.00000   0.00000
           Z            0.00000   0.00000   1.00000
 This molecule is a prolate symmetric top.
 Rotational symmetry number  1.
 Rotational temperature (Kelvin)      2.15385
 Rotational constant (GHZ):          44.879002
    1 imaginary frequencies ignored.
 Zero-point vibrational energy      32788.9 (Joules/Mol)
                                    7.83674 (Kcal/Mol)
 Vibrational temperatures:   1347.00  1347.00  5193.21
          (Kelvin)

 Zero-point correction=                           0.012489 (Hartree/Particle)
 Thermal correction to Energy=                    0.014943
 Thermal correction to Enthalpy=                  0.015887
 Thermal correction to Gibbs Free Energy=        -0.007143
 Sum of electronic and zero-point Energies=           -100.920718
 Sum of electronic and thermal Energies=              -100.918264
 Sum of electronic and thermal Enthalpies=            -100.917320
 Sum of electronic and thermal Free Energies=         -100.940350

                     E (Thermal)             CV                S
                      KCal/Mol        Cal/Mol-Kelvin    Cal/Mol-Kelvin
 Total                    9.377              5.873             48.472
 Electronic               0.000              0.000              1.377
 Translational            0.889              2.981             35.068
 Rotational               0.592              1.987             11.785
 Vibrational              7.896              0.905              0.242

 Normal termination of Gaussian 16 at Fri Aug 22 16:59:02 2025.
