 Gaussian 16, Revision C.01,
 Gaussian 16:  ES64L-G16RevC.01  3-Jul-2019

 -----------------------------------------
 # sp b3lyp/6-311g** Force nosymm scf=(qc)
 -----------------------------------------

 -------------------
 Title Card Required
 -------------------
 Symbolic Z-matrix:
 Charge =  0 Multiplicity = 2

                          Input orientation:
 ---------------------------------------------------------------------
 Center     Atomic      Atomic             Coordinates (Angstroms)
 Number     Number       Type             X           Y           Z
 ---------------------------------------------------------------------
      1          1           0        0.000000    0.000000    0.000000
      2          1           0       -1.900000    0.000000    0.000000
      3          9           0        3.050000    0.000000    0.000000
 ---------------------------------------------------------------------

 SCF Done:  E(UB3LYP) =  -100.780936777     a.u. after   27 cycles

 Alpha  occ. eigenvalues --  -24.74617  -1.20635  -0.53738  -0.45122  -0.45122
 Alpha  occ. eigenvalues --   -0.33762
 Alpha virt. eigenvalues --   -0.11709   0.25462   0.31334   0.89421   0.91943
 Alpha virt. eigenvalues --    0.91943   1.03642   1.12949   1.24138   1.24138
 Alpha virt. eigenvalues --    1.36591   1.36591   1.55014   2.12908   2.37957

  Beta  occ. eigenvalues --  -24.71561  -1.11869  -0.42062  -0.42062  -0.33795
  Beta virt. eigenvalues --   -0.25162  -0.11269   0.25872   0.31745   0.93412
  Beta virt. eigenvalues --    0.93412   0.98201   1.07538   1.13099   1.24071
  Beta virt. eigenvalues --    1.24071   1.37211   1.37211   1.55524   2.13980

 Mulliken charges and spin densities:
               1          2
     1  H    0.012030  -0.775638
     2  H    0.015440   0.807198
     3  F   -0.027470   0.968440
 Sum of Mulliken charges =   0.00000   1.00000

 Dipole moment (field-independent basis, Debye):
    X=             -0.5689    Y=             -0.0000    Z=              0.0000  Tot=              0.5689
 Quadrupole moment (field-independent basis, Debye-Ang):
   XX=             -7.0613   YY=             -7.7267   ZZ=             -7.7267
   XY=             -0.0000   XZ=              0.0000   YZ=             -0.0000

  Exact polarizability:      59.031      -0.000       2.007       0.000      -0.000       2.007
 Approx polarizability:      56.703      -0.000       1.941       0.000       0.000       1.941

 ******    2 imaginary frequencies (negative Signs) ******

                      1                      2                      3
                      A                      A                      A
 Frequencies --  -1550.2305              -223.7613               649.1300
 Red. masses --      1.0079                 1.1084                 1.0132
 Frc consts  --      1.4271                 0.0327                 0.2515
 IR Inten    --     49.0581                25.5244                 0.0283

                      4
                      A
 Frequencies --    649.1300
 Red. masses --      1.0132
 Frc consts  --      0.2515
 IR Inten    --      0.0283

 - Thermochemistry -
 -------------------
 Temperature   298.150 Kelvin.  Pressure   1.00000 Atm.
 Atom     1 has atomic number  1 and mass   1.00783

 Molecular mass:    21.01405 amu.
 Principal axes and moments of inertia in atomic units:
                           1         2         3
     Eigenvalues --     0.00000 110.61764 110.61764
           X            1.00000  -0.00000   0.00000
           Y            0.00000   1.00000   0.00000
           Z            0.00000   0.00000   1.00000
 This molecule is a prolate symmetric top.
 Rotational symmetry number  1.
 Rotational temperature (Kelvin)      0.78300
 Rotational constant (GHZ):          16.315130
    2 imaginary frequencies ignored.
 Zero-point vibrational energy       7765.3 (Joules/Mol)
                                    1.85596 (Kcal/Mol)
 Vibrational temperatures:    933.95   933.95
          (Kelvin)

 Zero-point correction=                           0.002958 (Hartree/Particle)
 Thermal correction to Energy=                    0.005588
 Thermal correction to Enthalpy=                  0.006532
 Thermal correction to Gibbs Free Energy=        -0.017693
 Sum of electronic and zero-point Energies=           -100.777979
 Sum of electronic and thermal Energies=              -100.775349
 Sum of electronic and thermal Enthalpies=            -100.774405
 Sum of electronic and thermal Free Energies=         -100.798630

                     E (Thermal)             CV                S
                      KCal/Mol        Cal/Mol-Kelvin    Cal/Mol-Kelvin
 Total                    3.506              6.827             50.986
 Electronic               0.000              0.000              1.377
 Translational            0.889              2.981             35.068
 Rotational               0.592              1.987             13.796
 Vibrational              2.025              1.859              0.745

 Normal termination of Gaussian 16 at Fri Aug 22 19:43:26 2025.
