 Gaussian 16, Revision C.01,
 Gaussian 16:  ES64L-G16RevC.01  3-Jul-2019

 -----------------------------------------
 # sp b3lyp/6-311g** Force nosymm scf=(qc)
 -----------------------------------------

 -------------------
 Title Card Required
 -------------------
 Symbolic Z-matrix:
 Charge =  0 Multiplicity = 2

                          Input orientation:
 ---------------------------------------------------------------------
 Center     Atomic      Atomic             Coordinates (Angstroms)
 Number     Number       Type             X           Y           Z
 ---------------------------------------------------------------------
      1          1           0        0.000000    0.000000    0.000000
      2          1           0       -1.000000    0.000000    0.000000
      3          9           0        1.800000    0.000000    0.000000
 ---------------------------------------------------------------------

 SCF Done:  E(UB3LYP) =  -100.913856290     a.u. after    8 cycles

 Alpha  occ. eigenvalues --  -24.72058  -1.18470  -0.52725  -0.43149  -0.43149
 Alpha  occ. eigenvalues --   -0.41403
 Alpha virt. eigenvalues --    0.01340   0.20806   0.36358   0.90925   0.90925
 Alpha virt. eigenvalues --    0.93765   1.07310   1.07310   1.10778   1.56818
 Alpha virt. eigenvalues --    1.63596   1.63596   2.20645   2.32451   2.60559

  Beta  occ. eigenvalues --  -24.69305  -1.10730  -0.41970  -0.40427  -0.40427
  Beta virt. eigenvalues --   -0.24659   0.03021   0.21796   0.37214   0.92081
  Beta virt. eigenvalues --    0.92081   1.00935   1.08942   1.08942   1.13528
  Beta virt. eigenvalues --    1.59740   1.64604   1.64604   2.22386   2.34389

 Mulliken charges and spin densities:
               1          2
     1  H    0.061695  -0.078153
     2  H    0.047484   0.221191
     3  F   -0.109179   0.856963
 Sum of Mulliken charges =   0.00000   1.00000

 Dipole moment (field-independent basis, Debye):
    X=             -1.1674    Y=             -0.0000    Z=              0.0000  Tot=              1.1674
 Quadrupole moment (field-independent basis, Debye-Ang):
   XX=             -6.8400   YY=             -7.1457   ZZ=             -7.1457
   XY=             -0.0000   XZ=              0.0000   YZ=              0.0000

  Exact polarizability:      30.831       0.000       2.233      -0.000       0.000       2.233
 Approx polarizability:      42.157       0.000       2.246      -0.000       0.000       2.246

 ******    1 imaginary frequencies (negative Signs) ******

                      1                      2                      3
                      A                      A                      A
 Frequencies --   -754.2972              1310.8677              1394.8782
 Red. masses --      1.0930                 1.0210                 1.0124
 Frc consts  --      0.3664                 1.0337                 1.1606
 IR Inten    --    379.5732               555.0178                 0.1694

                      4
                      A
 Frequencies --   1394.8782
 Red. masses --      1.0124
 Frc consts  --      1.1606
 IR Inten    --      0.1694

 - Thermochemistry -
 -------------------
 Temperature   298.150 Kelvin.  Pressure   1.00000 Atm.
 Atom     1 has atomic number  1 and mass   1.00783

 Molecular mass:    21.01405 amu.
 Principal axes and moments of inertia in atomic units:
                           1         2         3
     Eigenvalues --     0.00000  36.22465  36.22465
           X            1.00000  -0.00000   0.00000
           Y            0.00000   1.00000   0.00000
           Z            0.00000   0.00000   1.00000
 This molecule is a prolate symmetric top.
 Rotational symmetry number  1.
 Rotational temperature (Kelvin)      2.39102
 Rotational constant (GHZ):          49.820801
    1 imaginary frequencies ignored.
 Zero-point vibrational energy      24527.2 (Joules/Mol)
                                    5.86214 (Kcal/Mol)
 Vibrational temperatures:   1886.05  2006.92  2006.92
          (Kelvin)

 Zero-point correction=                           0.009342 (Hartree/Particle)
 Thermal correction to Energy=                    0.011728
 Thermal correction to Enthalpy=                  0.012672
 Thermal correction to Gibbs Free Energy=        -0.010174
 Sum of electronic and zero-point Energies=           -100.904514
 Sum of electronic and thermal Energies=              -100.902128
 Sum of electronic and thermal Enthalpies=            -100.901184
 Sum of electronic and thermal Free Energies=         -100.924031

                     E (Thermal)             CV                S
                      KCal/Mol        Cal/Mol-Kelvin    Cal/Mol-Kelvin
 Total                    7.360              5.326             48.085
 Electronic               0.000              0.000              1.377
 Translational            0.889              2.981             35.068
 Rotational               0.592              1.987             11.577
 Vibrational              5.878              0.358              0.063

 Normal termination of Gaussian 16 at Fri Aug 22 16:42:33 2025.
