 Gaussian 16, Revision C.01,
 Gaussian 16:  ES64L-G16RevC.01  3-Jul-2019

 -----------------------------------------
 # sp b3lyp/6-311g** Force nosymm scf=(qc)
 -----------------------------------------

 -------------------
 Title Card Required
 -------------------
 Symbolic Z-matrix:
 Charge =  0 Multiplicity = 2

                          Input orientation:
 ---------------------------------------------------------------------
 Center     Atomic      Atomic             Coordinates (Angstroms)
 Number     Number       Type             X           Y           Z
 ---------------------------------------------------------------------
      1          1           0        0.000000    0.000000    0.000000
      2          1           0       -3.850000    0.000000    0.000000
      3          9           0        1.350000    0.000000    0.000000
 ---------------------------------------------------------------------

 SCF Done:  E(UB3LYP) =  -100.889124940     a.u. after    7 cycles

 Alpha  occ. eigenvalues --  -24.64386  -1.10670  -0.45295  -0.36889  -0.36889
 Alpha  occ. eigenvalues --   -0.33636
 Alpha virt. eigenvalues --   -0.10480   0.21100   0.27719   0.93009   0.93009
 Alpha virt. eigenvalues --    1.02643   1.18358   1.23840   1.23872   1.23872
 Alpha virt. eigenvalues --    1.33230   1.33230   1.70616   2.13199   2.22935

  Beta  occ. eigenvalues --  -24.64382  -1.10660  -0.45285  -0.36886  -0.36886
  Beta virt. eigenvalues --   -0.10722  -0.05887   0.24299   0.38473   0.93008
  Beta virt. eigenvalues --    0.93008   1.02653   1.18375   1.33217   1.33217
  Beta virt. eigenvalues --    1.46757   1.47090   1.47090   1.70636   2.22103

 Mulliken charges and spin densities:
               1          2
     1  H    0.358386  -0.000565
     2  H    0.000661   0.999299
     3  F   -0.359047   0.001266
 Sum of Mulliken charges =  -0.00000   1.00000

 Dipole moment (field-independent basis, Debye):
    X=             -2.4515    Y=             -0.0000    Z=             -0.0000  Tot=              2.4515
 Quadrupole moment (field-independent basis, Debye-Ang):
   XX=             -9.4231   YY=             -7.2323   ZZ=             -7.2323
   XY=             -0.0000   XZ=             -0.0000   YZ=             -0.0000

  Exact polarizability:      11.793      -0.000       2.255      -0.000      -0.000       2.255
 Approx polarizability:      19.412       0.000       2.193       0.000      -0.000       2.193

 ******    2 imaginary frequencies (negative Signs) ******

                      1                      2                      3
                      A                      A                      A
 Frequencies --   -870.9033               -45.6454              1133.3710
 Red. masses --      1.0579                 1.0537                 1.0338
 Frc consts  --      0.4728                 0.0013                 0.7824
 IR Inten    --     50.3489                 0.0302               133.2234

                      4
                      A
 Frequencies --   1133.3710
 Red. masses --      1.0338
 Frc consts  --      0.7824
 IR Inten    --    133.2234

 - Thermochemistry -
 -------------------
 Temperature   298.150 Kelvin.  Pressure   1.00000 Atm.
 Atom     1 has atomic number  1 and mass   1.00783

 Molecular mass:    21.01405 amu.
 Principal axes and moments of inertia in atomic units:
                           1         2         3
     Eigenvalues --     0.00000  96.47112  96.47112
           X            1.00000  -0.00000   0.00000
           Y            0.00000   1.00000   0.00000
           Z            0.00000   0.00000   1.00000
 This molecule is a prolate symmetric top.
 Rotational symmetry number  1.
 Rotational temperature (Kelvin)      0.89782
 Rotational constant (GHZ):          18.707581
    2 imaginary frequencies ignored.
 Zero-point vibrational energy      13558.1 (Joules/Mol)
                                    3.24047 (Kcal/Mol)
 Vibrational temperatures:   1630.67  1630.67
          (Kelvin)

 Zero-point correction=                           0.005164 (Hartree/Particle)
 Thermal correction to Energy=                    0.007568
 Thermal correction to Enthalpy=                  0.008512
 Thermal correction to Gibbs Free Energy=        -0.015281
 Sum of electronic and zero-point Energies=           -100.883961
 Sum of electronic and thermal Energies=              -100.881557
 Sum of electronic and thermal Enthalpies=            -100.880613
 Sum of electronic and thermal Free Energies=         -100.904406

                     E (Thermal)             CV                S
                      KCal/Mol        Cal/Mol-Kelvin    Cal/Mol-Kelvin
 Total                    4.749              5.473             50.078
 Electronic               0.000              0.000              1.377
 Translational            0.889              2.981             35.068
 Rotational               0.592              1.987             13.524
 Vibrational              3.268              0.505              0.109

 Normal termination of Gaussian 16 at Fri Aug 22 16:18:51 2025.
