 Gaussian 16, Revision C.01,
 Gaussian 16:  ES64L-G16RevC.01  3-Jul-2019

 -----------------------------------------
 # sp b3lyp/6-311g** Force nosymm scf=(qc)
 -----------------------------------------

 -------------------
 Title Card Required
 -------------------
 Symbolic Z-matrix:
 Charge =  0 Multiplicity = 2

                          Input orientation:
 ---------------------------------------------------------------------
 Center     Atomic      Atomic             Coordinates (Angstroms)
 Number     Number       Type             X           Y           Z
 ---------------------------------------------------------------------
      1          1           0        0.000000    0.000000    0.000000
      2          1           0       -1.100000    0.000000    0.000000
      3          9           0        1.450000    0.000000    0.000000
 ---------------------------------------------------------------------

 SCF Done:  E(UB3LYP) =  -100.916957276     a.u. after    9 cycles

 Alpha  occ. eigenvalues --  -24.67511  -1.14752  -0.51891  -0.39750  -0.39695
 Alpha  occ. eigenvalues --   -0.39695
 Alpha virt. eigenvalues --    0.01611   0.19906   0.32813   0.90614   0.90614
 Alpha virt. eigenvalues --    0.99450   1.08486   1.08486   1.15847   1.57489
 Alpha virt. eigenvalues --    1.57489   1.60907   2.15508   2.28517   2.47435

  Beta  occ. eigenvalues --  -24.65499  -1.09321  -0.43883  -0.37761  -0.37761
  Beta virt. eigenvalues --   -0.22943   0.04442   0.21886   0.34865   0.91415
  Beta virt. eigenvalues --    0.91415   1.04392   1.12423   1.12423   1.19695
  Beta virt. eigenvalues --    1.59638   1.59638   1.64692   2.19622   2.32896

 Mulliken charges and spin densities:
               1          2
     1  H    0.191784  -0.122537
     2  H    0.058031   0.511784
     3  F   -0.249816   0.610753
 Sum of Mulliken charges =  -0.00000   1.00000

 Dipole moment (field-independent basis, Debye):
    X=             -2.0914    Y=             -0.0000    Z=             -0.0000  Tot=              2.0914
 Quadrupole moment (field-independent basis, Debye-Ang):
   XX=             -7.5828   YY=             -7.0493   ZZ=             -7.0493
   XY=             -0.0000   XZ=             -0.0000   YZ=             -0.0000

  Exact polarizability:      29.482      -0.000       2.396      -0.000       0.000       2.396
 Approx polarizability:      43.725      -0.000       2.375      -0.000       0.000       2.375

 ******    1 imaginary frequencies (negative Signs) ******

                      1                      2                      3
                      A                      A                      A
 Frequencies --  -2360.9253               690.4337              1230.5242
 Red. masses --      1.0286                 1.0845                 1.0149
 Frc consts  --      3.3779                 0.3046                 0.9055
 IR Inten    --    906.2441                54.9099                 9.7782

                      4
                      A
 Frequencies --   1230.5242
 Red. masses --      1.0149
 Frc consts  --      0.9055
 IR Inten    --      9.7782

 - Thermochemistry -
 -------------------
 Temperature   298.150 Kelvin.  Pressure   1.00000 Atm.
 Atom     1 has atomic number  1 and mass   1.00783

 Molecular mass:    21.01405 amu.
 Principal axes and moments of inertia in atomic units:
                           1         2         3
     Eigenvalues --     0.00000  28.20776  28.20776
           X            1.00000  -0.00000   0.00000
           Y            0.00000   1.00000   0.00000
           Z            0.00000   0.00000   1.00000
 This molecule is a prolate symmetric top.
 Rotational symmetry number  1.
 Rotational temperature (Kelvin)      3.07057
 Rotational constant (GHZ):          63.980314
    1 imaginary frequencies ignored.
 Zero-point vibrational energy      18850.0 (Joules/Mol)
                                    4.50527 (Kcal/Mol)
 Vibrational temperatures:    993.38  1770.45  1770.45
          (Kelvin)

 Zero-point correction=                           0.007180 (Hartree/Particle)
 Thermal correction to Energy=                    0.009686
 Thermal correction to Enthalpy=                  0.010630
 Thermal correction to Gibbs Free Energy=        -0.012136
 Sum of electronic and zero-point Energies=           -100.909778
 Sum of electronic and thermal Energies=              -100.907271
 Sum of electronic and thermal Enthalpies=            -100.906327
 Sum of electronic and thermal Free Energies=         -100.929093

                     E (Thermal)             CV                S
                      KCal/Mol        Cal/Mol-Kelvin    Cal/Mol-Kelvin
 Total                    6.078              6.187             47.916
 Electronic               0.000              0.000              1.377
 Translational            0.889              2.981             35.068
 Rotational               0.592              1.987             11.080
 Vibrational              4.597              1.219              0.391

 Normal termination of Gaussian 16 at Fri Aug 22 16:22:00 2025.
