 Gaussian 16, Revision C.01,
 Gaussian 16:  ES64L-G16RevC.01  3-Jul-2019

 -----------------------------------------
 # sp b3lyp/6-311g** Force nosymm scf=(qc)
 -----------------------------------------

 -------------------
 Title Card Required
 -------------------
 Symbolic Z-matrix:
 Charge =  0 Multiplicity = 2

                          Input orientation:
 ---------------------------------------------------------------------
 Center     Atomic      Atomic             Coordinates (Angstroms)
 Number     Number       Type             X           Y           Z
 ---------------------------------------------------------------------
      1          1           0        0.000000    0.000000    0.000000
      2          1           0       -2.650000    0.000000    0.000000
      3          9           0        0.700000    0.000000    0.000000
 ---------------------------------------------------------------------

 SCF Done:  E(UB3LYP) =  -100.874935041     a.u. after    6 cycles

 Alpha  occ. eigenvalues --  -24.63163  -1.28190  -0.58574  -0.41724  -0.41724
 Alpha  occ. eigenvalues --   -0.34259
 Alpha virt. eigenvalues --    0.07462   0.25567   0.52531   0.93520   0.93520
 Alpha virt. eigenvalues --    0.95743   1.19529   1.23285   1.23285   1.40223
 Alpha virt. eigenvalues --    1.44100   1.44100   1.98031   2.14445   2.86624

  Beta  occ. eigenvalues --  -24.63157  -1.28173  -0.58554  -0.41720  -0.41720
  Beta virt. eigenvalues --   -0.07726   0.08770   0.38355   0.52578   0.93518
  Beta virt. eigenvalues --    0.93518   0.95810   1.30138   1.44095   1.44095
  Beta virt. eigenvalues --    1.47343   1.47343   1.54198   1.97833   2.43337

 Mulliken charges and spin densities:
               1          2
     1  H    0.258883   0.002610
     2  H    0.003594   0.994875
     3  F   -0.262477   0.002516
 Sum of Mulliken charges =   0.00000   1.00000

 Dipole moment (field-independent basis, Debye):
    X=             -1.6288    Y=             -0.0000    Z=              0.0000  Tot=              1.6288
 Quadrupole moment (field-independent basis, Debye-Ang):
   XX=             -7.1469   YY=             -6.6590   ZZ=             -6.6590
   XY=              0.0000   XZ=              0.0000   YZ=             -0.0000

  Exact polarizability:       5.180       0.000       2.468      -0.000       0.000       2.468
 Approx polarizability:       5.359       0.000       2.452      -0.000       0.000       2.452

 ******    2 imaginary frequencies (negative Signs) ******

                      1                      2                      3
                      A                      A                      A
 Frequencies --  -3535.4151             -3535.4151                68.1847
 Red. masses --      1.0381                 1.0381                 1.0532
 Frc consts  --      7.6451                 7.6451                 0.0029
 IR Inten    --    203.3277               203.3277                 0.1968

                      4
                      A
 Frequencies --   9072.6729
 Red. masses --      1.0583
 Frc consts  --     51.3258
 IR Inten    --    117.6925

 - Thermochemistry -
 -------------------
 Temperature   298.150 Kelvin.  Pressure   1.00000 Atm.
 Atom     1 has atomic number  1 and mass   1.00783

 Molecular mass:    21.01405 amu.
 Principal axes and moments of inertia in atomic units:
                           1         2         3
     Eigenvalues --     0.00000  39.32220  39.32220
           X            1.00000  -0.00000   0.00000
           Y            0.00000   1.00000   0.00000
           Z            0.00000   0.00000   1.00000
 This molecule is a prolate symmetric top.
 Rotational symmetry number  1.
 Rotational temperature (Kelvin)      2.20267
 Rotational constant (GHZ):          45.896239
    2 imaginary frequencies ignored.
 Zero-point vibrational energy      54674.5 (Joules/Mol)
                                   13.06751 (Kcal/Mol)
 Warning -- explicit consideration of   1 degrees of freedom as
           vibrations may cause significant error
 Vibrational temperatures:     98.10 13053.55
          (Kelvin)

 Zero-point correction=                           0.020824 (Hartree/Particle)
 Thermal correction to Energy=                    0.023982
 Thermal correction to Enthalpy=                  0.024926
 Thermal correction to Gibbs Free Energy=         0.000034
 Sum of electronic and zero-point Energies=           -100.854111
 Sum of electronic and thermal Energies=              -100.850953
 Sum of electronic and thermal Enthalpies=            -100.850009
 Sum of electronic and thermal Free Energies=         -100.874901

                     E (Thermal)             CV                S
                      KCal/Mol        Cal/Mol-Kelvin    Cal/Mol-Kelvin
 Total                   15.049              6.937             52.391
 Electronic               0.000              0.000              1.377
 Translational            0.889              2.981             35.068
 Rotational               0.592              1.987             11.740
 Vibrational             13.568              1.969              4.205
 Vibration     1          0.598              1.969              4.205

 Normal termination of Gaussian 16 at Fri Aug 22 15:46:51 2025.
