 Gaussian 16, Revision C.01,
 Gaussian 16:  ES64L-G16RevC.01  3-Jul-2019

 -----------------------------------------
 # sp b3lyp/6-311g** Force nosymm scf=(qc)
 -----------------------------------------

 -------------------
 Title Card Required
 -------------------
 Symbolic Z-matrix:
 Charge =  0 Multiplicity = 2

                          Input orientation:
 ---------------------------------------------------------------------
 Center     Atomic      Atomic             Coordinates (Angstroms)
 Number     Number       Type             X           Y           Z
 ---------------------------------------------------------------------
      1          1           0        0.000000    0.000000    0.000000
      2          1           0       -3.400000    0.000000    0.000000
      3          9           0        3.150000    0.000000    0.000000
 ---------------------------------------------------------------------

 SCF Done:  E(UB3LYP) =  -100.760324872     a.u. after   22 cycles

 Alpha  occ. eigenvalues --  -24.74578  -1.20602  -0.53699  -0.45088  -0.45088
 Alpha  occ. eigenvalues --   -0.32489
 Alpha virt. eigenvalues --   -0.07858   0.24219   0.36217   0.88859   0.91977
 Alpha virt. eigenvalues --    0.91977   1.03112   1.25020   1.25020   1.25244
 Alpha virt. eigenvalues --    1.44210   1.44210   1.44415   2.15031   2.40469

  Beta  occ. eigenvalues --  -24.71517  -1.11821  -0.42023  -0.42023  -0.33400
  Beta virt. eigenvalues --   -0.25052  -0.06712   0.24069   0.37735   0.93450
  Beta virt. eigenvalues --    0.93450   0.97725   1.06957   1.23967   1.23967
  Beta virt. eigenvalues --    1.24253   1.45630   1.45885   1.45885   2.15365

 Mulliken charges and spin densities:
               1          2
     1  H    0.026682  -0.967566
     2  H    0.000454   0.997335
     3  F   -0.027136   0.970231
 Sum of Mulliken charges =  -0.00000   1.00000

 Dipole moment (field-independent basis, Debye):
    X=             -0.4466    Y=              0.0000    Z=             -0.0000  Tot=              0.4466
 Quadrupole moment (field-independent basis, Debye-Ang):
   XX=             -7.9915   YY=             -7.6167   ZZ=             -7.6167
   XY=              0.0000   XZ=             -0.0000   YZ=              0.0000

  Exact polarizability:      30.942       0.000       2.027      -0.000       0.000       2.027
 Approx polarizability:      28.922       0.000       1.928      -0.000      -0.000       1.928

 ******    2 imaginary frequencies (negative Signs) ******

                      1                      2                      3
                      A                      A                      A
 Frequencies --   -335.3227              -126.6477               116.7516
 Red. masses --      1.0380                 1.0742                 1.0189
 Frc consts  --      0.0688                 0.0102                 0.0082
 IR Inten    --     28.4771                 1.3971                 0.6528

                      4
                      A
 Frequencies --    116.7516
 Red. masses --      1.0189
 Frc consts  --      0.0082
 IR Inten    --      0.6528

 - Thermochemistry -
 -------------------
 Temperature   298.150 Kelvin.  Pressure   1.00000 Atm.
 Atom     1 has atomic number  1 and mass   1.00783

 Molecular mass:    21.01405 amu.
 Principal axes and moments of inertia in atomic units:
                           1         2         3
     Eigenvalues --     0.00000 173.87704 173.87704
           X            1.00000  -0.00000   0.00000
           Y            0.00000   1.00000   0.00000
           Z            0.00000   0.00000   1.00000
 This molecule is a prolate symmetric top.
 Rotational symmetry number  1.
 Rotational temperature (Kelvin)      0.49813
 Rotational constant (GHZ):          10.379411
    2 imaginary frequencies ignored.
 Zero-point vibrational energy       1396.7 (Joules/Mol)
                                    0.33381 (Kcal/Mol)
 Warning -- explicit consideration of   2 degrees of freedom as
           vibrations may cause significant error
 Vibrational temperatures:    167.98   167.98
          (Kelvin)

 Zero-point correction=                           0.000532 (Hartree/Particle)
 Thermal correction to Energy=                    0.004299
 Thermal correction to Enthalpy=                  0.005243
 Thermal correction to Gibbs Free Energy=        -0.022052
 Sum of electronic and zero-point Energies=           -100.759793
 Sum of electronic and thermal Energies=              -100.756026
 Sum of electronic and thermal Enthalpies=            -100.755082
 Sum of electronic and thermal Free Energies=         -100.782377

                     E (Thermal)             CV                S
                      KCal/Mol        Cal/Mol-Kelvin    Cal/Mol-Kelvin
 Total                    2.697              8.839             57.447
 Electronic               0.000              0.000              1.377
 Translational            0.889              2.981             35.068
 Rotational               0.592              1.987             14.694
 Vibrational              1.216              3.871              6.307
 Vibration     1          0.608              1.935              3.153
 Vibration     2          0.608              1.935              3.153

 Normal termination of Gaussian 16 at Fri Aug 22 20:11:40 2025.
