 Gaussian 16, Revision C.01,
 Gaussian 16:  ES64L-G16RevC.01  3-Jul-2019

 -----------------------------------------
 # sp b3lyp/6-311g** Force nosymm scf=(qc)
 -----------------------------------------

 -------------------
 Title Card Required
 -------------------
 Symbolic Z-matrix:
 Charge =  0 Multiplicity = 2

                          Input orientation:
 ---------------------------------------------------------------------
 Center     Atomic      Atomic             Coordinates (Angstroms)
 Number     Number       Type             X           Y           Z
 ---------------------------------------------------------------------
      1          1           0        0.000000    0.000000    0.000000
      2          1           0       -3.950000    0.000000    0.000000
      3          9           0        1.000000    0.000000    0.000000
 ---------------------------------------------------------------------

 SCF Done:  E(UB3LYP) =  -100.966113444     a.u. after    6 cycles

 Alpha  occ. eigenvalues --  -24.64197  -1.16070  -0.51664  -0.38816  -0.38816
 Alpha  occ. eigenvalues --   -0.33386
 Alpha virt. eigenvalues --    0.00538   0.23465   0.34552   0.94026   0.94026
 Alpha virt. eigenvalues --    0.98561   1.24060   1.24120   1.24120   1.28920
 Alpha virt. eigenvalues --    1.35910   1.35910   1.89852   2.13900   2.33756

  Beta  occ. eigenvalues --  -24.64197  -1.16068  -0.51662  -0.38815  -0.38815
  Beta virt. eigenvalues --   -0.05021   0.00800   0.33172   0.39770   0.94026
  Beta virt. eigenvalues --    0.94026   0.98562   1.28890   1.35909   1.35909
  Beta virt. eigenvalues --    1.50348   1.50810   1.50810   1.89911   2.33352

 Mulliken charges and spin densities:
               1          2
     1  H    0.320371   0.000220
     2  H    0.000378   0.999585
     3  F   -0.320749   0.000195
 Sum of Mulliken charges =   0.00000   1.00000

 Dipole moment (field-independent basis, Debye):
    X=             -2.0265    Y=             -0.0000    Z=              0.0000  Tot=              2.0265
 Quadrupole moment (field-independent basis, Debye-Ang):
   XX=             -8.2720   YY=             -6.9622   ZZ=             -6.9622
   XY=             -0.0000   XZ=              0.0000   YZ=             -0.0000

  Exact polarizability:       6.346      -0.000       2.396       0.000       0.000       2.396
 Approx polarizability:       7.909      -0.000       2.367      -0.000       0.000       2.367

 ******    1 imaginary frequencies (negative Signs) ******

                      1                      2                      3
                      A                      A                      A
 Frequencies --    -29.6873               987.9503               987.9503
 Red. masses --      1.0532                 1.0387                 1.0387
 Frc consts  --      0.0005                 0.5974                 0.5974
 IR Inten    --      0.0128               171.1731               171.1731

                      4
                      A
 Frequencies --   3027.6109
 Red. masses --      1.0583
 Frc consts  --      5.7157
 IR Inten    --     86.1159

 - Thermochemistry -
 -------------------
 Temperature   298.150 Kelvin.  Pressure   1.00000 Atm.
 Atom     1 has atomic number  1 and mass   1.00783

 Molecular mass:    21.01405 amu.
 Principal axes and moments of inertia in atomic units:
                           1         2         3
     Eigenvalues --     0.00000  85.67300  85.67300
           X            1.00000  -0.00000   0.00000
           Y            0.00000   1.00000   0.00000
           Z            0.00000   0.00000   1.00000
 This molecule is a prolate symmetric top.
 Rotational symmetry number  1.
 Rotational temperature (Kelvin)      1.01098
 Rotational constant (GHZ):          21.065461
    1 imaginary frequencies ignored.
 Zero-point vibrational energy      29927.6 (Joules/Mol)
                                    7.15288 (Kcal/Mol)
 Vibrational temperatures:   1421.44  1421.44  4356.06
          (Kelvin)

 Zero-point correction=                           0.011399 (Hartree/Particle)
 Thermal correction to Energy=                    0.013836
 Thermal correction to Enthalpy=                  0.014781
 Thermal correction to Gibbs Free Energy=        -0.008942
 Sum of electronic and zero-point Energies=           -100.954715
 Sum of electronic and thermal Energies=              -100.952277
 Sum of electronic and thermal Enthalpies=            -100.951333
 Sum of electronic and thermal Free Energies=         -100.975056

                     E (Thermal)             CV                S
                      KCal/Mol        Cal/Mol-Kelvin    Cal/Mol-Kelvin
 Total                    8.683              5.749             49.930
 Electronic               0.000              0.000              1.377
 Translational            0.889              2.981             35.068
 Rotational               0.592              1.987             13.288
 Vibrational              7.201              0.781              0.196

 Normal termination of Gaussian 16 at Fri Aug 22 16:01:48 2025.
