 Gaussian 16, Revision C.01,
 Gaussian 16:  ES64L-G16RevC.01  3-Jul-2019

 -----------------------------------------
 # sp b3lyp/6-311g** Force nosymm scf=(qc)
 -----------------------------------------

 -------------------
 Title Card Required
 -------------------
 Symbolic Z-matrix:
 Charge =  0 Multiplicity = 2

                          Input orientation:
 ---------------------------------------------------------------------
 Center     Atomic      Atomic             Coordinates (Angstroms)
 Number     Number       Type             X           Y           Z
 ---------------------------------------------------------------------
      1          1           0        0.000000    0.000000    0.000000
      2          1           0       -1.550000    0.000000    0.000000
      3          9           0        0.750000    0.000000    0.000000
 ---------------------------------------------------------------------

 SCF Done:  E(UB3LYP) =  -100.918197785     a.u. after    6 cycles

 Alpha  occ. eigenvalues --  -24.63312  -1.25528  -0.58096  -0.41112  -0.41112
 Alpha  occ. eigenvalues --   -0.36163
 Alpha virt. eigenvalues --    0.12518   0.21848   0.48500   0.93778   0.93778
 Alpha virt. eigenvalues --    0.96345   1.17933   1.17933   1.29150   1.45282
 Alpha virt. eigenvalues --    1.45282   1.56270   2.04681   2.15869   2.91178

  Beta  occ. eigenvalues --  -24.63187  -1.25183  -0.57333  -0.41013  -0.41013
  Beta virt. eigenvalues --   -0.12740   0.13947   0.29837   0.52202   0.93898
  Beta virt. eigenvalues --    0.93898   0.96620   1.31255   1.31255   1.36158
  Beta virt. eigenvalues --    1.49881   1.49881   1.63301   2.06266   2.35876

 Mulliken charges and spin densities:
               1          2
     1  H    0.250043   0.012927
     2  H    0.015947   0.964018
     3  F   -0.265989   0.023055
 Sum of Mulliken charges =   0.00000   1.00000

 Dipole moment (field-independent basis, Debye):
    X=             -1.7576    Y=             -0.0000    Z=              0.0000  Tot=              1.7576
 Quadrupole moment (field-independent basis, Debye-Ang):
   XX=             -7.1670   YY=             -6.6276   ZZ=             -6.6276
   XY=             -0.0000   XZ=              0.0000   YZ=             -0.0000

  Exact polarizability:       7.898      -0.000       2.538       0.000       0.000       2.538
 Approx polarizability:       7.794       0.000       2.545      -0.000       0.000       2.545

 ******    2 imaginary frequencies (negative Signs) ******

                      1                      2                      3
                      A                      A                      A
 Frequencies --  -2650.6980             -2650.6980               710.5364
 Red. masses --      1.0286                 1.0286                 1.0534
 Frc consts  --      4.2580                 4.2580                 0.3133
 IR Inten    --    144.9368               144.9368                 1.3644

                      4
                      A
 Frequencies --   7555.0180
 Red. masses --      1.0582
 Frc consts  --     35.5860
 IR Inten    --    164.1429

 - Thermochemistry -
 -------------------
 Temperature   298.150 Kelvin.  Pressure   1.00000 Atm.
 Atom     1 has atomic number  1 and mass   1.00783

 Molecular mass:    21.01405 amu.
 Principal axes and moments of inertia in atomic units:
                           1         2         3
     Eigenvalues --     0.00000  19.45752  19.45752
           X            1.00000  -0.00000   0.00000
           Y            0.00000   1.00000   0.00000
           Z            0.00000   0.00000   1.00000
 This molecule is a prolate symmetric top.
 Rotational symmetry number  1.
 Rotational temperature (Kelvin)      4.45144
 Rotational constant (GHZ):          92.752882
    2 imaginary frequencies ignored.
 Zero-point vibrational energy      49439.0 (Joules/Mol)
                                   11.81620 (Kcal/Mol)
 Vibrational temperatures:   1022.30 10869.99
          (Kelvin)

 Zero-point correction=                           0.018830 (Hartree/Particle)
 Thermal correction to Energy=                    0.021299
 Thermal correction to Enthalpy=                  0.022243
 Thermal correction to Gibbs Free Energy=        -0.000126
 Sum of electronic and zero-point Energies=           -100.899367
 Sum of electronic and thermal Energies=              -100.896899
 Sum of electronic and thermal Enthalpies=            -100.895954
 Sum of electronic and thermal Free Energies=         -100.918324

                     E (Thermal)             CV                S
                      KCal/Mol        Cal/Mol-Kelvin    Cal/Mol-Kelvin
 Total                   13.365              5.777             47.081
 Electronic               0.000              0.000              1.377
 Translational            0.889              2.981             35.068
 Rotational               0.592              1.987             10.342
 Vibrational             11.884              0.809              0.294

 Normal termination of Gaussian 16 at Fri Aug 22 15:48:27 2025.
