 Gaussian 16, Revision C.01,
 Gaussian 16:  ES64L-G16RevC.01  3-Jul-2019

 -----------------------------------------
 # sp b3lyp/6-311g** Force nosymm scf=(qc)
 -----------------------------------------

 -------------------
 Title Card Required
 -------------------
 Symbolic Z-matrix:
 Charge =  0 Multiplicity = 2

                          Input orientation:
 ---------------------------------------------------------------------
 Center     Atomic      Atomic             Coordinates (Angstroms)
 Number     Number       Type             X           Y           Z
 ---------------------------------------------------------------------
      1          1           0        0.000000    0.000000    0.000000
      2          1           0       -3.600000    0.000000    0.000000
      3          9           0        0.850000    0.000000    0.000000
 ---------------------------------------------------------------------

 SCF Done:  E(UB3LYP) =  -100.965489075     a.u. after    6 cycles

 Alpha  occ. eigenvalues --  -24.63859  -1.20908  -0.55014  -0.40139  -0.40139
 Alpha  occ. eigenvalues --   -0.33494
 Alpha virt. eigenvalues --    0.04180   0.24425   0.42659   0.94332   0.94332
 Alpha virt. eigenvalues --    0.97383   1.23846   1.24017   1.24017   1.29540
 Alpha virt. eigenvalues --    1.38351   1.38351   2.02834   2.14445   2.42876

  Beta  occ. eigenvalues --  -24.63858  -1.20906  -0.55013  -0.40139  -0.40139
  Beta virt. eigenvalues --   -0.05304   0.04611   0.38936   0.42823   0.94333
  Beta virt. eigenvalues --    0.94333   0.97378   1.29275   1.38351   1.38351
  Beta virt. eigenvalues --    1.50580   1.50987   1.50987   2.02946   2.42844

 Mulliken charges and spin densities:
               1          2
     1  H    0.284205   0.000520
     2  H    0.000696   0.999171
     3  F   -0.284901   0.000309
 Sum of Mulliken charges =   0.00000   1.00000

 Dipole moment (field-independent basis, Debye):
    X=             -1.8168    Y=              0.0000    Z=             -0.0000  Tot=              1.8168
 Quadrupole moment (field-independent basis, Debye-Ang):
   XX=             -7.7640   YY=             -6.8199   ZZ=             -6.8199
   XY=              0.0000   XZ=             -0.0000   YZ=              0.0000

  Exact polarizability:       5.034      -0.000       2.434      -0.000       0.000       2.434
 Approx polarizability:       5.762      -0.000       2.414       0.000       0.000       2.414

 ******    3 imaginary frequencies (negative Signs) ******

                      1                      2                      3
                      A                      A                      A
 Frequencies --  -1326.5549             -1326.5549               -40.0741
 Red. masses --      1.0397                 1.0397                 1.0532
 Frc consts  --      1.0780                 1.0780                 0.0010
 IR Inten    --    189.0400               189.0400                 0.0270

                      4
                      A
 Frequencies --   5311.5998
 Red. masses --      1.0583
 Frc consts  --     17.5920
 IR Inten    --    102.6848

 - Thermochemistry -
 -------------------
 Temperature   298.150 Kelvin.  Pressure   1.00000 Atm.
 Atom     1 has atomic number  1 and mass   1.00783

 Molecular mass:    21.01405 amu.
 Principal axes and moments of inertia in atomic units:
                           1         2         3
     Eigenvalues --     0.00000  69.02112  69.02112
           X            1.00000  -0.00000   0.00000
           Y            0.00000   1.00000   0.00000
           Z            0.00000   0.00000   1.00000
 This molecule is a prolate symmetric top.
 Rotational symmetry number  1.
 Rotational temperature (Kelvin)      1.25489
 Rotational constant (GHZ):          26.147665
    3 imaginary frequencies ignored.
 Zero-point vibrational energy      31770.4 (Joules/Mol)
                                    7.59331 (Kcal/Mol)
 Vibrational temperatures:   7642.21
          (Kelvin)

 Zero-point correction=                           0.012101 (Hartree/Particle)
 Thermal correction to Energy=                    0.014461
 Thermal correction to Enthalpy=                  0.015405
 Thermal correction to Gibbs Free Energy=        -0.008020
 Sum of electronic and zero-point Energies=           -100.953388
 Sum of electronic and thermal Energies=              -100.951028
 Sum of electronic and thermal Enthalpies=            -100.950084
 Sum of electronic and thermal Free Energies=         -100.973510

                     E (Thermal)             CV                S
                      KCal/Mol        Cal/Mol-Kelvin    Cal/Mol-Kelvin
 Total                    9.075              4.968             49.304
 Electronic               0.000              0.000              1.377
 Translational            0.889              2.981             35.068
 Rotational               0.592              1.987             12.858
 Vibrational              7.593              0.000              0.000

 Normal termination of Gaussian 16 at Fri Aug 22 15:54:29 2025.
