 Gaussian 16, Revision C.01,
 Gaussian 16:  ES64L-G16RevC.01  3-Jul-2019

 -----------------------------------------
 # sp b3lyp/6-311g** Force nosymm scf=(qc)
 -----------------------------------------

 -------------------
 Title Card Required
 -------------------
 Symbolic Z-matrix:
 Charge =  0 Multiplicity = 2

                          Input orientation:
 ---------------------------------------------------------------------
 Center     Atomic      Atomic             Coordinates (Angstroms)
 Number     Number       Type             X           Y           Z
 ---------------------------------------------------------------------
      1          1           0        0.000000    0.000000    0.000000
      2          1           0       -1.900000    0.000000    0.000000
      3          9           0        1.700000    0.000000    0.000000
 ---------------------------------------------------------------------

 SCF Done:  E(UB3LYP) =  -100.830674791     a.u. after   14 cycles

 Alpha  occ. eigenvalues --  -24.65516  -1.11773  -0.44992  -0.37626  -0.37445
 Alpha  occ. eigenvalues --   -0.37445
 Alpha virt. eigenvalues --   -0.12610   0.23033   0.28998   0.92669   0.94806
 Alpha virt. eigenvalues --    0.94806   1.04564   1.19912   1.19912   1.32093
 Alpha virt. eigenvalues --    1.34190   1.34190   1.72422   2.11735   2.30345

  Beta  occ. eigenvalues --  -24.63811  -1.07119  -0.39431  -0.35791  -0.35791
  Beta virt. eigenvalues --   -0.20353  -0.09812   0.25521   0.31016   0.94763
  Beta virt. eigenvalues --    0.94763   0.95278   1.07834   1.26020   1.26020
  Beta virt. eigenvalues --    1.35782   1.35782   1.42273   1.71768   2.13656

 Mulliken charges and spin densities:
               1          2
     1  H    0.225753  -0.416068
     2  H    0.055778   0.881336
     3  F   -0.281530   0.534732
 Sum of Mulliken charges =   0.00000   1.00000

 Dipole moment (field-independent basis, Debye):
    X=             -2.8503    Y=              0.0000    Z=             -0.0000  Tot=              2.8503
 Quadrupole moment (field-independent basis, Debye-Ang):
   XX=             -8.7384   YY=             -7.4206   ZZ=             -7.4206
   XY=             -0.0000   XZ=              0.0000   YZ=              0.0000

  Exact polarizability:      41.248      -0.000       2.153       0.000      -0.000       2.153
 Approx polarizability:      54.371       0.000       2.067      -0.000       0.000       2.067

 ******    2 imaginary frequencies (negative Signs) ******

                      1                      2                      3
                      A                      A                      A
 Frequencies --  -2035.4948              -590.4786               834.9282
 Red. masses --      1.0301                 1.0828                 1.0193
 Frc consts  --      2.5146                 0.2224                 0.4187
 IR Inten    --    129.4632                 8.5560                32.0223

                      4
                      A
 Frequencies --    834.9282
 Red. masses --      1.0193
 Frc consts  --      0.4187
 IR Inten    --     32.0223

 - Thermochemistry -
 -------------------
 Temperature   298.150 Kelvin.  Pressure   1.00000 Atm.
 Atom     1 has atomic number  1 and mass   1.00783

 Molecular mass:    21.01405 amu.
 Principal axes and moments of inertia in atomic units:
                           1         2         3
     Eigenvalues --     0.00000  52.19576  52.19576
           X            1.00000  -0.00000   0.00000
           Y            0.00000   1.00000   0.00000
           Z            0.00000   0.00000   1.00000
 This molecule is a prolate symmetric top.
 Rotational symmetry number  1.
 Rotational temperature (Kelvin)      1.65941
 Rotational constant (GHZ):          34.576397
    2 imaginary frequencies ignored.
 Zero-point vibrational energy       9988.0 (Joules/Mol)
                                    2.38718 (Kcal/Mol)
 Vibrational temperatures:   1201.28  1201.28
          (Kelvin)

 Zero-point correction=                           0.003804 (Hartree/Particle)
 Thermal correction to Energy=                    0.006302
 Thermal correction to Enthalpy=                  0.007247
 Thermal correction to Gibbs Free Energy=        -0.016087
 Sum of electronic and zero-point Energies=           -100.826871
 Sum of electronic and thermal Energies=              -100.824372
 Sum of electronic and thermal Enthalpies=            -100.823428
 Sum of electronic and thermal Free Energies=         -100.846762

                     E (Thermal)             CV                S
                      KCal/Mol        Cal/Mol-Kelvin    Cal/Mol-Kelvin
 Total                    3.955              6.158             49.110
 Electronic               0.000              0.000              1.377
 Translational            0.889              2.981             35.068
 Rotational               0.592              1.987             12.303
 Vibrational              2.474              1.190              0.361

 Normal termination of Gaussian 16 at Fri Aug 22 16:37:20 2025.
