 Gaussian 16, Revision C.01,
 Gaussian 16:  ES64L-G16RevC.01  3-Jul-2019

 -----------------------------------------
 # sp b3lyp/6-311g** Force nosymm scf=(qc)
 -----------------------------------------

 -------------------
 Title Card Required
 -------------------
 Symbolic Z-matrix:
 Charge =  0 Multiplicity = 2

                          Input orientation:
 ---------------------------------------------------------------------
 Center     Atomic      Atomic             Coordinates (Angstroms)
 Number     Number       Type             X           Y           Z
 ---------------------------------------------------------------------
      1          1           0        0.000000    0.000000    0.000000
      2          1           0       -1.050000    0.000000    0.000000
      3          9           0        0.800000    0.000000    0.000000
 ---------------------------------------------------------------------

 SCF Done:  E(UB3LYP) =  -100.925938975     a.u. after    6 cycles

 Alpha  occ. eigenvalues --  -24.64533  -1.24713  -0.60773  -0.41556  -0.41556
 Alpha  occ. eigenvalues --   -0.35383
 Alpha virt. eigenvalues --    0.15310   0.19103   0.57082   0.90576   0.90576
 Alpha virt. eigenvalues --    0.95247   1.08860   1.08860   1.44944   1.61452
 Alpha virt. eigenvalues --    1.61452   1.73322   2.04599   2.34421   3.36680

  Beta  occ. eigenvalues --  -24.64023  -1.23334  -0.57543  -0.41120  -0.41120
  Beta virt. eigenvalues --   -0.15145   0.16445   0.24121   0.62694   0.91958
  Beta virt. eigenvalues --    0.91958   0.96280   1.16016   1.16016   1.46452
  Beta virt. eigenvalues --    1.67205   1.67205   1.84214   2.05908   2.49700

 Mulliken charges and spin densities:
               1          2
     1  H    0.260217  -0.002284
     2  H   -0.002095   0.897715
     3  F   -0.258123   0.104569
 Sum of Mulliken charges =   0.00000   1.00000

 Dipole moment (field-independent basis, Debye):
    X=             -1.5934    Y=             -0.0000    Z=             -0.0000  Tot=              1.5934
 Quadrupole moment (field-independent basis, Debye-Ang):
   XX=             -7.4611   YY=             -6.5719   ZZ=             -6.5719
   XY=             -0.0000   XZ=             -0.0000   YZ=              0.0000

  Exact polarizability:       9.848       0.000       2.581       0.000       0.000       2.581
 Approx polarizability:      10.157      -0.000       2.621      -0.000       0.000       2.621

 ******    2 imaginary frequencies (negative Signs) ******

                      1                      2                      3
                      A                      A                      A
 Frequencies --  -2184.2545             -2184.2545              1662.5331
 Red. masses --      1.0216                 1.0216                 1.0547
 Frc consts  --      2.8716                 2.8716                 1.7176
 IR Inten    --    102.0641               102.0641                53.0108

                      4
                      A
 Frequencies --   6161.4959
 Red. masses --      1.0569
 Frc consts  --     23.6397
 IR Inten    --     88.5702

 - Thermochemistry -
 -------------------
 Temperature   298.150 Kelvin.  Pressure   1.00000 Atm.
 Atom     1 has atomic number  1 and mass   1.00783

 Molecular mass:    21.01405 amu.
 Principal axes and moments of inertia in atomic units:
                           1         2         3
     Eigenvalues --     0.00000  13.40884  13.40884
           X            1.00000  -0.00000   0.00000
           Y            0.00000   1.00000   0.00000
           Z            0.00000   0.00000   1.00000
 This molecule is a prolate symmetric top.
 Rotational symmetry number  1.
 Rotational temperature (Kelvin)      6.45946
 Rotational constant (GHZ):         134.593387
    2 imaginary frequencies ignored.
 Zero-point vibrational energy      46798.1 (Joules/Mol)
                                   11.18501 (Kcal/Mol)
 Vibrational temperatures:   2392.01  8865.02
          (Kelvin)

 Zero-point correction=                           0.017824 (Hartree/Particle)
 Thermal correction to Energy=                    0.020187
 Thermal correction to Enthalpy=                  0.021132
 Thermal correction to Gibbs Free Energy=        -0.000750
 Sum of electronic and zero-point Energies=           -100.908115
 Sum of electronic and thermal Energies=              -100.905752
 Sum of electronic and thermal Enthalpies=            -100.904807
 Sum of electronic and thermal Free Energies=         -100.926689

                     E (Thermal)             CV                S
                      KCal/Mol        Cal/Mol-Kelvin    Cal/Mol-Kelvin
 Total                   12.668              5.010             46.054
 Electronic               0.000              0.000              1.377
 Translational            0.889              2.981             35.068
 Rotational               0.592              1.987              9.602
 Vibrational             11.187              0.042              0.006

 Normal termination of Gaussian 16 at Fri Aug 22 15:50:26 2025.
