 Gaussian 16, Revision C.01,
 Gaussian 16:  ES64L-G16RevC.01  3-Jul-2019

 -----------------------------------------
 # sp b3lyp/6-311g** Force nosymm scf=(qc)
 -----------------------------------------

 -------------------
 Title Card Required
 -------------------
 Symbolic Z-matrix:
 Charge =  0 Multiplicity = 2

                          Input orientation:
 ---------------------------------------------------------------------
 Center     Atomic      Atomic             Coordinates (Angstroms)
 Number     Number       Type             X           Y           Z
 ---------------------------------------------------------------------
      1          1           0        0.000000    0.000000    0.000000
      2          1           0       -0.650000    0.000000    0.000000
      3          9           0        2.750000    0.000000    0.000000
 ---------------------------------------------------------------------

 SCF Done:  E(UB3LYP) =  -100.927281098     a.u. after   12 cycles

 Alpha  occ. eigenvalues --  -24.76729  -1.22513  -0.55699  -0.47180  -0.46847
 Alpha  occ. eigenvalues --   -0.44891
 Alpha virt. eigenvalues --    0.08327   0.19616   0.51151   0.85785   0.90654
 Alpha virt. eigenvalues --    0.93791   1.09715   1.09715   1.09727   1.59826
 Alpha virt. eigenvalues --    1.86082   1.89519   1.89533   2.38902   3.64571

  Beta  occ. eigenvalues --  -24.73566  -1.13421  -0.45465  -0.43675  -0.43431
  Beta virt. eigenvalues --   -0.26314   0.08402   0.19664   0.51266   0.92152
  Beta virt. eigenvalues --    0.95236   0.95727   1.09716   1.09726   1.13233
  Beta virt. eigenvalues --    1.59837   1.86108   1.89518   1.89531   2.38911

 Mulliken charges and spin densities:
               1          2
     1  H   -0.008699  -0.001925
     2  H   -0.004112   0.000068
     3  F    0.012812   1.001857
 Sum of Mulliken charges =   0.00000   1.00000

 Dipole moment (field-independent basis, Debye):
    X=              0.1172    Y=             -0.0000    Z=              0.0000  Tot=              0.1172
 Quadrupole moment (field-independent basis, Debye-Ang):
   XX=             -6.0055   YY=             -6.6533   ZZ=             -6.1254
   XY=             -0.0000   XZ=              0.0000   YZ=              0.3415

  Exact polarizability:       7.526      -0.000       2.004      -0.000       0.179       2.281
 Approx polarizability:       8.205       0.000       2.109      -0.000       0.226       2.458

 ******    2 imaginary frequencies (negative Signs) ******

                      1                      2                      3
                      A                      A                      A
 Frequencies --  -1943.6126             -1941.3611               112.6008
 Red. masses --      1.0089                 1.0089                 1.1085
 Frc consts  --      2.2456                 2.2404                 0.0083
 IR Inten    --      0.0407                 0.0409                 0.2868

                      4
                      A
 Frequencies --   5976.0310
 Red. masses --      1.0078
 Frc consts  --     21.2061
 IR Inten    --      0.9693

 - Thermochemistry -
 -------------------
 Temperature   298.150 Kelvin.  Pressure   1.00000 Atm.
 Atom     1 has atomic number  1 and mass   1.00783

 Molecular mass:    21.01405 amu.
 Principal axes and moments of inertia in atomic units:
                           1         2         3
     Eigenvalues --     0.00000  62.29362  62.29362
           X            1.00000  -0.00000   0.00000
           Y            0.00000   1.00000   0.00000
           Z            0.00000   0.00000   1.00000
 This molecule is a prolate symmetric top.
 Rotational symmetry number  1.
 Rotational temperature (Kelvin)      1.39041
 Rotational constant (GHZ):          28.971528
    2 imaginary frequencies ignored.
 Zero-point vibrational energy      36418.1 (Joules/Mol)
                                    8.70414 (Kcal/Mol)
 Warning -- explicit consideration of   1 degrees of freedom as
           vibrations may cause significant error
 Vibrational temperatures:    162.01  8598.18
          (Kelvin)

 Zero-point correction=                           0.013871 (Hartree/Particle)
 Thermal correction to Energy=                    0.016942
 Thermal correction to Enthalpy=                  0.017886
 Thermal correction to Gibbs Free Energy=        -0.006974
 Sum of electronic and zero-point Energies=           -100.913410
 Sum of electronic and thermal Energies=              -100.910339
 Sum of electronic and thermal Enthalpies=            -100.909395
 Sum of electronic and thermal Free Energies=         -100.934255

                     E (Thermal)             CV                S
                      KCal/Mol        Cal/Mol-Kelvin    Cal/Mol-Kelvin
 Total                   10.631              6.907             52.324
 Electronic               0.000              0.000              1.377
 Translational            0.889              2.981             35.068
 Rotational               0.592              1.987             12.655
 Vibrational              9.150              1.939              3.224
 Vibration     1          0.607              1.939              3.224

 Normal termination of Gaussian 16 at Fri Aug 22 18:28:05 2025.
