 Gaussian 16, Revision C.01,
 Gaussian 16:  ES64L-G16RevC.01  3-Jul-2019

 -----------------------------------------
 # sp b3lyp/6-311g** Force nosymm scf=(qc)
 -----------------------------------------

 -------------------
 Title Card Required
 -------------------
 Symbolic Z-matrix:
 Charge =  0 Multiplicity = 2

                          Input orientation:
 ---------------------------------------------------------------------
 Center     Atomic      Atomic             Coordinates (Angstroms)
 Number     Number       Type             X           Y           Z
 ---------------------------------------------------------------------
      1          1           0        0.000000    0.000000    0.000000
      2          1           0       -0.500000    0.000000    0.000000
      3          9           0        2.750000    0.000000    0.000000
 ---------------------------------------------------------------------

 SCF Done:  E(UB3LYP) =  -100.862281440     a.u. after  130 cycles

 Alpha  occ. eigenvalues --  -24.76668  -1.22449  -0.55638  -0.49249  -0.46786
 Alpha  occ. eigenvalues --   -0.46665
 Alpha virt. eigenvalues --    0.10773   0.18778   0.57063   0.85842   0.90712
 Alpha virt. eigenvalues --    0.93849   1.10740   1.12268   1.12280   1.62040
 Alpha virt. eigenvalues --    1.85847   1.99803   1.99818   2.37538   3.64638

  Beta  occ. eigenvalues --  -24.73505  -1.13357  -0.49148  -0.43614  -0.43590
  Beta virt. eigenvalues --   -0.26253   0.10861   0.18837   0.57185   0.92209
  Beta virt. eigenvalues --    0.95294   0.95783   1.12269   1.12279   1.14234
  Beta virt. eigenvalues --    1.62066   1.85866   1.99802   1.99817   2.37548

 Mulliken charges and spin densities:
               1          2
     1  H   -0.011982  -0.002523
     2  H   -0.001152   0.000568
     3  F    0.013134   1.001955
 Sum of Mulliken charges =   0.00000   1.00000

 Dipole moment (field-independent basis, Debye):
    X=              0.1100    Y=             -0.0000    Z=              0.0000  Tot=              0.1100
 Quadrupole moment (field-independent basis, Debye-Ang):
   XX=             -5.9406   YY=             -5.9023   ZZ=             -6.4304
   XY=             -0.0000   XZ=              0.0000   YZ=             -0.3415

  Exact polarizability:       5.927       0.000       2.184      -0.000      -0.179       1.907
 Approx polarizability:       6.172       0.000       2.360      -0.000      -0.225       2.012

 ******    2 imaginary frequencies (negative Signs) ******

                      1                      2                      3
                      A                      A                      A
 Frequencies --  -4820.1770             -4819.4690               124.1762
 Red. masses --      1.0085                 1.0085                 1.1085
 Frc consts  --     13.8058                13.8018                 0.0101
 IR Inten    --      0.1217                 0.1290                 0.1794

                      4
                      A
 Frequencies --   9960.3539
 Red. masses --      1.0078
 Frc consts  --     58.9094
 IR Inten    --      0.6368

 - Thermochemistry -
 -------------------
 Temperature   298.150 Kelvin.  Pressure   1.00000 Atm.
 Atom     1 has atomic number  1 and mass   1.00783

 Molecular mass:    21.01405 amu.
 Principal axes and moments of inertia in atomic units:
                           1         2         3
     Eigenvalues --     0.00000  59.01818  59.01818
           X            1.00000  -0.00000   0.00000
           Y            0.00000   1.00000   0.00000
           Z            0.00000   0.00000   1.00000
 This molecule is a prolate symmetric top.
 Rotational symmetry number  1.
 Rotational temperature (Kelvin)      1.46758
 Rotational constant (GHZ):          30.579411
    2 imaginary frequencies ignored.
 Zero-point vibrational energy      60318.9 (Joules/Mol)
                                   14.41656 (Kcal/Mol)
 Warning -- explicit consideration of   1 degrees of freedom as
           vibrations may cause significant error
 Vibrational temperatures:    178.66 14330.73
          (Kelvin)

 Zero-point correction=                           0.022974 (Hartree/Particle)
 Thermal correction to Energy=                    0.026024
 Thermal correction to Enthalpy=                  0.026968
 Thermal correction to Gibbs Free Energy=         0.002249
 Sum of electronic and zero-point Energies=           -100.839307
 Sum of electronic and thermal Energies=              -100.836257
 Sum of electronic and thermal Enthalpies=            -100.835313
 Sum of electronic and thermal Free Energies=         -100.860033

                     E (Thermal)             CV                S
                      KCal/Mol        Cal/Mol-Kelvin    Cal/Mol-Kelvin
 Total                   16.330              6.897             52.027
 Electronic               0.000              0.000              1.377
 Translational            0.889              2.981             35.068
 Rotational               0.592              1.987             12.547
 Vibrational             14.849              1.929              3.034
 Vibration     1          0.610              1.929              3.034

 Normal termination of Gaussian 16 at Fri Aug 22 18:27:48 2025.
