 Gaussian 16, Revision C.01,
 Gaussian 16:  ES64L-G16RevC.01  3-Jul-2019

 -----------------------------------------
 # sp b3lyp/6-311g** Force nosymm scf=(qc)
 -----------------------------------------

 -------------------
 Title Card Required
 -------------------
 Symbolic Z-matrix:
 Charge =  0 Multiplicity = 2

                          Input orientation:
 ---------------------------------------------------------------------
 Center     Atomic      Atomic             Coordinates (Angstroms)
 Number     Number       Type             X           Y           Z
 ---------------------------------------------------------------------
      1          1           0        0.000000    0.000000    0.000000
      2          1           0       -3.200000    0.000000    0.000000
      3          9           0        2.050000    0.000000    0.000000
 ---------------------------------------------------------------------

 SCF Done:  E(UB3LYP) =  -100.784478630     a.u. after   17 cycles

 Alpha  occ. eigenvalues --  -24.68629  -1.14952  -0.47635  -0.40099  -0.40099
 Alpha  occ. eigenvalues --   -0.33631
 Alpha virt. eigenvalues --   -0.13358   0.22781   0.32296   0.88710   0.94802
 Alpha virt. eigenvalues --    0.94802   1.05886   1.23898   1.23898   1.24294
 Alpha virt. eigenvalues --    1.35903   1.35903   1.58080   2.14303   2.30336

  Beta  occ. eigenvalues --  -24.66180  -1.08089  -0.37682  -0.37682  -0.37609
  Beta virt. eigenvalues --   -0.21084  -0.07621   0.23231   0.37342   0.90540
  Beta virt. eigenvalues --    0.95574   0.95574   1.08263   1.21783   1.21783
  Beta virt. eigenvalues --    1.44362   1.45054   1.45054   1.50851   2.12328

 Mulliken charges and spin densities:
               1          2
     1  H    0.176615  -0.765326
     2  H    0.003259   0.995045
     3  F   -0.179873   0.770281
 Sum of Mulliken charges =  -0.00000   1.00000

 Dipole moment (field-independent basis, Debye):
    X=             -1.8788    Y=             -0.0000    Z=             -0.0000  Tot=              1.8788
 Quadrupole moment (field-independent basis, Debye-Ang):
   XX=             -9.8737   YY=             -7.5055   ZZ=             -7.5055
   XY=             -0.0000   XZ=             -0.0000   YZ=             -0.0000

  Exact polarizability:      28.250      -0.000       2.054      -0.000      -0.000       2.054
 Approx polarizability:      38.855      -0.000       1.941      -0.000       0.000       1.941

 ******    2 imaginary frequencies (negative Signs) ******

                      1                      2                      3
                      A                      A                      A
 Frequencies --  -1061.3068              -172.0916               446.4187
 Red. masses --      1.0554                 1.0561                 1.0241
 Frc consts  --      0.7004                 0.0184                 0.1203
 IR Inten    --    114.7405                 0.9659                28.6765

                      4
                      A
 Frequencies --    446.4187
 Red. masses --      1.0241
 Frc consts  --      0.1203
 IR Inten    --     28.6765

 - Thermochemistry -
 -------------------
 Temperature   298.150 Kelvin.  Pressure   1.00000 Atm.
 Atom     1 has atomic number  1 and mass   1.00783

 Molecular mass:    21.01405 amu.
 Principal axes and moments of inertia in atomic units:
                           1         2         3
     Eigenvalues --     0.00000 105.12428 105.12428
           X            1.00000  -0.00000   0.00000
           Y            0.00000   1.00000   0.00000
           Z            0.00000   0.00000   1.00000
 This molecule is a prolate symmetric top.
 Rotational symmetry number  1.
 Rotational temperature (Kelvin)      0.82392
 Rotational constant (GHZ):          17.167691
    2 imaginary frequencies ignored.
 Zero-point vibrational energy       5340.4 (Joules/Mol)
                                    1.27638 (Kcal/Mol)
 Warning -- explicit consideration of   2 degrees of freedom as
           vibrations may cause significant error
 Vibrational temperatures:    642.30   642.30
          (Kelvin)

 Zero-point correction=                           0.002034 (Hartree/Particle)
 Thermal correction to Energy=                    0.004928
 Thermal correction to Enthalpy=                  0.005872
 Thermal correction to Gibbs Free Energy=        -0.018717
 Sum of electronic and zero-point Energies=           -100.782445
 Sum of electronic and thermal Energies=              -100.779550
 Sum of electronic and thermal Enthalpies=            -100.778606
 Sum of electronic and thermal Free Energies=         -100.803196

                     E (Thermal)             CV                S
                      KCal/Mol        Cal/Mol-Kelvin    Cal/Mol-Kelvin
 Total                    3.093              7.706             51.753
 Electronic               0.000              0.000              1.377
 Translational            0.889              2.981             35.068
 Rotational               0.592              1.987             13.694
 Vibrational              1.611              2.738              1.613
 Vibration     1          0.806              1.369              0.807
 Vibration     2          0.806              1.369              0.807

 Normal termination of Gaussian 16 at Fri Aug 22 17:01:22 2025.
