 Gaussian 16, Revision C.01,
 Gaussian 16:  ES64L-G16RevC.01  3-Jul-2019

 -----------------------------------------
 # sp b3lyp/6-311g** Force nosymm scf=(qc)
 -----------------------------------------

 -------------------
 Title Card Required
 -------------------
 Symbolic Z-matrix:
 Charge =  0 Multiplicity = 2

                          Input orientation:
 ---------------------------------------------------------------------
 Center     Atomic      Atomic             Coordinates (Angstroms)
 Number     Number       Type             X           Y           Z
 ---------------------------------------------------------------------
      1          1           0        0.000000    0.000000    0.000000
      2          1           0       -2.250000    0.000000    0.000000
      3          9           0        1.700000    0.000000    0.000000
 ---------------------------------------------------------------------

 SCF Done:  E(UB3LYP) =  -100.822802924     a.u. after   14 cycles

 Alpha  occ. eigenvalues --  -24.65421  -1.11533  -0.44390  -0.37319  -0.37319
 Alpha  occ. eigenvalues --   -0.36389
 Alpha virt. eigenvalues --   -0.14022   0.23607   0.28477   0.94830   0.94830
 Alpha virt. eigenvalues --    0.96494   1.06361   1.21277   1.21277   1.26730
 Alpha virt. eigenvalues --    1.33482   1.33482   1.73025   2.11365   2.25198

  Beta  occ. eigenvalues --  -24.63849  -1.07248  -0.39725  -0.35796  -0.35796
  Beta virt. eigenvalues --   -0.19038  -0.10061   0.24883   0.33472   0.94658
  Beta virt. eigenvalues --    0.94658   0.98033   1.08371   1.26041   1.26041
  Beta virt. eigenvalues --    1.38963   1.38963   1.42430   1.69885   2.13111

 Mulliken charges and spin densities:
               1          2
     1  H    0.257562  -0.443552
     2  H    0.033532   0.949103
     3  F   -0.291095   0.494450
 Sum of Mulliken charges =  -0.00000   1.00000

 Dipole moment (field-independent basis, Debye):
    X=             -2.7753    Y=             -0.0000    Z=              0.0000  Tot=              2.7753
 Quadrupole moment (field-independent basis, Debye-Ang):
   XX=             -9.2234   YY=             -7.4296   ZZ=             -7.4296
   XY=              0.0000   XZ=             -0.0000   YZ=             -0.0000

  Exact polarizability:      35.289       0.000       2.134      -0.000      -0.000       2.134
 Approx polarizability:      46.416      -0.000       2.039      -0.000      -0.000       2.039

 ******    2 imaginary frequencies (negative Signs) ******

                      1                      2                      3
                      A                      A                      A
 Frequencies --  -1819.0388              -458.4354               777.7387
 Red. masses --      1.0445                 1.0673                 1.0217
 Frc consts  --      2.0364                 0.1322                 0.3641
 IR Inten    --     66.2413                13.6164                51.1214

                      4
                      A
 Frequencies --    777.7387
 Red. masses --      1.0217
 Frc consts  --      0.3641
 IR Inten    --     51.1214

 - Thermochemistry -
 -------------------
 Temperature   298.150 Kelvin.  Pressure   1.00000 Atm.
 Atom     1 has atomic number  1 and mass   1.00783

 Molecular mass:    21.01405 amu.
 Principal axes and moments of inertia in atomic units:
                           1         2         3
     Eigenvalues --     0.00000  61.04462  61.04462
           X            1.00000  -0.00000   0.00000
           Y            0.00000   1.00000   0.00000
           Z            0.00000   0.00000   1.00000
 This molecule is a prolate symmetric top.
 Rotational symmetry number  1.
 Rotational temperature (Kelvin)      1.41886
 Rotational constant (GHZ):          29.564295
    2 imaginary frequencies ignored.
 Zero-point vibrational energy       9303.8 (Joules/Mol)
                                    2.22367 (Kcal/Mol)
 Vibrational temperatures:   1118.99  1118.99
          (Kelvin)

 Zero-point correction=                           0.003544 (Hartree/Particle)
 Thermal correction to Energy=                    0.006074
 Thermal correction to Enthalpy=                  0.007018
 Thermal correction to Gibbs Free Energy=        -0.016506
 Sum of electronic and zero-point Energies=           -100.819259
 Sum of electronic and thermal Energies=              -100.816729
 Sum of electronic and thermal Enthalpies=            -100.815784
 Sum of electronic and thermal Free Energies=         -100.839309

                     E (Thermal)             CV                S
                      KCal/Mol        Cal/Mol-Kelvin    Cal/Mol-Kelvin
 Total                    3.812              6.344             49.512
 Electronic               0.000              0.000              1.377
 Translational            0.889              2.981             35.068
 Rotational               0.592              1.987             12.614
 Vibrational              2.330              1.376              0.452

 Normal termination of Gaussian 16 at Fri Aug 22 16:37:40 2025.
