 Gaussian 16, Revision C.01,
 Gaussian 16:  ES64L-G16RevC.01  3-Jul-2019

 -----------------------------------------
 # sp b3lyp/6-311g** Force nosymm scf=(qc)
 -----------------------------------------

 -------------------
 Title Card Required
 -------------------
 Symbolic Z-matrix:
 Charge =  0 Multiplicity = 2

                          Input orientation:
 ---------------------------------------------------------------------
 Center     Atomic      Atomic             Coordinates (Angstroms)
 Number     Number       Type             X           Y           Z
 ---------------------------------------------------------------------
      1          1           0        0.000000    0.000000    0.000000
      2          1           0       -3.550000    0.000000    0.000000
      3          9           0        1.900000    0.000000    0.000000
 ---------------------------------------------------------------------

 SCF Done:  E(UB3LYP) =  -100.794841231     a.u. after   11 cycles

 Alpha  occ. eigenvalues --  -24.67434  -1.13712  -0.46338  -0.39079  -0.39079
 Alpha  occ. eigenvalues --   -0.33534
 Alpha virt. eigenvalues --   -0.14414   0.21999   0.30965   0.90342   0.94866
 Alpha virt. eigenvalues --    0.94866   1.05667   1.23980   1.23980   1.24050
 Alpha virt. eigenvalues --    1.34492   1.34492   1.65274   2.13808   2.27839

  Beta  occ. eigenvalues --  -24.65257  -1.07666  -0.38609  -0.36942  -0.36942
  Beta virt. eigenvalues --   -0.20050  -0.06946   0.22219   0.37888   0.91224
  Beta virt. eigenvalues --    0.95195   0.95195   1.08053   1.22646   1.22646
  Beta virt. eigenvalues --    1.45508   1.45928   1.45928   1.59290   2.11983

 Mulliken charges and spin densities:
               1          2
     1  H    0.222014  -0.682531
     2  H    0.001583   0.997857
     3  F   -0.223598   0.684674
 Sum of Mulliken charges =   0.00000   1.00000

 Dipole moment (field-independent basis, Debye):
    X=             -2.1121    Y=              0.0000    Z=             -0.0000  Tot=              2.1121
 Quadrupole moment (field-independent basis, Debye-Ang):
   XX=            -10.1172   YY=             -7.4655   ZZ=             -7.4655
   XY=              0.0000   XZ=             -0.0000   YZ=              0.0000

  Exact polarizability:      24.623       0.000       2.077      -0.000      -0.000       2.077
 Approx polarizability:      36.681      -0.000       1.964       0.000      -0.000       1.964

 ******    2 imaginary frequencies (negative Signs) ******

                      1                      2                      3
                      A                      A                      A
 Frequencies --  -1307.6179              -111.6024               559.3421
 Red. masses --      1.0575                 1.0541                 1.0270
 Frc consts  --      1.0653                 0.0077                 0.1893
 IR Inten    --    129.0708                 0.2382                46.0096

                      4
                      A
 Frequencies --    559.3421
 Red. masses --      1.0270
 Frc consts  --      0.1893
 IR Inten    --     46.0096

 - Thermochemistry -
 -------------------
 Temperature   298.150 Kelvin.  Pressure   1.00000 Atm.
 Atom     1 has atomic number  1 and mass   1.00783

 Molecular mass:    21.01405 amu.
 Principal axes and moments of inertia in atomic units:
                           1         2         3
     Eigenvalues --     0.00000 110.56731 110.56731
           X            1.00000  -0.00000   0.00000
           Y            0.00000   1.00000   0.00000
           Z            0.00000   0.00000   1.00000
 This molecule is a prolate symmetric top.
 Rotational symmetry number  1.
 Rotational temperature (Kelvin)      0.78336
 Rotational constant (GHZ):          16.322556
    2 imaginary frequencies ignored.
 Zero-point vibrational energy       6691.2 (Joules/Mol)
                                    1.59924 (Kcal/Mol)
 Warning -- explicit consideration of   2 degrees of freedom as
           vibrations may cause significant error
 Vibrational temperatures:    804.77   804.77
          (Kelvin)

 Zero-point correction=                           0.002549 (Hartree/Particle)
 Thermal correction to Energy=                    0.005277
 Thermal correction to Enthalpy=                  0.006221
 Thermal correction to Gibbs Free Energy=        -0.018149
 Sum of electronic and zero-point Energies=           -100.792293
 Sum of electronic and thermal Energies=              -100.789565
 Sum of electronic and thermal Enthalpies=            -100.788620
 Sum of electronic and thermal Free Energies=         -100.812990

                     E (Thermal)             CV                S
                      KCal/Mol        Cal/Mol-Kelvin    Cal/Mol-Kelvin
 Total                    3.311              7.207             51.290
 Electronic               0.000              0.000              1.377
 Translational            0.889              2.981             35.068
 Rotational               0.592              1.987             13.795
 Vibrational              1.830              2.239              1.050
 Vibration     1          0.915              1.119              0.525
 Vibration     2          0.915              1.119              0.525

 Normal termination of Gaussian 16 at Fri Aug 22 16:51:20 2025.
