 Gaussian 16, Revision C.01,
 Gaussian 16:  ES64L-G16RevC.01  3-Jul-2019

 -----------------------------------------
 # sp b3lyp/6-311g** Force nosymm scf=(qc)
 -----------------------------------------

 -------------------
 Title Card Required
 -------------------
 Symbolic Z-matrix:
 Charge =  0 Multiplicity = 2

                          Input orientation:
 ---------------------------------------------------------------------
 Center     Atomic      Atomic             Coordinates (Angstroms)
 Number     Number       Type             X           Y           Z
 ---------------------------------------------------------------------
      1          1           0        0.000000    0.000000    0.000000
      2          1           0       -2.900000    0.000000    0.000000
      3          9           0        0.650000    0.000000    0.000000
 ---------------------------------------------------------------------

 SCF Done:  E(UB3LYP) =  -100.800785806     a.u. after    6 cycles

 Alpha  occ. eigenvalues --  -24.62922  -1.31295  -0.59795  -0.42339  -0.42339
 Alpha  occ. eigenvalues --   -0.33887
 Alpha virt. eigenvalues --    0.07463   0.25568   0.55553   0.92900   0.92900
 Alpha virt. eigenvalues --    0.94688   1.21737   1.23643   1.23643   1.37472
 Alpha virt. eigenvalues --    1.46930   1.46930   1.96275   2.14864   3.09611

  Beta  occ. eigenvalues --  -24.62919  -1.31287  -0.59788  -0.42338  -0.42338
  Beta virt. eigenvalues --   -0.06428   0.08542   0.39161   0.55686   0.92898
  Beta virt. eigenvalues --    0.92898   0.94704   1.32302   1.46931   1.46931
  Beta virt. eigenvalues --    1.50485   1.50485   1.52401   1.96108   2.44487

 Mulliken charges and spin densities:
               1          2
     1  H    0.252892   0.001543
     2  H    0.002253   0.996943
     3  F   -0.255145   0.001515
 Sum of Mulliken charges =   0.00000   1.00000

 Dipole moment (field-independent basis, Debye):
    X=             -1.5369    Y=              0.0000    Z=              0.0000  Tot=              1.5369
 Quadrupole moment (field-independent basis, Debye-Ang):
   XX=             -7.0410   YY=             -6.6066   ZZ=             -6.6066
   XY=              0.0000   XZ=              0.0000   YZ=             -0.0000

  Exact polarizability:       4.413       0.000       2.457       0.000       0.000       2.457
 Approx polarizability:       4.597      -0.000       2.439      -0.000       0.000       2.439

 ******    2 imaginary frequencies (negative Signs) ******

                      1                      2                      3
                      A                      A                      A
 Frequencies --  -4579.0113             -4579.0113                24.4876
 Red. masses --      1.0405                 1.0405                 1.0532
 Frc consts  --     12.8534                12.8534                 0.0004
 IR Inten    --    219.5027               219.5027                 0.1117

                      4
                      A
 Frequencies --  10873.4969
 Red. masses --      1.0583
 Frc consts  --     73.7230
 IR Inten    --    109.0430

 - Thermochemistry -
 -------------------
 Temperature   298.150 Kelvin.  Pressure   1.00000 Atm.
 Atom     1 has atomic number  1 and mass   1.00783

 Molecular mass:    21.01405 amu.
 Principal axes and moments of inertia in atomic units:
                           1         2         3
     Eigenvalues --     0.00000  43.83230  43.83230
           X            1.00000  -0.00000   0.00000
           Y            0.00000   1.00000   0.00000
           Z            0.00000   0.00000   1.00000
 This molecule is a prolate symmetric top.
 Rotational symmetry number  1.
 Rotational temperature (Kelvin)      1.97603
 Rotational constant (GHZ):          41.173774
    2 imaginary frequencies ignored.
 Zero-point vibrational energy      65184.4 (Joules/Mol)
                                   15.57945 (Kcal/Mol)
 Warning -- explicit consideration of   1 degrees of freedom as
           vibrations may cause significant error
 Vibrational temperatures:     35.23 15644.54
          (Kelvin)

 Zero-point correction=                           0.024827 (Hartree/Particle)
 Thermal correction to Energy=                    0.028077
 Thermal correction to Enthalpy=                  0.029022
 Thermal correction to Gibbs Free Energy=         0.003063
 Sum of electronic and zero-point Energies=           -100.775958
 Sum of electronic and thermal Energies=              -100.772708
 Sum of electronic and thermal Enthalpies=            -100.771764
 Sum of electronic and thermal Free Energies=         -100.797722

                     E (Thermal)             CV                S
                      KCal/Mol        Cal/Mol-Kelvin    Cal/Mol-Kelvin
 Total                   17.619              6.953             54.634
 Electronic               0.000              0.000              1.377
 Translational            0.889              2.981             35.068
 Rotational               0.592              1.987             11.956
 Vibrational             16.138              1.985              6.232
 Vibration     1          0.593              1.985              6.232

 Normal termination of Gaussian 16 at Fri Aug 22 15:44:40 2025.
