 Gaussian 16, Revision C.01,
 Gaussian 16:  ES64L-G16RevC.01  3-Jul-2019

 -----------------------------------------
 # sp b3lyp/6-311g** Force nosymm scf=(qc)
 -----------------------------------------

 -------------------
 Title Card Required
 -------------------
 Symbolic Z-matrix:
 Charge =  0 Multiplicity = 2

                          Input orientation:
 ---------------------------------------------------------------------
 Center     Atomic      Atomic             Coordinates (Angstroms)
 Number     Number       Type             X           Y           Z
 ---------------------------------------------------------------------
      1          1           0        0.000000    0.000000    0.000000
      2          1           0       -2.500000    0.000000    0.000000
      3          9           0        1.700000    0.000000    0.000000
 ---------------------------------------------------------------------

 SCF Done:  E(UB3LYP) =  -100.816392895     a.u. after   11 cycles

 Alpha  occ. eigenvalues --  -24.63479  -1.08027  -0.40718  -0.35751  -0.35362
 Alpha  occ. eigenvalues --   -0.35362
 Alpha virt. eigenvalues --   -0.18195   0.22099   0.26250   0.95275   0.95275
 Alpha virt. eigenvalues --    0.97597   1.08155   1.21455   1.21455   1.24105
 Alpha virt. eigenvalues --    1.27379   1.27379   1.70839   2.12314   2.15988

  Beta  occ. eigenvalues --  -24.63681  -1.08575  -0.40657  -0.35558  -0.35558
  Beta virt. eigenvalues --   -0.18927  -0.08906   0.25446   0.35154   0.95388
  Beta virt. eigenvalues --    0.95388   0.97889   1.08311   1.28945   1.28945
  Beta virt. eigenvalues --    1.41756   1.41756   1.43090   1.71831   2.17973

 Mulliken charges and spin densities:
               1          2
     1  H    0.307432   0.093046
     2  H    0.026756   0.971392
     3  F   -0.334189  -0.064438
 Sum of Mulliken charges =  -0.00000   1.00000

 Dipole moment (field-independent basis, Debye):
    X=             -3.1173    Y=             -0.0000    Z=              0.0000  Tot=              3.1173
 Quadrupole moment (field-independent basis, Debye-Ang):
   XX=             -9.9682   YY=             -7.4184   ZZ=             -7.4184
   XY=             -0.0000   XZ=              0.0000   YZ=             -0.0000

  Exact polarizability:      30.158       0.000       2.111      -0.000      -0.000       2.111
 Approx polarizability:      58.026       0.000       2.028      -0.000       0.000       2.028

 ******    2 imaginary frequencies (negative Signs) ******

                      1                      2                      3
                      A                      A                      A
 Frequencies --  -1246.8299              -215.7182               849.3353
 Red. masses --      1.0481                 1.0635                 1.0232
 Frc consts  --      0.9600                 0.0292                 0.4349
 IR Inten    --    202.9434                 6.6825                80.1193

                      4
                      A
 Frequencies --    849.3353
 Red. masses --      1.0232
 Frc consts  --      0.4349
 IR Inten    --     80.1193

 - Thermochemistry -
 -------------------
 Temperature   298.150 Kelvin.  Pressure   1.00000 Atm.
 Atom     1 has atomic number  1 and mass   1.00783

 Molecular mass:    21.01405 amu.
 Principal axes and moments of inertia in atomic units:
                           1         2         3
     Eigenvalues --     0.00000  67.87920  67.87920
           X            1.00000  -0.00000   0.00000
           Y            0.00000   1.00000   0.00000
           Z            0.00000   0.00000   1.00000
 This molecule is a prolate symmetric top.
 Rotational symmetry number  1.
 Rotational temperature (Kelvin)      1.27600
 Rotational constant (GHZ):          26.587544
    2 imaginary frequencies ignored.
 Zero-point vibrational energy      10160.3 (Joules/Mol)
                                    2.42837 (Kcal/Mol)
 Vibrational temperatures:   1222.00  1222.00
          (Kelvin)

 Zero-point correction=                           0.003870 (Hartree/Particle)
 Thermal correction to Energy=                    0.006361
 Thermal correction to Enthalpy=                  0.007305
 Thermal correction to Gibbs Free Energy=        -0.016267
 Sum of electronic and zero-point Energies=           -100.812523
 Sum of electronic and thermal Energies=              -100.810032
 Sum of electronic and thermal Enthalpies=            -100.809088
 Sum of electronic and thermal Free Energies=         -100.832660

                     E (Thermal)             CV                S
                      KCal/Mol        Cal/Mol-Kelvin    Cal/Mol-Kelvin
 Total                    3.992              6.114             49.612
 Electronic               0.000              0.000              1.377
 Translational            0.889              2.981             35.068
 Rotational               0.592              1.987             12.825
 Vibrational              2.510              1.146              0.341

 Normal termination of Gaussian 16 at Fri Aug 22 16:37:54 2025.
