 Gaussian 16, Revision C.01,
 Gaussian 16:  ES64L-G16RevC.01  3-Jul-2019

 -----------------------------------------
 # sp b3lyp/6-311g** Force nosymm scf=(qc)
 -----------------------------------------

 -------------------
 Title Card Required
 -------------------
 Symbolic Z-matrix:
 Charge =  0 Multiplicity = 2

                          Input orientation:
 ---------------------------------------------------------------------
 Center     Atomic      Atomic             Coordinates (Angstroms)
 Number     Number       Type             X           Y           Z
 ---------------------------------------------------------------------
      1          1           0        0.000000    0.000000    0.000000
      2          1           0       -1.250000    0.000000    0.000000
      3          9           0        1.850000    0.000000    0.000000
 ---------------------------------------------------------------------

 SCF Done:  E(UB3LYP) =  -100.874942442     a.u. after   13 cycles

 Alpha  occ. eigenvalues --  -24.70413  -1.16844  -0.50580  -0.41727  -0.41727
 Alpha  occ. eigenvalues --   -0.39471
 Alpha virt. eigenvalues --   -0.05366   0.21412   0.32416   0.90311   0.92442
 Alpha virt. eigenvalues --    0.92442   1.05055   1.10975   1.10975   1.42179
 Alpha virt. eigenvalues --    1.48975   1.48975   2.04166   2.26174   2.52370

  Beta  occ. eigenvalues --  -24.67822  -1.09580  -0.39427  -0.39169  -0.39169
  Beta virt. eigenvalues --   -0.24162  -0.03246   0.22900   0.32935   0.93447
  Beta virt. eigenvalues --    0.93447   0.95981   1.08337   1.13057   1.13057
  Beta virt. eigenvalues --    1.46010   1.50144   1.50144   2.06490   2.27777

 Mulliken charges and spin densities:
               1          2
     1  H    0.083298  -0.174659
     2  H    0.061325   0.365511
     3  F   -0.144623   0.809148
 Sum of Mulliken charges =  -0.00000   1.00000

 Dipole moment (field-independent basis, Debye):
    X=             -1.6678    Y=             -0.0000    Z=              0.0000  Tot=              1.6678
 Quadrupole moment (field-independent basis, Debye-Ang):
   XX=             -7.2980   YY=             -7.3563   ZZ=             -7.3563
   XY=             -0.0000   XZ=              0.0000   YZ=              0.0000

  Exact polarizability:      42.089      -0.000       2.210       0.000       0.000       2.210
 Approx polarizability:      64.425       0.000       2.186      -0.000      -0.000       2.186

 ******    2 imaginary frequencies (negative Signs) ******

                      1                      2                      3
                      A                      A                      A
 Frequencies --  -1927.1750              -248.1520              1303.3734
 Red. masses --      1.0173                 1.0973                 1.0139
 Frc consts  --      2.2261                 0.0398                 1.0148
 IR Inten    --   1193.0481                 0.4449                 1.0922

                      4
                      A
 Frequencies --   1303.3734
 Red. masses --      1.0139
 Frc consts  --      1.0148
 IR Inten    --      1.0922

 - Thermochemistry -
 -------------------
 Temperature   298.150 Kelvin.  Pressure   1.00000 Atm.
 Atom     1 has atomic number  1 and mass   1.00783

 Molecular mass:    21.01405 amu.
 Principal axes and moments of inertia in atomic units:
                           1         2         3
     Eigenvalues --     0.00000  42.67478  42.67478
           X            1.00000  -0.00000   0.00000
           Y            0.00000   1.00000   0.00000
           Z            0.00000   0.00000   1.00000
 This molecule is a prolate symmetric top.
 Rotational symmetry number  1.
 Rotational temperature (Kelvin)      2.02963
 Rotational constant (GHZ):          42.290582
    2 imaginary frequencies ignored.
 Zero-point vibrational energy      15591.8 (Joules/Mol)
                                    3.72653 (Kcal/Mol)
 Vibrational temperatures:   1875.26  1875.26
          (Kelvin)

 Zero-point correction=                           0.005939 (Hartree/Particle)
 Thermal correction to Energy=                    0.008321
 Thermal correction to Enthalpy=                  0.009265
 Thermal correction to Gibbs Free Energy=        -0.013732
 Sum of electronic and zero-point Energies=           -100.869004
 Sum of electronic and thermal Energies=              -100.866621
 Sum of electronic and thermal Enthalpies=            -100.865677
 Sum of electronic and thermal Free Energies=         -100.888675

                     E (Thermal)             CV                S
                      KCal/Mol        Cal/Mol-Kelvin    Cal/Mol-Kelvin
 Total                    5.222              5.261             48.402
 Electronic               0.000              0.000              1.377
 Translational            0.889              2.981             35.068
 Rotational               0.592              1.987             11.903
 Vibrational              3.740              0.293              0.054

 Normal termination of Gaussian 16 at Fri Aug 22 16:46:01 2025.
