 Gaussian 16, Revision C.01,
 Gaussian 16:  ES64L-G16RevC.01  3-Jul-2019

 -----------------------------------------
 # sp b3lyp/6-311g** Force nosymm scf=(qc)
 -----------------------------------------

 -------------------
 Title Card Required
 -------------------
 Symbolic Z-matrix:
 Charge =  0 Multiplicity = 2

                          Input orientation:
 ---------------------------------------------------------------------
 Center     Atomic      Atomic             Coordinates (Angstroms)
 Number     Number       Type             X           Y           Z
 ---------------------------------------------------------------------
      1          1           0        0.000000    0.000000    0.000000
      2          1           0       -3.500000    0.000000    0.000000
      3          9           0        2.650000    0.000000    0.000000
 ---------------------------------------------------------------------

 SCF Done:  E(UB3LYP) =  -100.764764791     a.u. after   20 cycles

 Alpha  occ. eigenvalues --  -24.72561  -1.18727  -0.51672  -0.43398  -0.43398
 Alpha  occ. eigenvalues --   -0.32776
 Alpha virt. eigenvalues --   -0.09526   0.23689   0.35616   0.89952   0.93166
 Alpha virt. eigenvalues --    0.93166   1.05827   1.24733   1.24733   1.24902
 Alpha virt. eigenvalues --    1.41885   1.41885   1.43818   2.14596   2.37844

  Beta  occ. eigenvalues --  -24.69648  -1.10414  -0.40490  -0.40490  -0.34784
  Beta virt. eigenvalues --   -0.23865  -0.06688   0.23993   0.37872   0.94578
  Beta virt. eigenvalues --    0.94578   0.97484   1.08722   1.22564   1.22564
  Beta virt. eigenvalues --    1.26312   1.45742   1.46012   1.46012   2.13651

 Mulliken charges and spin densities:
               1          2
     1  H    0.069837  -0.919385
     2  H    0.000738   0.997940
     3  F   -0.070575   0.921444
 Sum of Mulliken charges =  -0.00000   1.00000

 Dipole moment (field-independent basis, Debye):
    X=             -0.9681    Y=              0.0000    Z=             -0.0000  Tot=              0.9681
 Quadrupole moment (field-independent basis, Debye-Ang):
   XX=             -9.0149   YY=             -7.5866   ZZ=             -7.5866
   XY=              0.0000   XZ=             -0.0000   YZ=              0.0000

  Exact polarizability:      31.865       0.000       2.024      -0.000       0.000       2.024
 Approx polarizability:      38.008       0.000       1.921      -0.000      -0.000       1.921

 ******    2 imaginary frequencies (negative Signs) ******

                      1                      2                      3
                      A                      A                      A
 Frequencies --   -531.7498              -120.4764               200.4685
 Red. masses --      1.0526                 1.0590                 1.0216
 Frc consts  --      0.1754                 0.0091                 0.0242
 IR Inten    --     67.1158                 0.3635                 4.6440

                      4
                      A
 Frequencies --    200.4685
 Red. masses --      1.0216
 Frc consts  --      0.0242
 IR Inten    --      4.6440

 - Thermochemistry -
 -------------------
 Temperature   298.150 Kelvin.  Pressure   1.00000 Atm.
 Atom     1 has atomic number  1 and mass   1.00783

 Molecular mass:    21.01405 amu.
 Principal axes and moments of inertia in atomic units:
                           1         2         3
     Eigenvalues --     0.00000 148.03086 148.03086
           X            1.00000  -0.00000   0.00000
           Y            0.00000   1.00000   0.00000
           Z            0.00000   0.00000   1.00000
 This molecule is a prolate symmetric top.
 Rotational symmetry number  1.
 Rotational temperature (Kelvin)      0.58511
 Rotational constant (GHZ):          12.191655
    2 imaginary frequencies ignored.
 Zero-point vibrational energy       2398.1 (Joules/Mol)
                                    0.57317 (Kcal/Mol)
 Warning -- explicit consideration of   2 degrees of freedom as
           vibrations may cause significant error
 Vibrational temperatures:    288.43   288.43
          (Kelvin)

 Zero-point correction=                           0.000913 (Hartree/Particle)
 Thermal correction to Energy=                    0.004394
 Thermal correction to Enthalpy=                  0.005338
 Thermal correction to Gibbs Free Energy=        -0.020831
 Sum of electronic and zero-point Energies=           -100.763851
 Sum of electronic and thermal Energies=              -100.760371
 Sum of electronic and thermal Enthalpies=            -100.759427
 Sum of electronic and thermal Free Energies=         -100.785596

                     E (Thermal)             CV                S
                      KCal/Mol        Cal/Mol-Kelvin    Cal/Mol-Kelvin
 Total                    2.757              8.646             55.078
 Electronic               0.000              0.000              1.377
 Translational            0.889              2.981             35.068
 Rotational               0.592              1.987             14.375
 Vibrational              1.276              3.678              4.258
 Vibration     1          0.638              1.839              2.129
 Vibration     2          0.638              1.839              2.129

 Normal termination of Gaussian 16 at Fri Aug 22 18:15:51 2025.
