 Gaussian 16, Revision C.01,
 Gaussian 16:  ES64L-G16RevC.01  3-Jul-2019

 -----------------------------------------
 # sp b3lyp/6-311g** Force nosymm scf=(qc)
 -----------------------------------------

 -------------------
 Title Card Required
 -------------------
 Symbolic Z-matrix:
 Charge =  0 Multiplicity = 2

                          Input orientation:
 ---------------------------------------------------------------------
 Center     Atomic      Atomic             Coordinates (Angstroms)
 Number     Number       Type             X           Y           Z
 ---------------------------------------------------------------------
      1          1           0        0.000000    0.000000    0.000000
      2          1           0       -3.650000    0.000000    0.000000
      3          9           0        3.050000    0.000000    0.000000
 ---------------------------------------------------------------------

 SCF Done:  E(UB3LYP) =  -100.760645766     a.u. after   23 cycles

 Alpha  occ. eigenvalues --  -24.74253  -1.20301  -0.53373  -0.44815  -0.44815
 Alpha  occ. eigenvalues --   -0.32485
 Alpha virt. eigenvalues --   -0.07833   0.23963   0.36265   0.89197   0.92174
 Alpha virt. eigenvalues --    0.92174   1.03612   1.25017   1.25017   1.25106
 Alpha virt. eigenvalues --    1.44363   1.44363   1.44653   2.14656   2.40542

  Beta  occ. eigenvalues --  -24.71214  -1.11589  -0.41773  -0.41773  -0.33609
  Beta virt. eigenvalues --   -0.24869  -0.06324   0.23851   0.38028   0.93640
  Beta virt. eigenvalues --    0.93640   0.97947   1.07375   1.23729   1.23729
  Beta virt. eigenvalues --    1.24038   1.46117   1.46343   1.46343   2.14838

 Mulliken charges and spin densities:
               1          2
     1  H    0.033385  -0.961672
     2  H    0.000281   0.998571
     3  F   -0.033666   0.963101
 Sum of Mulliken charges =  -0.00000   1.00000

 Dipole moment (field-independent basis, Debye):
    X=             -0.5323    Y=             -0.0000    Z=              0.0000  Tot=              0.5323
 Quadrupole moment (field-independent basis, Debye-Ang):
   XX=             -8.2213   YY=             -7.6096   ZZ=             -7.6096
   XY=             -0.0000   XZ=             -0.0000   YZ=             -0.0000

  Exact polarizability:      31.087      -0.000       2.027      -0.000      -0.000       2.027
 Approx polarizability:      30.968      -0.000       1.927      -0.000       0.000       1.927

 ******    2 imaginary frequencies (negative Signs) ******

                      1                      2                      3
                      A                      A                      A
 Frequencies --   -354.1960              -100.6392               122.9051
 Red. masses --      1.0488                 1.0628                 1.0203
 Frc consts  --      0.0775                 0.0063                 0.0091
 IR Inten    --     36.0419                 0.3705                 1.0505

                      4
                      A
 Frequencies --    122.9052
 Red. masses --      1.0203
 Frc consts  --      0.0091
 IR Inten    --      1.0505

 - Thermochemistry -
 -------------------
 Temperature   298.150 Kelvin.  Pressure   1.00000 Atm.
 Atom     1 has atomic number  1 and mass   1.00783

 Molecular mass:    21.01405 amu.
 Principal axes and moments of inertia in atomic units:
                           1         2         3
     Eigenvalues --     0.00000 178.63083 178.63083
           X            1.00000  -0.00000   0.00000
           Y            0.00000   1.00000   0.00000
           Z            0.00000   0.00000   1.00000
 This molecule is a prolate symmetric top.
 Rotational symmetry number  1.
 Rotational temperature (Kelvin)      0.48488
 Rotational constant (GHZ):          10.103190
    2 imaginary frequencies ignored.
 Zero-point vibrational energy       1470.3 (Joules/Mol)
                                    0.35140 (Kcal/Mol)
 Warning -- explicit consideration of   2 degrees of freedom as
           vibrations may cause significant error
 Vibrational temperatures:    176.83   176.83
          (Kelvin)

 Zero-point correction=                           0.000560 (Hartree/Particle)
 Thermal correction to Energy=                    0.004304
 Thermal correction to Enthalpy=                  0.005248
 Thermal correction to Gibbs Free Energy=        -0.021978
 Sum of electronic and zero-point Energies=           -100.760086
 Sum of electronic and thermal Energies=              -100.756342
 Sum of electronic and thermal Enthalpies=            -100.755398
 Sum of electronic and thermal Free Energies=         -100.782624

                     E (Thermal)             CV                S
                      KCal/Mol        Cal/Mol-Kelvin    Cal/Mol-Kelvin
 Total                    2.701              8.828             57.302
 Electronic               0.000              0.000              1.377
 Translational            0.889              2.981             35.068
 Rotational               0.592              1.987             14.748
 Vibrational              1.220              3.860              6.108
 Vibration     1          0.610              1.930              3.054
 Vibration     2          0.610              1.930              3.054

 Normal termination of Gaussian 16 at Fri Aug 22 19:45:29 2025.
