 Gaussian 16, Revision C.01,
 Gaussian 16:  ES64L-G16RevC.01  3-Jul-2019

 -----------------------------------------
 # sp b3lyp/6-311g** Force nosymm scf=(qc)
 -----------------------------------------

 -------------------
 Title Card Required
 -------------------
 Symbolic Z-matrix:
 Charge =  0 Multiplicity = 2

                          Input orientation:
 ---------------------------------------------------------------------
 Center     Atomic      Atomic             Coordinates (Angstroms)
 Number     Number       Type             X           Y           Z
 ---------------------------------------------------------------------
      1          1           0        0.000000    0.000000    0.000000
      2          1           0       -3.000000    0.000000    0.000000
      3          9           0        2.800000    0.000000    0.000000
 ---------------------------------------------------------------------

 SCF Done:  E(UB3LYP) =  -100.763648316     a.u. after   19 cycles

 Alpha  occ. eigenvalues --  -24.73299  -1.19413  -0.52414  -0.44015  -0.44015
 Alpha  occ. eigenvalues --   -0.32882
 Alpha virt. eigenvalues --   -0.09671   0.24478   0.34864   0.89988   0.92743
 Alpha virt. eigenvalues --    0.92743   1.05148   1.24658   1.24658   1.25515
 Alpha virt. eigenvalues --    1.41727   1.41727   1.42684   2.15339   2.37768

  Beta  occ. eigenvalues --  -24.70329  -1.10919  -0.41045  -0.41045  -0.34303
  Beta virt. eigenvalues --   -0.24320  -0.07719   0.24731   0.36681   0.94184
  Beta virt. eigenvalues --    0.94184   0.98295   1.08679   1.23053   1.23053
  Beta virt. eigenvalues --    1.24987   1.44585   1.44603   1.44603   2.15365

 Mulliken charges and spin densities:
               1          2
     1  H    0.051637  -0.932978
     2  H    0.002170   0.992630
     3  F   -0.053807   0.940348
 Sum of Mulliken charges =  -0.00000   1.00000

 Dipole moment (field-independent basis, Debye):
    X=             -0.8033    Y=             -0.0000    Z=              0.0000  Tot=              0.8033
 Quadrupole moment (field-independent basis, Debye-Ang):
   XX=             -8.5926   YY=             -7.6107   ZZ=             -7.6107
   XY=             -0.0000   XZ=              0.0000   YZ=              0.0000

  Exact polarizability:      35.643      -0.000       2.020       0.000       0.000       2.020
 Approx polarizability:      38.154      -0.000       1.921       0.000      -0.000       1.921

 ******    2 imaginary frequencies (negative Signs) ******

                      1                      2                      3
                      A                      A                      A
 Frequencies --   -509.5754              -201.3689               191.2569
 Red. masses --      1.0342                 1.0783                 1.0188
 Frc consts  --      0.1582                 0.0258                 0.0220
 IR Inten    --     50.4138                 4.6712                 2.4055

                      4
                      A
 Frequencies --    191.2570
 Red. masses --      1.0188
 Frc consts  --      0.0220
 IR Inten    --      2.4055

 - Thermochemistry -
 -------------------
 Temperature   298.150 Kelvin.  Pressure   1.00000 Atm.
 Atom     1 has atomic number  1 and mass   1.00783

 Molecular mass:    21.01405 amu.
 Principal axes and moments of inertia in atomic units:
                           1         2         3
     Eigenvalues --     0.00000 136.52087 136.52087
           X            1.00000  -0.00000   0.00000
           Y            0.00000   1.00000   0.00000
           Z            0.00000   0.00000   1.00000
 This molecule is a prolate symmetric top.
 Rotational symmetry number  1.
 Rotational temperature (Kelvin)      0.63444
 Rotational constant (GHZ):          13.219526
    2 imaginary frequencies ignored.
 Zero-point vibrational energy       2287.9 (Joules/Mol)
                                    0.54683 (Kcal/Mol)
 Warning -- explicit consideration of   2 degrees of freedom as
           vibrations may cause significant error
 Vibrational temperatures:    275.18   275.18
          (Kelvin)

 Zero-point correction=                           0.000871 (Hartree/Particle)
 Thermal correction to Energy=                    0.004381
 Thermal correction to Enthalpy=                  0.005325
 Thermal correction to Gibbs Free Energy=        -0.020850
 Sum of electronic and zero-point Energies=           -100.762777
 Sum of electronic and thermal Energies=              -100.759267
 Sum of electronic and thermal Enthalpies=            -100.758323
 Sum of electronic and thermal Free Energies=         -100.784498

                     E (Thermal)             CV                S
                      KCal/Mol        Cal/Mol-Kelvin    Cal/Mol-Kelvin
 Total                    2.749              8.672             55.090
 Electronic               0.000              0.000              1.377
 Translational            0.889              2.981             35.068
 Rotational               0.592              1.987             14.214
 Vibrational              1.268              3.704              4.431
 Vibration     1          0.634              1.852              2.216
 Vibration     2          0.634              1.852              2.216

 Normal termination of Gaussian 16 at Fri Aug 22 18:44:06 2025.
