 Gaussian 16, Revision C.01,
 Gaussian 16:  ES64L-G16RevC.01  3-Jul-2019

 -----------------------------------------
 # sp b3lyp/6-311g** Force nosymm scf=(qc)
 -----------------------------------------

 -------------------
 Title Card Required
 -------------------
 Symbolic Z-matrix:
 Charge =  0 Multiplicity = 2

                          Input orientation:
 ---------------------------------------------------------------------
 Center     Atomic      Atomic             Coordinates (Angstroms)
 Number     Number       Type             X           Y           Z
 ---------------------------------------------------------------------
      1          1           0        0.000000    0.000000    0.000000
      2          1           0       -2.350000    0.000000    0.000000
      3          9           0        3.150000    0.000000    0.000000
 ---------------------------------------------------------------------

 SCF Done:  E(UB3LYP) =  -100.765978856     a.u. after   24 cycles

 Alpha  occ. eigenvalues --  -24.74684  -1.20696  -0.53802  -0.45174  -0.45174
 Alpha  occ. eigenvalues --   -0.33067
 Alpha virt. eigenvalues --   -0.10586   0.25597   0.33322   0.88958   0.91913
 Alpha virt. eigenvalues --    0.91913   1.03107   1.24663   1.24663   1.25732
 Alpha virt. eigenvalues --    1.39483   1.39483   1.42674   2.14793   2.35855

  Beta  occ. eigenvalues --  -24.71618  -1.11900  -0.42104  -0.42104  -0.33512
  Beta virt. eigenvalues --   -0.25131  -0.09755   0.25638   0.34319   0.93387
  Beta virt. eigenvalues --    0.93387   0.97883   1.07061   1.24106   1.24106
  Beta virt. eigenvalues --    1.25051   1.40808   1.40808   1.43954   2.15836

 Mulliken charges and spin densities:
               1          2
     1  H    0.019081  -0.925329
     2  H    0.006179   0.953614
     3  F   -0.025260   0.971715
 Sum of Mulliken charges =  -0.00000   1.00000

 Dipole moment (field-independent basis, Debye):
    X=             -0.4775    Y=             -0.0000    Z=             -0.0000  Tot=              0.4775
 Quadrupole moment (field-independent basis, Debye-Ang):
   XX=             -7.5315   YY=             -7.6725   ZZ=             -7.6725
   XY=             -0.0000   XZ=             -0.0000   YZ=              0.0000

  Exact polarizability:      46.008      -0.000       2.013      -0.000      -0.000       2.013
 Approx polarizability:      38.227      -0.000       1.924      -0.000       0.000       1.924

 ******    2 imaginary frequencies (negative Signs) ******

                      1                      2                      3
                      A                      A                      A
 Frequencies --   -841.5085              -204.9853               317.2218
 Red. masses --      1.0083                 1.1079                 1.0148
 Frc consts  --      0.4207                 0.0274                 0.0602
 IR Inten    --     16.5982                17.4098                 0.2434

                      4
                      A
 Frequencies --    317.2218
 Red. masses --      1.0148
 Frc consts  --      0.0602
 IR Inten    --      0.2434

 - Thermochemistry -
 -------------------
 Temperature   298.150 Kelvin.  Pressure   1.00000 Atm.
 Atom     1 has atomic number  1 and mass   1.00783

 Molecular mass:    21.01405 amu.
 Principal axes and moments of inertia in atomic units:
                           1         2         3
     Eigenvalues --     0.00000 131.66629 131.66629
           X            1.00000  -0.00000   0.00000
           Y            0.00000   1.00000   0.00000
           Z            0.00000   0.00000   1.00000
 This molecule is a prolate symmetric top.
 Rotational symmetry number  1.
 Rotational temperature (Kelvin)      0.65783
 Rotational constant (GHZ):          13.706934
    2 imaginary frequencies ignored.
 Zero-point vibrational energy       3794.8 (Joules/Mol)
                                    0.90698 (Kcal/Mol)
 Warning -- explicit consideration of   2 degrees of freedom as
           vibrations may cause significant error
 Vibrational temperatures:    456.41   456.41
          (Kelvin)

 Zero-point correction=                           0.001445 (Hartree/Particle)
 Thermal correction to Energy=                    0.004604
 Thermal correction to Enthalpy=                  0.005548
 Thermal correction to Gibbs Free Energy=        -0.019746
 Sum of electronic and zero-point Energies=           -100.764533
 Sum of electronic and thermal Energies=              -100.761375
 Sum of electronic and thermal Enthalpies=            -100.760431
 Sum of electronic and thermal Free Energies=         -100.785725

                     E (Thermal)             CV                S
                      KCal/Mol        Cal/Mol-Kelvin    Cal/Mol-Kelvin
 Total                    2.889              8.249             53.236
 Electronic               0.000              0.000              1.377
 Translational            0.889              2.981             35.068
 Rotational               0.592              1.987             14.142
 Vibrational              1.408              3.281              2.649
 Vibration     1          0.704              1.641              1.324
 Vibration     2          0.704              1.641              1.324

 Normal termination of Gaussian 16 at Fri Aug 22 20:10:24 2025.
