 Gaussian 16, Revision C.01,
 Gaussian 16:  ES64L-G16RevC.01  3-Jul-2019

 -----------------------------------------
 # sp b3lyp/6-311g** Force nosymm scf=(qc)
 -----------------------------------------

 -------------------
 Title Card Required
 -------------------
 Symbolic Z-matrix:
 Charge =  0 Multiplicity = 2

                          Input orientation:
 ---------------------------------------------------------------------
 Center     Atomic      Atomic             Coordinates (Angstroms)
 Number     Number       Type             X           Y           Z
 ---------------------------------------------------------------------
      1          1           0        0.000000    0.000000    0.000000
      2          1           0       -1.400000    0.000000    0.000000
      3          9           0        2.950000    0.000000    0.000000
 ---------------------------------------------------------------------

 SCF Done:  E(UB3LYP) =  -100.837079376     a.u. after   28 cycles

 Alpha  occ. eigenvalues --  -24.76755  -1.22575  -0.55761  -0.47023  -0.46911
 Alpha  occ. eigenvalues --   -0.34206
 Alpha virt. eigenvalues --   -0.07891   0.24456   0.31774   0.85700   0.90573
 Alpha virt. eigenvalues --    0.93144   1.03797   1.10943   1.18058   1.18065
 Alpha virt. eigenvalues --    1.45256   1.45264   1.90781   2.26040   2.51025

  Beta  occ. eigenvalues --  -24.73593  -1.13489  -0.43862  -0.43742  -0.34194
  Beta virt. eigenvalues --   -0.26385  -0.07877   0.24476   0.31849   0.92071
  Beta virt. eigenvalues --    0.94812   0.95157   1.07677   1.10956   1.18057
  Beta virt. eigenvalues --    1.18064   1.45255   1.45262   1.90789   2.26040

 Mulliken charges and spin densities:
               1          2
     1  H   -0.000607   0.001663
     2  H   -0.007469  -0.002771
     3  F    0.008076   1.001108
 Sum of Mulliken charges =   0.00000   1.00000

 Dipole moment (field-independent basis, Debye):
    X=              0.1217    Y=             -0.0000    Z=             -0.0000  Tot=              0.1217
 Quadrupole moment (field-independent basis, Debye-Ang):
   XX=             -6.1425   YY=             -6.8274   ZZ=             -7.6896
   XY=             -0.0000   XZ=             -0.0000   YZ=             -0.0240

  Exact polarizability:      21.082       0.000       2.832      -0.000      -0.021       2.063
 Approx polarizability:      36.592      -0.000       2.648       0.000      -0.016       2.070

 ******    1 imaginary frequencies (negative Signs) ******

                      1                      2                      3
                      A                      A                      A
 Frequencies --  -1167.3613                23.7712               859.2277
 Red. masses --      1.0078                 1.1085                 1.0114
 Frc consts  --      0.8092                 0.0004                 0.4399
 IR Inten    --      1.5673                 0.8353                11.6423

                      4
                      A
 Frequencies --   1307.7451
 Red. masses --      1.0114
 Frc consts  --      1.0191
 IR Inten    --      0.0072

 - Thermochemistry -
 -------------------
 Temperature   298.150 Kelvin.  Pressure   1.00000 Atm.
 Atom     1 has atomic number  1 and mass   1.00783

 Molecular mass:    21.01405 amu.
 Principal axes and moments of inertia in atomic units:
                           1         2         3
     Eigenvalues --     0.00000  90.22439  90.22439
           X            1.00000  -0.00000   0.00000
           Y            0.00000   1.00000   0.00000
           Z            0.00000   0.00000   1.00000
 This molecule is a prolate symmetric top.
 Rotational symmetry number  1.
 Rotational temperature (Kelvin)      0.95998
 Rotational constant (GHZ):          20.002809
    1 imaginary frequencies ignored.
 Zero-point vibrational energy      13103.6 (Joules/Mol)
                                    3.13183 (Kcal/Mol)
 Warning -- explicit consideration of   1 degrees of freedom as
           vibrations may cause significant error
 Vibrational temperatures:     34.20  1236.24  1881.55
          (Kelvin)

 Zero-point correction=                           0.004991 (Hartree/Particle)
 Thermal correction to Energy=                    0.008316
 Thermal correction to Enthalpy=                  0.009260
 Thermal correction to Gibbs Free Energy=        -0.017498
 Sum of electronic and zero-point Energies=           -100.832088
 Sum of electronic and thermal Energies=              -100.828763
 Sum of electronic and thermal Enthalpies=            -100.827819
 Sum of electronic and thermal Free Energies=         -100.854577

                     E (Thermal)             CV                S
                      KCal/Mol        Cal/Mol-Kelvin    Cal/Mol-Kelvin
 Total                    5.218              7.655             56.318
 Electronic               0.000              0.000              1.377
 Translational            0.889              2.981             35.068
 Rotational               0.592              1.987             13.391
 Vibrational              3.737              2.687              6.482
 Vibration     1          0.593              1.985              6.291

 Normal termination of Gaussian 16 at Fri Aug 22 19:14:01 2025.
