 Gaussian 16, Revision C.01,
 Gaussian 16:  ES64L-G16RevC.01  3-Jul-2019

 -----------------------------------------
 # sp b3lyp/6-311g** Force nosymm scf=(qc)
 -----------------------------------------

 -------------------
 Title Card Required
 -------------------
 Symbolic Z-matrix:
 Charge =  0 Multiplicity = 2

                          Input orientation:
 ---------------------------------------------------------------------
 Center     Atomic      Atomic             Coordinates (Angstroms)
 Number     Number       Type             X           Y           Z
 ---------------------------------------------------------------------
      1          1           0        0.000000    0.000000    0.000000
      2          1           0       -2.500000    0.000000    0.000000
      3          9           0        2.850000    0.000000    0.000000
 ---------------------------------------------------------------------

 SCF Done:  E(UB3LYP) =  -100.766036139     a.u. after   22 cycles

 Alpha  occ. eigenvalues --  -24.73558  -1.19652  -0.52673  -0.44229  -0.44229
 Alpha  occ. eigenvalues --   -0.33254
 Alpha virt. eigenvalues --   -0.10834   0.25224   0.33458   0.90013   0.92595
 Alpha virt. eigenvalues --    0.92595   1.04895   1.24399   1.24399   1.26498
 Alpha virt. eigenvalues --    1.39397   1.39397   1.41477   2.15191   2.35992

  Beta  occ. eigenvalues --  -24.70570  -1.11100  -0.41240  -0.41240  -0.34172
  Beta virt. eigenvalues --   -0.24488  -0.09344   0.25621   0.34797   0.94042
  Beta virt. eigenvalues --    0.94042   0.98540   1.08706   1.23319   1.23319
  Beta virt. eigenvalues --    1.25562   1.41811   1.41811   1.43513   2.15990

 Mulliken charges and spin densities:
               1          2
     1  H    0.041002  -0.917021
     2  H    0.007012   0.970661
     3  F   -0.048014   0.946359
 Sum of Mulliken charges =  -0.00000   1.00000

 Dipole moment (field-independent basis, Debye):
    X=             -0.7851    Y=              0.0000    Z=             -0.0000  Tot=              0.7851
 Quadrupole moment (field-independent basis, Debye-Ang):
   XX=             -8.2130   YY=             -7.6436   ZZ=             -7.6436
   XY=              0.0000   XZ=             -0.0000   YZ=              0.0000

  Exact polarizability:      44.753       0.000       2.013      -0.000      -0.000       2.013
 Approx polarizability:      42.768       0.000       1.920      -0.000       0.000       1.920

 ******    2 imaginary frequencies (negative Signs) ******

                      1                      2                      3
                      A                      A                      A
 Frequencies --   -724.9294              -267.4647               274.9021
 Red. masses --      1.0117                 1.1039                 1.0164
 Frc consts  --      0.3132                 0.0465                 0.0453
 IR Inten    --     30.5937                22.6039                 1.3276

                      4
                      A
 Frequencies --    274.9021
 Red. masses --      1.0164
 Frc consts  --      0.0453
 IR Inten    --      1.3276

 - Thermochemistry -
 -------------------
 Temperature   298.150 Kelvin.  Pressure   1.00000 Atm.
 Atom     1 has atomic number  1 and mass   1.00783

 Molecular mass:    21.01405 amu.
 Principal axes and moments of inertia in atomic units:
                           1         2         3
     Eigenvalues --     0.00000 120.63948 120.63948
           X            1.00000  -0.00000   0.00000
           Y            0.00000   1.00000   0.00000
           Z            0.00000   0.00000   1.00000
 This molecule is a prolate symmetric top.
 Rotational symmetry number  1.
 Rotational temperature (Kelvin)      0.71796
 Rotational constant (GHZ):          14.959789
    2 imaginary frequencies ignored.
 Zero-point vibrational energy       3288.6 (Joules/Mol)
                                    0.78598 (Kcal/Mol)
 Warning -- explicit consideration of   2 degrees of freedom as
           vibrations may cause significant error
 Vibrational temperatures:    395.52   395.52
          (Kelvin)

 Zero-point correction=                           0.001253 (Hartree/Particle)
 Thermal correction to Energy=                    0.004518
 Thermal correction to Enthalpy=                  0.005462
 Thermal correction to Gibbs Free Energy=        -0.019978
 Sum of electronic and zero-point Energies=           -100.764784
 Sum of electronic and thermal Energies=              -100.761518
 Sum of electronic and thermal Enthalpies=            -100.760574
 Sum of electronic and thermal Free Energies=         -100.786014

                     E (Thermal)             CV                S
                      KCal/Mol        Cal/Mol-Kelvin    Cal/Mol-Kelvin
 Total                    2.835              8.407             53.544
 Electronic               0.000              0.000              1.377
 Translational            0.889              2.981             35.068
 Rotational               0.592              1.987             13.968
 Vibrational              1.354              3.439              3.130
 Vibration     1          0.677              1.720              1.565
 Vibration     2          0.677              1.720              1.565

 Normal termination of Gaussian 16 at Fri Aug 22 18:53:53 2025.
