 Gaussian 16, Revision C.01,
 Gaussian 16:  ES64L-G16RevC.01  3-Jul-2019

 -----------------------------------------
 # sp b3lyp/6-311g** Force nosymm scf=(qc)
 -----------------------------------------

 -------------------
 Title Card Required
 -------------------
 Symbolic Z-matrix:
 Charge =  0 Multiplicity = 2

                          Input orientation:
 ---------------------------------------------------------------------
 Center     Atomic      Atomic             Coordinates (Angstroms)
 Number     Number       Type             X           Y           Z
 ---------------------------------------------------------------------
      1          1           0        0.000000    0.000000    0.000000
      2          1           0       -3.450000    0.000000    0.000000
      3          9           0        1.850000    0.000000    0.000000
 ---------------------------------------------------------------------

 SCF Done:  E(UB3LYP) =  -100.799057309     a.u. after   19 cycles

 Alpha  occ. eigenvalues --  -24.64898  -1.07531  -0.38981  -0.36650  -0.36650
 Alpha  occ. eigenvalues --   -0.33609
 Alpha virt. eigenvalues --   -0.19612   0.19696   0.27404   0.92181   0.95039
 Alpha virt. eigenvalues --    0.95039   1.08033   1.23138   1.23138   1.23861
 Alpha virt. eigenvalues --    1.23861   1.23935   1.62127   2.11520   2.14764

  Beta  occ. eigenvalues --  -24.66939  -1.13175  -0.45777  -0.38648  -0.38648
  Beta virt. eigenvalues --   -0.15015  -0.05291   0.27323   0.39337   0.91543
  Beta virt. eigenvalues --    0.94880   0.94880   1.05823   1.34072   1.34072
  Beta virt. eigenvalues --    1.46828   1.46828   1.47011   1.67679   2.26686

 Mulliken charges and spin densities:
               1          2
     1  H    0.239911   0.643409
     2  H    0.001784   0.998278
     3  F   -0.241695  -0.641687
 Sum of Mulliken charges =   0.00000   1.00000

 Dipole moment (field-independent basis, Debye):
    X=             -2.2187    Y=             -0.0000    Z=             -0.0000  Tot=              2.2187
 Quadrupole moment (field-independent basis, Debye-Ang):
   XX=            -10.1949   YY=             -7.4444   ZZ=             -7.4444
   XY=             -0.0000   XZ=             -0.0000   YZ=              0.0000

  Exact polarizability:      24.485      -0.000       2.087      -0.000      -0.000       2.087
 Approx polarizability:      37.452      -0.000       1.976      -0.000      -0.000       1.976

 ******    1 imaginary frequencies (negative Signs) ******

                      1                      2                      3
                      A                      A                      A
 Frequencies --  -1402.2598                39.9768               603.9260
 Red. masses --      1.0587                 1.0528                 1.0269
 Frc consts  --      1.2266                 0.0010                 0.2207
 IR Inten    --    125.0541                 0.4144                53.4074

                      4
                      A
 Frequencies --    603.9260
 Red. masses --      1.0269
 Frc consts  --      0.2207
 IR Inten    --     53.4074

 - Thermochemistry -
 -------------------
 Temperature   298.150 Kelvin.  Pressure   1.00000 Atm.
 Atom     1 has atomic number  1 and mass   1.00783

 Molecular mass:    21.01405 amu.
 Principal axes and moments of inertia in atomic units:
                           1         2         3
     Eigenvalues --     0.00000 104.58966 104.58966
           X            1.00000  -0.00000   0.00000
           Y            0.00000   1.00000   0.00000
           Z            0.00000   0.00000   1.00000
 This molecule is a prolate symmetric top.
 Rotational symmetry number  1.
 Rotational temperature (Kelvin)      0.82813
 Rotational constant (GHZ):          17.255446
    1 imaginary frequencies ignored.
 Zero-point vibrational energy       7463.7 (Joules/Mol)
                                    1.78386 (Kcal/Mol)
 Warning -- explicit consideration of   3 degrees of freedom as
           vibrations may cause significant error
 Vibrational temperatures:     57.52   868.91   868.91
          (Kelvin)

 Zero-point correction=                           0.002843 (Hartree/Particle)
 Thermal correction to Energy=                    0.006375
 Thermal correction to Enthalpy=                  0.007319
 Thermal correction to Gibbs Free Energy=        -0.019419
 Sum of electronic and zero-point Energies=           -100.796215
 Sum of electronic and thermal Energies=              -100.792682
 Sum of electronic and thermal Enthalpies=            -100.791738
 Sum of electronic and thermal Free Energies=         -100.818477

                     E (Thermal)             CV                S
                      KCal/Mol        Cal/Mol-Kelvin    Cal/Mol-Kelvin
 Total                    4.000              8.996             56.276
 Electronic               0.000              0.000              1.377
 Translational            0.889              2.981             35.068
 Rotational               0.592              1.987             13.684
 Vibrational              2.519              4.028              6.146
 Vibration     1          0.594              1.981              5.260
 Vibration     2          0.962              1.023              0.443
 Vibration     3          0.962              1.023              0.443

 Normal termination of Gaussian 16 at Fri Aug 22 16:48:11 2025.
