 Gaussian 16, Revision C.01,
 Gaussian 16:  ES64L-G16RevC.01  3-Jul-2019

 -----------------------------------------
 # sp b3lyp/6-311g** Force nosymm scf=(qc)
 -----------------------------------------

 -------------------
 Title Card Required
 -------------------
 Symbolic Z-matrix:
 Charge =  0 Multiplicity = 2

                          Input orientation:
 ---------------------------------------------------------------------
 Center     Atomic      Atomic             Coordinates (Angstroms)
 Number     Number       Type             X           Y           Z
 ---------------------------------------------------------------------
      1          1           0        0.000000    0.000000    0.000000
      2          1           0       -1.400000    0.000000    0.000000
      3          9           0        3.000000    0.000000    0.000000
 ---------------------------------------------------------------------

 SCF Done:  E(UB3LYP) =  -100.837039965     a.u. after  115 cycles

 Alpha  occ. eigenvalues --  -24.76712  -1.22537  -0.55726  -0.46977  -0.46876
 Alpha  occ. eigenvalues --   -0.34225
 Alpha virt. eigenvalues --   -0.07920   0.24425   0.31692   0.85729   0.90602
 Alpha virt. eigenvalues --    0.93118   1.03441   1.10883   1.18043   1.18050
 Alpha virt. eigenvalues --    1.45241   1.45248   1.90748   2.26017   2.50925

  Beta  occ. eigenvalues --  -24.73551  -1.13452  -0.43815  -0.43707  -0.34215
  Beta virt. eigenvalues --   -0.26352  -0.07907   0.24444   0.31762   0.92101
  Beta virt. eigenvalues --    0.94766   0.95187   1.07355   1.10886   1.18042
  Beta virt. eigenvalues --    1.18048   1.45240   1.45246   1.90757   2.26017

 Mulliken charges and spin densities:
               1          2
     1  H   -0.000560   0.001397
     2  H   -0.006892  -0.002405
     3  F    0.007452   1.001007
 Sum of Mulliken charges =   0.00000   1.00000

 Dipole moment (field-independent basis, Debye):
    X=              0.1126    Y=             -0.0000    Z=             -0.0000  Tot=              0.1126
 Quadrupole moment (field-independent basis, Debye-Ang):
   XX=             -6.1508   YY=             -7.2583   ZZ=             -7.2573
   XY=             -0.0000   XZ=             -0.0000   YZ=              0.4318

  Exact polarizability:      21.014      -0.000       2.292       0.000       0.231       2.293
 Approx polarizability:      36.534      -0.000       2.358      -0.000       0.290       2.358

 ******    1 imaginary frequencies (negative Signs) ******

                      1                      2                      3
                      A                      A                      A
 Frequencies --  -1167.1696                23.1336              1307.6898
 Red. masses --      1.0078                 1.1085                 1.0113
 Frc consts  --      0.8089                 0.0003                 1.0189
 IR Inten    --      1.2755                 0.7141                 0.0065

                      4
                      A
 Frequencies --   1308.1340
 Red. masses --      1.0113
 Frc consts  --      1.0196
 IR Inten    --      0.0061

 - Thermochemistry -
 -------------------
 Temperature   298.150 Kelvin.  Pressure   1.00000 Atm.
 Atom     1 has atomic number  1 and mass   1.00783

 Molecular mass:    21.01405 amu.
 Principal axes and moments of inertia in atomic units:
                           1         2         3
     Eigenvalues --     0.00000  92.61593  92.61593
           X            1.00000  -0.00000   0.00000
           Y            0.00000   1.00000   0.00000
           Z            0.00000   0.00000   1.00000
 This molecule is a prolate symmetric top.
 Rotational symmetry number  1.
 Rotational temperature (Kelvin)      0.93519
 Rotational constant (GHZ):          19.486294
    1 imaginary frequencies ignored.
 Zero-point vibrational energy      15784.5 (Joules/Mol)
                                    3.77258 (Kcal/Mol)
 Warning -- explicit consideration of   1 degrees of freedom as
           vibrations may cause significant error
 Vibrational temperatures:     33.28  1881.47  1882.11
          (Kelvin)

 Zero-point correction=                           0.006012 (Hartree/Particle)
 Thermal correction to Energy=                    0.009287
 Thermal correction to Enthalpy=                  0.010231
 Thermal correction to Gibbs Free Energy=        -0.016513
 Sum of electronic and zero-point Energies=           -100.831028
 Sum of electronic and thermal Energies=              -100.827753
 Sum of electronic and thermal Enthalpies=            -100.826809
 Sum of electronic and thermal Free Energies=         -100.853553

                     E (Thermal)             CV                S
                      KCal/Mol        Cal/Mol-Kelvin    Cal/Mol-Kelvin
 Total                    5.827              7.242             56.286
 Electronic               0.000              0.000              1.377
 Translational            0.889              2.981             35.068
 Rotational               0.592              1.987             13.443
 Vibrational              4.346              2.274              6.398
 Vibration     1          0.593              1.985              6.345

 Normal termination of Gaussian 16 at Fri Aug 22 19:29:02 2025.
