 Gaussian 16, Revision C.01,
 Gaussian 16:  ES64L-G16RevC.01  3-Jul-2019

 -----------------------------------------
 # sp b3lyp/6-311g** Force nosymm scf=(qc)
 -----------------------------------------

 -------------------
 Title Card Required
 -------------------
 Symbolic Z-matrix:
 Charge =  0 Multiplicity = 2

                          Input orientation:
 ---------------------------------------------------------------------
 Center     Atomic      Atomic             Coordinates (Angstroms)
 Number     Number       Type             X           Y           Z
 ---------------------------------------------------------------------
      1          1           0        0.000000    0.000000    0.000000
      2          1           0       -1.600000    0.000000    0.000000
      3          9           0        0.500000    0.000000    0.000000
 ---------------------------------------------------------------------

 SCF Done:  E(UB3LYP) =  -100.263010342     a.u. after    6 cycles

 Alpha  occ. eigenvalues --  -24.63227  -1.42751  -0.64026  -0.44551  -0.44551
 Alpha  occ. eigenvalues --   -0.35340
 Alpha virt. eigenvalues --    0.13910   0.22464   0.62207   0.89242   0.89699
 Alpha virt. eigenvalues --    0.89699   1.20335   1.20335   1.40620   1.60297
 Alpha virt. eigenvalues --    1.60297   1.67735   2.03881   2.22875   3.76437

  Beta  occ. eigenvalues --  -24.63160  -1.42526  -0.63780  -0.44513  -0.44513
  Beta virt. eigenvalues --   -0.10505   0.15043   0.32023   0.66807   0.89357
  Beta virt. eigenvalues --    0.89807   0.89807   1.37880   1.37880   1.44746
  Beta virt. eigenvalues --    1.62033   1.62033   1.79642   2.03984   2.48479

 Mulliken charges and spin densities:
               1          2
     1  H    0.086896   0.015710
     2  H    0.010355   0.983944
     3  F   -0.097251   0.000345
 Sum of Mulliken charges =   0.00000   1.00000

 Dipole moment (field-independent basis, Debye):
    X=             -1.2972    Y=             -0.0000    Z=             -0.0000  Tot=              1.2972
 Quadrupole moment (field-independent basis, Debye-Ang):
   XX=             -6.5582   YY=             -6.3778   ZZ=             -6.3778
   XY=             -0.0000   XZ=             -0.0000   YZ=             -0.0000

  Exact polarizability:       5.488      -0.000       2.470       0.000       0.000       2.470
 Approx polarizability:       5.181       0.000       2.480       0.000       0.000       2.480

 ******    2 imaginary frequencies (negative Signs) ******

                      1                      2                      3
                      A                      A                      A
 Frequencies --  -9419.0168             -9419.0168               826.5340
 Red. masses --      1.0356                 1.0356                 1.0533
 Frc consts  --     54.1316                54.1316                 0.4240
 IR Inten    --    215.2180               215.2180                 4.4584

                      4
                      A
 Frequencies --  19157.3902
 Red. masses --      1.0582
 Frc consts  --    228.8229
 IR Inten    --     77.7341

 - Thermochemistry -
 -------------------
 Temperature   298.150 Kelvin.  Pressure   1.00000 Atm.
 Atom     1 has atomic number  1 and mass   1.00783

 Molecular mass:    21.01405 amu.
 Principal axes and moments of inertia in atomic units:
                           1         2         3
     Eigenvalues --     0.00000  15.60456  15.60456
           X            1.00000  -0.00000   0.00000
           Y            0.00000   1.00000   0.00000
           Z            0.00000   0.00000   1.00000
 This molecule is a prolate symmetric top.
 Rotational symmetry number  1.
 Rotational temperature (Kelvin)      5.55055
 Rotational constant (GHZ):         115.654754
    2 imaginary frequencies ignored.
 Zero-point vibrational energy     119530.4 (Joules/Mol)
                                   28.56845 (Kcal/Mol)
 Vibrational temperatures:   1189.20 27563.21
          (Kelvin)

 Zero-point correction=                           0.045527 (Hartree/Particle)
 Thermal correction to Energy=                    0.047958
 Thermal correction to Enthalpy=                  0.048902
 Thermal correction to Gibbs Free Energy=         0.026792
 Sum of electronic and zero-point Energies=           -100.217484
 Sum of electronic and thermal Energies=              -100.215052
 Sum of electronic and thermal Enthalpies=            -100.214108
 Sum of electronic and thermal Free Energies=         -100.236219

                     E (Thermal)             CV                S
                      KCal/Mol        Cal/Mol-Kelvin    Cal/Mol-Kelvin
 Total                   30.094              5.576             46.536
 Electronic               0.000              0.000              1.377
 Translational            0.889              2.981             35.068
 Rotational               0.592              1.987              9.904
 Vibrational             28.613              0.608              0.187

 Normal termination of Gaussian 16 at Fri Aug 22 15:36:38 2025.
