 Gaussian 16, Revision C.01,
 Gaussian 16:  ES64L-G16RevC.01  3-Jul-2019

 -----------------------------------------
 # sp b3lyp/6-311g** Force nosymm scf=(qc)
 -----------------------------------------

 -------------------
 Title Card Required
 -------------------
 Symbolic Z-matrix:
 Charge =  0 Multiplicity = 2

                          Input orientation:
 ---------------------------------------------------------------------
 Center     Atomic      Atomic             Coordinates (Angstroms)
 Number     Number       Type             X           Y           Z
 ---------------------------------------------------------------------
      1          1           0        0.000000    0.000000    0.000000
      2          1           0       -0.750000    0.000000    0.000000
      3          9           0        2.550000    0.000000    0.000000
 ---------------------------------------------------------------------

 SCF Done:  E(UB3LYP) =  -100.934501655     a.u. after  373 cycles

 Alpha  occ. eigenvalues --  -24.76912  -1.22687  -0.55862  -0.47370  -0.47008
 Alpha  occ. eigenvalues --   -0.42600
 Alpha virt. eigenvalues --    0.06790   0.20481   0.48013   0.85620   0.90483
 Alpha virt. eigenvalues --    0.93428   1.08854   1.08875   1.11378   1.55551
 Alpha virt. eigenvalues --    1.82706   1.82725   1.98319   2.39948   3.28511

  Beta  occ. eigenvalues --  -24.73747  -1.13594  -0.44620  -0.43835  -0.42173
  Beta virt. eigenvalues --   -0.26472   0.06876   0.20537   0.48123   0.91977
  Beta virt. eigenvalues --    0.95056   0.95339   1.08867   1.08875   1.14935
  Beta virt. eigenvalues --    1.55557   1.82705   1.82723   1.98329   2.39958

 Mulliken charges and spin densities:
               1          2
     1  H   -0.007793  -0.001841
     2  H   -0.007273  -0.000408
     3  F    0.015066   1.002250
 Sum of Mulliken charges =   0.00000   1.00000

 Dipole moment (field-independent basis, Debye):
    X=              0.1521    Y=             -0.0000    Z=              0.0000  Tot=              0.1521
 Quadrupole moment (field-independent basis, Debye-Ang):
   XX=             -6.0291   YY=             -6.1008   ZZ=             -6.9637
   XY=             -0.0000   XZ=             -0.0000   YZ=              0.0070

  Exact polarizability:       8.915      -0.000       2.429       0.000       0.004       1.985
 Approx polarizability:      10.078      -0.000       2.628      -0.000       0.005       2.063

                      1                      2                      3
                      A                      A                      A
 Frequencies --    179.2225               413.7469               451.7088
 Red. masses --      1.1085                 1.0095                 1.0095
 Frc consts  --      0.0210                 0.1018                 0.1214
 IR Inten    --      0.6590                 0.0144                 0.0184

                      4
                      A
 Frequencies --   4338.9282
 Red. masses --      1.0078
 Frc consts  --     11.1789
 IR Inten    --      2.9723

 - Thermochemistry -
 -------------------
 Temperature   298.150 Kelvin.  Pressure   1.00000 Atm.
 Atom     1 has atomic number  1 and mass   1.00783

 Molecular mass:    21.01405 amu.
 Principal axes and moments of inertia in atomic units:
                           1         2         3
     Eigenvalues --     0.00000  56.68872  56.68872
           X            1.00000  -0.00000   0.00000
           Y            0.00000   1.00000   0.00000
           Z            0.00000   0.00000   1.00000
 This molecule is a prolate symmetric top.
 Rotational symmetry number  1.
 Rotational temperature (Kelvin)      1.52789
 Rotational constant (GHZ):          31.835987
 Zero-point vibrational energy      32201.1 (Joules/Mol)
                                    7.69625 (Kcal/Mol)
 Warning -- explicit consideration of   3 degrees of freedom as
           vibrations may cause significant error
 Vibrational temperatures:    257.86   595.29   649.91  6242.75
          (Kelvin)

 Zero-point correction=                           0.012265 (Hartree/Particle)
 Thermal correction to Energy=                    0.015778
 Thermal correction to Enthalpy=                  0.016722
 Thermal correction to Gibbs Free Energy=        -0.008438
 Sum of electronic and zero-point Energies=           -100.922237
 Sum of electronic and thermal Energies=              -100.918724
 Sum of electronic and thermal Enthalpies=            -100.917780
 Sum of electronic and thermal Free Energies=         -100.942939

                     E (Thermal)             CV                S
                      KCal/Mol        Cal/Mol-Kelvin    Cal/Mol-Kelvin
 Total                    9.901              9.633             52.953
 Electronic               0.000              0.000              1.377
 Translational            0.889              2.981             35.068
 Rotational               0.592              1.987             12.467
 Vibrational              8.420              4.665              4.041
 Vibration     1          0.629              1.868              2.336
 Vibration     2          0.777              1.440              0.913
 Vibration     3          0.810              1.357              0.791

 Normal termination of Gaussian 16 at Fri Aug 22 17:50:50 2025.
