 Gaussian 16, Revision C.01,
 Gaussian 16:  ES64L-G16RevC.01  3-Jul-2019

 -----------------------------------------
 # sp b3lyp/6-311g** Force nosymm scf=(qc)
 -----------------------------------------

 -------------------
 Title Card Required
 -------------------
 Symbolic Z-matrix:
 Charge =  0 Multiplicity = 2

                          Input orientation:
 ---------------------------------------------------------------------
 Center     Atomic      Atomic             Coordinates (Angstroms)
 Number     Number       Type             X           Y           Z
 ---------------------------------------------------------------------
      1          1           0        0.000000    0.000000    0.000000
      2          1           0       -0.600000    0.000000    0.000000
      3          9           0        2.650000    0.000000    0.000000
 ---------------------------------------------------------------------

 SCF Done:  E(UB3LYP) =  -100.915289675     a.u. after  200 cycles

 Alpha  occ. eigenvalues --  -24.76763  -1.22541  -0.55724  -0.47543  -0.46872
 Alpha  occ. eigenvalues --   -0.45729
 Alpha virt. eigenvalues --    0.09385   0.19477   0.53170   0.85758   0.90625
 Alpha virt. eigenvalues --    0.93703   1.10481   1.10497   1.11327   1.61091
 Alpha virt. eigenvalues --    1.83056   1.93030   1.93047   2.38821   3.64545

  Beta  occ. eigenvalues --  -24.73599  -1.13448  -0.46588  -0.43699  -0.43508
  Beta virt. eigenvalues --   -0.26337   0.09475   0.19537   0.53283   0.92122
  Beta virt. eigenvalues --    0.95205   0.95633   1.10486   1.10496   1.14847
  Beta virt. eigenvalues --    1.61100   1.83072   1.93029   1.93046   2.38834

 Mulliken charges and spin densities:
               1          2
     1  H   -0.010148  -0.002295
     2  H   -0.003929   0.000186
     3  F    0.014077   1.002109
 Sum of Mulliken charges =   0.00000   1.00000

 Dipole moment (field-independent basis, Debye):
    X=              0.1254    Y=             -0.0000    Z=              0.0000  Tot=              0.1254
 Quadrupole moment (field-independent basis, Debye-Ang):
   XX=             -5.9814   YY=             -6.7434   ZZ=             -5.8906
   XY=             -0.0000   XZ=             -0.0000   YZ=              0.0667

  Exact polarizability:       6.982      -0.000       1.894       0.000       0.035       2.338
 Approx polarizability:       7.476      -0.000       1.979      -0.000       0.044       2.538

 ******    2 imaginary frequencies (negative Signs) ******

                      1                      2                      3
                      A                      A                      A
 Frequencies --  -2752.0106             -2749.5492               156.2653
 Red. masses --      1.0089                 1.0089                 1.1085
 Frc consts  --      4.5018                 4.4937                 0.0159
 IR Inten    --      0.0680                 0.0732                 0.2977

                      4
                      A
 Frequencies --   7042.4692
 Red. masses --      1.0078
 Frc consts  --     29.4500
 IR Inten    --      1.3048

 - Thermochemistry -
 -------------------
 Temperature   298.150 Kelvin.  Pressure   1.00000 Atm.
 Atom     1 has atomic number  1 and mass   1.00783

 Molecular mass:    21.01405 amu.
 Principal axes and moments of inertia in atomic units:
                           1         2         3
     Eigenvalues --     0.00000  57.28012  57.28012
           X            1.00000  -0.00000   0.00000
           Y            0.00000   1.00000   0.00000
           Z            0.00000   0.00000   1.00000
 This molecule is a prolate symmetric top.
 Rotational symmetry number  1.
 Rotational temperature (Kelvin)      1.51211
 Rotational constant (GHZ):          31.507288
    2 imaginary frequencies ignored.
 Zero-point vibrational energy      43058.0 (Joules/Mol)
                                   10.29111 (Kcal/Mol)
 Warning -- explicit consideration of   1 degrees of freedom as
           vibrations may cause significant error
 Vibrational temperatures:    224.83 10132.54
          (Kelvin)

 Zero-point correction=                           0.016400 (Hartree/Particle)
 Thermal correction to Energy=                    0.019393
 Thermal correction to Enthalpy=                  0.020337
 Thermal correction to Gibbs Free Energy=        -0.004145
 Sum of electronic and zero-point Energies=           -100.898890
 Sum of electronic and thermal Energies=              -100.895897
 Sum of electronic and thermal Enthalpies=            -100.894953
 Sum of electronic and thermal Free Energies=         -100.919435

                     E (Thermal)             CV                S
                      KCal/Mol        Cal/Mol-Kelvin    Cal/Mol-Kelvin
 Total                   12.169              6.864             51.528
 Electronic               0.000              0.000              1.377
 Translational            0.889              2.981             35.068
 Rotational               0.592              1.987             12.488
 Vibrational             10.688              1.896              2.595
 Vibration     1          0.620              1.896              2.595

 Normal termination of Gaussian 16 at Fri Aug 22 18:07:10 2025.
