 Gaussian 16, Revision C.01,
 Gaussian 16:  ES64L-G16RevC.01  3-Jul-2019

 -----------------------------------------
 # sp b3lyp/6-311g** Force nosymm scf=(qc)
 -----------------------------------------

 -------------------
 Title Card Required
 -------------------
 Symbolic Z-matrix:
 Charge =  0 Multiplicity = 2

                          Input orientation:
 ---------------------------------------------------------------------
 Center     Atomic      Atomic             Coordinates (Angstroms)
 Number     Number       Type             X           Y           Z
 ---------------------------------------------------------------------
      1          1           0        0.000000    0.000000    0.000000
      2          1           0       -3.900000    0.000000    0.000000
      3          9           0        1.700000    0.000000    0.000000
 ---------------------------------------------------------------------

 SCF Done:  E(UB3LYP) =  -100.814442979     a.u. after    9 cycles

 Alpha  occ. eigenvalues --  -24.64263  -1.08881  -0.40983  -0.36026  -0.36026
 Alpha  occ. eigenvalues --   -0.33695
 Alpha virt. eigenvalues --   -0.18812   0.20006   0.26795   0.94847   0.94847
 Alpha virt. eigenvalues --    0.96405   1.07275   1.23774   1.23810   1.23810
 Alpha virt. eigenvalues --    1.27609   1.27609   1.70092   2.12167   2.16850

  Beta  occ. eigenvalues --  -24.64270  -1.08899  -0.40993  -0.36033  -0.36033
  Beta virt. eigenvalues --   -0.18842  -0.06344   0.22493   0.38130   0.94850
  Beta virt. eigenvalues --    0.94850   0.96419   1.07275   1.27662   1.27662
  Beta virt. eigenvalues --    1.46190   1.46519   1.46519   1.70136   2.15334

 Mulliken charges and spin densities:
               1          2
     1  H    0.327031   0.002986
     2  H    0.000896   0.999063
     3  F   -0.327926  -0.002049
 Sum of Mulliken charges =  -0.00000   1.00000

 Dipole moment (field-independent basis, Debye):
    X=             -2.7629    Y=              0.0000    Z=              0.0000  Tot=              2.7629
 Quadrupole moment (field-independent basis, Debye-Ang):
   XX=            -10.7064   YY=             -7.4179   ZZ=             -7.4179
   XY=             -0.0000   XZ=              0.0000   YZ=              0.0000

  Exact polarizability:      19.210      -0.000       2.103       0.000      -0.000       2.103
 Approx polarizability:      46.031       0.000       2.014       0.000      -0.000       2.014

 ******    2 imaginary frequencies (negative Signs) ******

                      1                      2                      3
                      A                      A                      A
 Frequencies --  -1181.2351               -56.5113               871.8591
 Red. masses --      1.0580                 1.0536                 1.0303
 Frc consts  --      0.8698                 0.0020                 0.4614
 IR Inten    --     30.4734                 0.0863               103.7836

                      4
                      A
 Frequencies --    871.8591
 Red. masses --      1.0303
 Frc consts  --      0.4614
 IR Inten    --    103.7836

 - Thermochemistry -
 -------------------
 Temperature   298.150 Kelvin.  Pressure   1.00000 Atm.
 Atom     1 has atomic number  1 and mass   1.00783

 Molecular mass:    21.01405 amu.
 Principal axes and moments of inertia in atomic units:
                           1         2         3
     Eigenvalues --     0.00000 114.06782 114.06782
           X            1.00000  -0.00000   0.00000
           Y            0.00000   1.00000   0.00000
           Z            0.00000   0.00000   1.00000
 This molecule is a prolate symmetric top.
 Rotational symmetry number  1.
 Rotational temperature (Kelvin)      0.75932
 Rotational constant (GHZ):          15.821651
    2 imaginary frequencies ignored.
 Zero-point vibrational energy      10429.8 (Joules/Mol)
                                    2.49277 (Kcal/Mol)
 Vibrational temperatures:   1254.41  1254.41
          (Kelvin)

 Zero-point correction=                           0.003972 (Hartree/Particle)
 Thermal correction to Energy=                    0.006453
 Thermal correction to Enthalpy=                  0.007397
 Thermal correction to Gibbs Free Energy=        -0.016651
 Sum of electronic and zero-point Energies=           -100.810470
 Sum of electronic and thermal Energies=              -100.807990
 Sum of electronic and thermal Enthalpies=            -100.807046
 Sum of electronic and thermal Free Energies=         -100.831094

                     E (Thermal)             CV                S
                      KCal/Mol        Cal/Mol-Kelvin    Cal/Mol-Kelvin
 Total                    4.049              6.047             50.614
 Electronic               0.000              0.000              1.377
 Translational            0.889              2.981             35.068
 Rotational               0.592              1.987             13.857
 Vibrational              2.568              1.079              0.312

 Normal termination of Gaussian 16 at Fri Aug 22 16:39:03 2025.
