 Gaussian 16, Revision C.01,
 Gaussian 16:  ES64L-G16RevC.01  3-Jul-2019

 -----------------------------------------
 # sp b3lyp/6-311g** Force nosymm scf=(qc)
 -----------------------------------------

 -------------------
 Title Card Required
 -------------------
 Symbolic Z-matrix:
 Charge =  0 Multiplicity = 2

                          Input orientation:
 ---------------------------------------------------------------------
 Center     Atomic      Atomic             Coordinates (Angstroms)
 Number     Number       Type             X           Y           Z
 ---------------------------------------------------------------------
      1          1           0        0.000000    0.000000    0.000000
      2          1           0       -2.600000    0.000000    0.000000
      3          9           0        3.750000    0.000000    0.000000
 ---------------------------------------------------------------------

 SCF Done:  E(UB3LYP) =  -100.761705440     a.u. after   30 cycles

 Alpha  occ. eigenvalues --  -24.75746  -1.21683  -0.54870  -0.46071  -0.46071
 Alpha  occ. eigenvalues --   -0.32523
 Alpha virt. eigenvalues --   -0.08969   0.25643   0.34965   0.86944   0.91252
 Alpha virt. eigenvalues --    0.91252   1.01303   1.25091   1.25091   1.26605
 Alpha virt. eigenvalues --    1.42272   1.42272   1.43300   2.16014   2.37496

  Beta  occ. eigenvalues --  -24.72610  -1.12668  -0.42927  -0.42927  -0.32733
  Beta virt. eigenvalues --   -0.25676  -0.08661   0.25455   0.35407   0.92748
  Beta virt. eigenvalues --    0.92748   0.96243   1.05401   1.24853   1.24853
  Beta virt. eigenvalues --    1.26331   1.42733   1.42733   1.43759   2.16227

 Mulliken charges and spin densities:
               1          2
     1  H    0.003992  -0.971563
     2  H    0.001094   0.977296
     3  F   -0.005085   0.994267
 Sum of Mulliken charges =   0.00000   1.00000

 Dipole moment (field-independent basis, Debye):
    X=             -0.1116    Y=              0.0000    Z=             -0.0000  Tot=              0.1116
 Quadrupole moment (field-independent basis, Debye-Ang):
   XX=             -6.8871   YY=             -7.6585   ZZ=             -7.6585
   XY=              0.0000   XZ=             -0.0000   YZ=             -0.0000

  Exact polarizability:      23.648      -0.000       2.021       0.000      -0.000       2.021
 Approx polarizability:      17.482       0.000       1.931      -0.000       0.000       1.931

 ******    2 imaginary frequencies (negative Signs) ******

                      1                      2                      3
                      A                      A                      A
 Frequencies --   -576.4456              -101.7433               210.6914
 Red. masses --      1.0079                 1.1084                 1.0141
 Frc consts  --      0.1973                 0.0068                 0.0265
 IR Inten    --      2.0401                 2.1559                 0.0119

                      4
                      A
 Frequencies --    210.6914
 Red. masses --      1.0141
 Frc consts  --      0.0265
 IR Inten    --      0.0119

 - Thermochemistry -
 -------------------
 Temperature   298.150 Kelvin.  Pressure   1.00000 Atm.
 Atom     1 has atomic number  1 and mass   1.00783

 Molecular mass:    21.01405 amu.
 Principal axes and moments of inertia in atomic units:
                           1         2         3
     Eigenvalues --     0.00000 178.12445 178.12445
           X            1.00000  -0.00000   0.00000
           Y            0.00000   1.00000   0.00000
           Z            0.00000   0.00000   1.00000
 This molecule is a prolate symmetric top.
 Rotational symmetry number  1.
 Rotational temperature (Kelvin)      0.48626
 Rotational constant (GHZ):          10.131912
    2 imaginary frequencies ignored.
 Zero-point vibrational energy       2520.4 (Joules/Mol)
                                    0.60240 (Kcal/Mol)
 Warning -- explicit consideration of   2 degrees of freedom as
           vibrations may cause significant error
 Vibrational temperatures:    303.14   303.14
          (Kelvin)

 Zero-point correction=                           0.000960 (Hartree/Particle)
 Thermal correction to Energy=                    0.004409
 Thermal correction to Enthalpy=                  0.005353
 Thermal correction to Gibbs Free Energy=        -0.020904
 Sum of electronic and zero-point Energies=           -100.760745
 Sum of electronic and thermal Energies=              -100.757297
 Sum of electronic and thermal Enthalpies=            -100.756352
 Sum of electronic and thermal Free Energies=         -100.782610

                     E (Thermal)             CV                S
                      KCal/Mol        Cal/Mol-Kelvin    Cal/Mol-Kelvin
 Total                    2.767              8.617             55.263
 Electronic               0.000              0.000              1.377
 Translational            0.889              2.981             35.068
 Rotational               0.592              1.987             14.742
 Vibrational              1.285              3.649              4.075
 Vibration     1          0.643              1.825              2.038
 Vibration     2          0.643              1.825              2.038

 Normal termination of Gaussian 16 at Sat Aug 23 00:26:17 2025.
