 Gaussian 16, Revision C.01,
 Gaussian 16:  ES64L-G16RevC.01  3-Jul-2019

 -----------------------------------------
 # sp b3lyp/6-311g** Force nosymm scf=(qc)
 -----------------------------------------

 -------------------
 Title Card Required
 -------------------
 Symbolic Z-matrix:
 Charge =  0 Multiplicity = 2

                          Input orientation:
 ---------------------------------------------------------------------
 Center     Atomic      Atomic             Coordinates (Angstroms)
 Number     Number       Type             X           Y           Z
 ---------------------------------------------------------------------
      1          1           0        0.000000    0.000000    0.000000
      2          1           0       -2.450000    0.000000    0.000000
      3          9           0        3.350000    0.000000    0.000000
 ---------------------------------------------------------------------

 SCF Done:  E(UB3LYP) =  -100.763872203     a.u. after   25 cycles

 Alpha  occ. eigenvalues --  -24.75176  -1.21153  -0.54297  -0.45589  -0.45589
 Alpha  occ. eigenvalues --   -0.32803
 Alpha virt. eigenvalues --   -0.09913   0.25653   0.33911   0.88139   0.91609
 Alpha virt. eigenvalues --    0.91609   1.02238   1.24872   1.24872   1.26395
 Alpha virt. eigenvalues --    1.40668   1.40668   1.42693   2.15488   2.36474

  Beta  occ. eigenvalues --  -24.72077  -1.12254  -0.42484  -0.42484  -0.33174
  Beta virt. eigenvalues --   -0.25390  -0.09284   0.25513   0.34787   0.93093
  Beta virt. eigenvalues --    0.93093   0.97214   1.06238   1.24420   1.24420
  Beta virt. eigenvalues --    1.25839   1.41655   1.41655   1.43675   2.16229

 Mulliken charges and spin densities:
               1          2
     1  H    0.012332  -0.947705
     2  H    0.003443   0.965364
     3  F   -0.015776   0.982341
 Sum of Mulliken charges =  -0.00000   1.00000

 Dipole moment (field-independent basis, Debye):
    X=             -0.3115    Y=             -0.0000    Z=              0.0000  Tot=              0.3115
 Quadrupole moment (field-independent basis, Debye-Ang):
   XX=             -7.2866   YY=             -7.6675   ZZ=             -7.6675
   XY=              0.0000   XZ=             -0.0000   YZ=             -0.0000

  Exact polarizability:      38.685       0.000       2.019      -0.000      -0.000       2.019
 Approx polarizability:      30.199       0.000       1.927      -0.000       0.000       1.927

 ******    2 imaginary frequencies (negative Signs) ******

                      1                      2                      3
                      A                      A                      A
 Frequencies --   -724.6932              -166.2230               268.0812
 Red. masses --      1.0082                 1.1081                 1.0146
 Frc consts  --      0.3120                 0.0180                 0.0430
 IR Inten    --      9.9421                10.0471                 0.1042

                      4
                      A
 Frequencies --    268.0812
 Red. masses --      1.0146
 Frc consts  --      0.0430
 IR Inten    --      0.1042

 - Thermochemistry -
 -------------------
 Temperature   298.150 Kelvin.  Pressure   1.00000 Atm.
 Atom     1 has atomic number  1 and mass   1.00783

 Molecular mass:    21.01405 amu.
 Principal axes and moments of inertia in atomic units:
                           1         2         3
     Eigenvalues --     0.00000 147.00944 147.00944
           X            1.00000  -0.00000   0.00000
           Y            0.00000   1.00000   0.00000
           Z            0.00000   0.00000   1.00000
 This molecule is a prolate symmetric top.
 Rotational symmetry number  1.
 Rotational temperature (Kelvin)      0.58917
 Rotational constant (GHZ):          12.276363
    2 imaginary frequencies ignored.
 Zero-point vibrational energy       3207.0 (Joules/Mol)
                                    0.76648 (Kcal/Mol)
 Warning -- explicit consideration of   2 degrees of freedom as
           vibrations may cause significant error
 Vibrational temperatures:    385.71   385.71
          (Kelvin)

 Zero-point correction=                           0.001221 (Hartree/Particle)
 Thermal correction to Energy=                    0.004505
 Thermal correction to Enthalpy=                  0.005449
 Thermal correction to Gibbs Free Energy=        -0.020219
 Sum of electronic and zero-point Energies=           -100.762651
 Sum of electronic and thermal Energies=              -100.759367
 Sum of electronic and thermal Enthalpies=            -100.758423
 Sum of electronic and thermal Free Energies=         -100.784091

                     E (Thermal)             CV                S
                      KCal/Mol        Cal/Mol-Kelvin    Cal/Mol-Kelvin
 Total                    2.827              8.432             54.023
 Electronic               0.000              0.000              1.377
 Translational            0.889              2.981             35.068
 Rotational               0.592              1.987             14.361
 Vibrational              1.346              3.464              3.217
 Vibration     1          0.673              1.732              1.609
 Vibration     2          0.673              1.732              1.609

 Normal termination of Gaussian 16 at Fri Aug 22 21:01:52 2025.
