 Gaussian 16, Revision C.01,
 Gaussian 16:  ES64L-G16RevC.01  3-Jul-2019

 -----------------------------------------
 # sp b3lyp/6-311g** Force nosymm scf=(qc)
 -----------------------------------------

 -------------------
 Title Card Required
 -------------------
 Symbolic Z-matrix:
 Charge =  0 Multiplicity = 2

                          Input orientation:
 ---------------------------------------------------------------------
 Center     Atomic      Atomic             Coordinates (Angstroms)
 Number     Number       Type             X           Y           Z
 ---------------------------------------------------------------------
      1          1           0        0.000000    0.000000    0.000000
      2          1           0       -3.550000    0.000000    0.000000
      3          9           0        1.150000    0.000000    0.000000
 ---------------------------------------------------------------------

 SCF Done:  E(UB3LYP) =  -100.937355962     a.u. after    6 cycles

 Alpha  occ. eigenvalues --  -24.64327  -1.13003  -0.48654  -0.37798  -0.37798
 Alpha  occ. eigenvalues --   -0.33768
 Alpha virt. eigenvalues --   -0.04100   0.22669   0.30215   0.93353   0.93353
 Alpha virt. eigenvalues --    1.00188   1.23691   1.23746   1.23746   1.27734
 Alpha virt. eigenvalues --    1.34931   1.34931   1.75587   2.13869   2.30260

  Beta  occ. eigenvalues --  -24.64324  -1.12996  -0.48646  -0.37796  -0.37796
  Beta virt. eigenvalues --   -0.06859  -0.03061   0.28036   0.38925   0.93353
  Beta virt. eigenvalues --    0.93353   1.00196   1.27692   1.34926   1.34926
  Beta virt. eigenvalues --    1.48446   1.48446   1.48824   1.75614   2.29885

 Mulliken charges and spin densities:
               1          2
     1  H    0.347658   0.000221
     2  H    0.001060   0.998814
     3  F   -0.348718   0.000966
 Sum of Mulliken charges =   0.00000   1.00000

 Dipole moment (field-independent basis, Debye):
    X=             -2.2337    Y=              0.0000    Z=              0.0000  Tot=              2.2337
 Quadrupole moment (field-independent basis, Debye-Ang):
   XX=             -8.7090   YY=             -7.0891   ZZ=             -7.0891
   XY=              0.0000   XZ=              0.0000   YZ=              0.0000

  Exact polarizability:       8.724      -0.000       2.344       0.000      -0.000       2.344
 Approx polarizability:      11.868       0.000       2.304       0.000      -0.000       2.304

 ******    1 imaginary frequencies (negative Signs) ******

                      1                      2                      3
                      A                      A                      A
 Frequencies --    -52.5473              1207.5594              1207.5594
 Red. masses --      1.0530                 1.0350                 1.0350
 Frc consts  --      0.0017                 0.8892                 0.8892
 IR Inten    --      0.0775               151.8939               151.8939

                      4
                      A
 Frequencies --   1466.6088
 Red. masses --      1.0585
 Frc consts  --      1.3415
 IR Inten    --     72.5455

 - Thermochemistry -
 -------------------
 Temperature   298.150 Kelvin.  Pressure   1.00000 Atm.
 Atom     1 has atomic number  1 and mass   1.00783

 Molecular mass:    21.01405 amu.
 Principal axes and moments of inertia in atomic units:
                           1         2         3
     Eigenvalues --     0.00000  78.35475  78.35475
           X            1.00000  -0.00000   0.00000
           Y            0.00000   1.00000   0.00000
           Z            0.00000   0.00000   1.00000
 This molecule is a prolate symmetric top.
 Rotational symmetry number  1.
 Rotational temperature (Kelvin)      1.10541
 Rotational constant (GHZ):          23.032953
    1 imaginary frequencies ignored.
 Zero-point vibrational energy      23217.9 (Joules/Mol)
                                    5.54921 (Kcal/Mol)
 Vibrational temperatures:   1737.41  1737.41  2110.12
          (Kelvin)

 Zero-point correction=                           0.008843 (Hartree/Particle)
 Thermal correction to Energy=                    0.011242
 Thermal correction to Enthalpy=                  0.012186
 Thermal correction to Gibbs Free Energy=        -0.011404
 Sum of electronic and zero-point Energies=           -100.928513
 Sum of electronic and thermal Energies=              -100.926114
 Sum of electronic and thermal Enthalpies=            -100.925170
 Sum of electronic and thermal Free Energies=         -100.948760

                     E (Thermal)             CV                S
                      KCal/Mol        Cal/Mol-Kelvin    Cal/Mol-Kelvin
 Total                    7.054              5.452             49.649
 Electronic               0.000              0.000              1.377
 Translational            0.889              2.981             35.068
 Rotational               0.592              1.987             13.110
 Vibrational              5.573              0.484              0.094

 Normal termination of Gaussian 16 at Fri Aug 22 16:08:45 2025.
