 Gaussian 16, Revision C.01,
 Gaussian 16:  ES64L-G16RevC.01  3-Jul-2019

 -----------------------------------------
 # sp b3lyp/6-311g** Force nosymm scf=(qc)
 -----------------------------------------

 -------------------
 Title Card Required
 -------------------
 Symbolic Z-matrix:
 Charge =  0 Multiplicity = 2

                          Input orientation:
 ---------------------------------------------------------------------
 Center     Atomic      Atomic             Coordinates (Angstroms)
 Number     Number       Type             X           Y           Z
 ---------------------------------------------------------------------
      1          1           0        0.000000    0.000000    0.000000
      2          1           0       -2.250000    0.000000    0.000000
      3          9           0        2.050000    0.000000    0.000000
 ---------------------------------------------------------------------

 SCF Done:  E(UB3LYP) =  -100.790901225     a.u. after   19 cycles

 Alpha  occ. eigenvalues --  -24.68486  -1.14809  -0.47518  -0.39956  -0.39956
 Alpha  occ. eigenvalues --   -0.35437
 Alpha virt. eigenvalues --   -0.13715   0.24223   0.31139   0.89108   0.94932
 Alpha virt. eigenvalues --    0.94932   1.06011   1.22341   1.22341   1.27257
 Alpha virt. eigenvalues --    1.34649   1.34649   1.57049   2.12094   2.29357

  Beta  occ. eigenvalues --  -24.66037  -1.07945  -0.37539  -0.37539  -0.37280
  Beta virt. eigenvalues --   -0.21270  -0.10890   0.25696   0.33343   0.91924
  Beta virt. eigenvalues --    0.95745   0.95745   1.08809   1.22455   1.22455
  Beta virt. eigenvalues --    1.38899   1.38899   1.42159   1.50769   2.12376

 Mulliken charges and spin densities:
               1          2
     1  H    0.149069  -0.711520
     2  H    0.028666   0.941367
     3  F   -0.177736   0.770153
 Sum of Mulliken charges =   0.00000   1.00000

 Dipole moment (field-independent basis, Debye):
    X=             -2.1200    Y=              0.0000    Z=             -0.0000  Tot=              2.1200
 Quadrupole moment (field-independent basis, Debye-Ang):
   XX=             -9.0643   YY=             -7.5496   ZZ=             -7.5496
   XY=              0.0000   XZ=             -0.0000   YZ=             -0.0000

  Exact polarizability:      44.523       0.000       2.050      -0.000      -0.000       2.050
 Approx polarizability:      51.639       0.000       1.948      -0.000      -0.000       1.948

 ******    2 imaginary frequencies (negative Signs) ******

                      1                      2                      3
                      A                      A                      A
 Frequencies --  -1274.9233              -492.3516               531.1284
 Red. masses --      1.0288                 1.0843                 1.0191
 Frc consts  --      0.9852                 0.1549                 0.1694
 IR Inten    --     81.7474                30.5594                16.5172

                      4
                      A
 Frequencies --    531.1284
 Red. masses --      1.0191
 Frc consts  --      0.1694
 IR Inten    --     16.5172

 - Thermochemistry -
 -------------------
 Temperature   298.150 Kelvin.  Pressure   1.00000 Atm.
 Atom     1 has atomic number  1 and mass   1.00783

 Molecular mass:    21.01405 amu.
 Principal axes and moments of inertia in atomic units:
                           1         2         3
     Eigenvalues --     0.00000  74.71056  74.71056
           X            1.00000  -0.00000   0.00000
           Y            0.00000   1.00000   0.00000
           Z            0.00000   0.00000   1.00000
 This molecule is a prolate symmetric top.
 Rotational symmetry number  1.
 Rotational temperature (Kelvin)      1.15933
 Rotational constant (GHZ):          24.156441
    2 imaginary frequencies ignored.
 Zero-point vibrational energy       6353.7 (Joules/Mol)
                                    1.51857 (Kcal/Mol)
 Warning -- explicit consideration of   2 degrees of freedom as
           vibrations may cause significant error
 Vibrational temperatures:    764.18   764.18
          (Kelvin)

 Zero-point correction=                           0.002420 (Hartree/Particle)
 Thermal correction to Energy=                    0.005185
 Thermal correction to Enthalpy=                  0.006129
 Thermal correction to Gibbs Free Energy=        -0.017927
 Sum of electronic and zero-point Energies=           -100.788481
 Sum of electronic and thermal Energies=              -100.785717
 Sum of electronic and thermal Enthalpies=            -100.784772
 Sum of electronic and thermal Free Energies=         -100.808829

                     E (Thermal)             CV                S
                      KCal/Mol        Cal/Mol-Kelvin    Cal/Mol-Kelvin
 Total                    3.253              7.330             50.631
 Electronic               0.000              0.000              1.377
 Translational            0.889              2.981             35.068
 Rotational               0.592              1.987             13.016
 Vibrational              1.772              2.362              1.169
 Vibration     1          0.886              1.181              0.585
 Vibration     2          0.886              1.181              0.585

 Normal termination of Gaussian 16 at Fri Aug 22 17:00:21 2025.
