 Gaussian 16, Revision C.01,
 Gaussian 16:  ES64L-G16RevC.01  3-Jul-2019

 -----------------------------------------
 # sp b3lyp/6-311g** Force nosymm scf=(qc)
 -----------------------------------------

 -------------------
 Title Card Required
 -------------------
 Symbolic Z-matrix:
 Charge =  0 Multiplicity = 2

                          Input orientation:
 ---------------------------------------------------------------------
 Center     Atomic      Atomic             Coordinates (Angstroms)
 Number     Number       Type             X           Y           Z
 ---------------------------------------------------------------------
      1          1           0        0.000000    0.000000    0.000000
      2          1           0       -3.450000    0.000000    0.000000
      3          9           0        4.000000    0.000000    0.000000
 ---------------------------------------------------------------------

 SCF Done:  E(UB3LYP) =  -100.758687671     a.u. after   38 cycles

 Alpha  occ. eigenvalues --  -24.75881  -1.21808  -0.55006  -0.46184  -0.46184
 Alpha  occ. eigenvalues --   -0.32264
 Alpha virt. eigenvalues --   -0.06723   0.24441   0.37635   0.86562   0.91170
 Alpha virt. eigenvalues --    0.91170   1.01081   1.25242   1.25242   1.25420
 Alpha virt. eigenvalues --    1.45503   1.45740   1.45740   2.15171   2.41084

  Beta  occ. eigenvalues --  -24.72735  -1.12763  -0.43030  -0.43030  -0.32452
  Beta virt. eigenvalues --   -0.25732  -0.06522   0.24293   0.37899   0.92668
  Beta virt. eigenvalues --    0.92668   0.95941   1.05209   1.25039   1.25039
  Beta virt. eigenvalues --    1.25205   1.45812   1.46039   1.46039   2.15152

 Mulliken charges and spin densities:
               1          2
     1  H    0.002331  -0.994879
     2  H    0.000076   0.997562
     3  F   -0.002407   0.997317
 Sum of Mulliken charges =  -0.00000   1.00000

 Dipole moment (field-independent basis, Debye):
    X=             -0.0512    Y=             -0.0000    Z=             -0.0000  Tot=              0.0512
 Quadrupole moment (field-independent basis, Debye-Ang):
   XX=             -6.8951   YY=             -7.6246   ZZ=             -7.6246
   XY=             -0.0000   XZ=             -0.0000   YZ=              0.0000

  Exact polarizability:      11.004      -0.000       2.054      -0.000       0.000       2.054
 Approx polarizability:       8.276      -0.000       1.936      -0.000      -0.000       1.936

 ******    2 imaginary frequencies (negative Signs) ******

                      1                      2                      3
                      A                      A                      A
 Frequencies --   -202.2771               -70.4220                67.5212
 Red. masses --      1.0101                 1.1057                 1.0162
 Frc consts  --      0.0244                 0.0032                 0.0027
 IR Inten    --      0.7220                 0.4269                 0.0037

                      4
                      A
 Frequencies --     67.5241
 Red. masses --      1.0162
 Frc consts  --      0.0027
 IR Inten    --      0.0037

 - Thermochemistry -
 -------------------
 Temperature   298.150 Kelvin.  Pressure   1.00000 Atm.
 Atom     1 has atomic number  1 and mass   1.00783

 Molecular mass:    21.01405 amu.
 Principal axes and moments of inertia in atomic units:
                           1         2         3
     Eigenvalues --     0.00000 234.70891 234.70891
           X            1.00000  -0.00000   0.00000
           Y            0.00000   1.00000   0.00000
           Z            0.00000   0.00000   1.00000
 This molecule is a prolate symmetric top.
 Rotational symmetry number  1.
 Rotational temperature (Kelvin)      0.36903
 Rotational constant (GHZ):           7.689274
    2 imaginary frequencies ignored.
 Zero-point vibrational energy        807.7 (Joules/Mol)
                                    0.19306 (Kcal/Mol)
 Warning -- explicit consideration of   2 degrees of freedom as
           vibrations may cause significant error
 Vibrational temperatures:     97.15    97.15
          (Kelvin)

 Zero-point correction=                           0.000308 (Hartree/Particle)
 Thermal correction to Energy=                    0.004266
 Thermal correction to Enthalpy=                  0.005210
 Thermal correction to Gibbs Free Energy=        -0.023386
 Sum of electronic and zero-point Energies=           -100.758380
 Sum of electronic and thermal Energies=              -100.754422
 Sum of electronic and thermal Enthalpies=            -100.753478
 Sum of electronic and thermal Free Energies=         -100.782074

                     E (Thermal)             CV                S
                      KCal/Mol        Cal/Mol-Kelvin    Cal/Mol-Kelvin
 Total                    2.677              8.907             60.185
 Electronic               0.000              0.000              1.377
 Translational            0.889              2.981             35.068
 Rotational               0.592              1.987             15.291
 Vibrational              1.195              3.939              8.449
 Vibration     1          0.598              1.970              4.224
 Vibration     2          0.598              1.970              4.224

 Normal termination of Gaussian 16 at Sat Aug 23 01:58:02 2025.
