 Gaussian 16, Revision C.01,
 Gaussian 16:  ES64L-G16RevC.01  3-Jul-2019

 -----------------------------------------
 # sp b3lyp/6-311g** Force nosymm scf=(qc)
 -----------------------------------------

 -------------------
 Title Card Required
 -------------------
 Symbolic Z-matrix:
 Charge =  0 Multiplicity = 2

                          Input orientation:
 ---------------------------------------------------------------------
 Center     Atomic      Atomic             Coordinates (Angstroms)
 Number     Number       Type             X           Y           Z
 ---------------------------------------------------------------------
      1          1           0        0.000000    0.000000    0.000000
      2          1           0       -2.200000    0.000000    0.000000
      3          9           0        0.700000    0.000000    0.000000
 ---------------------------------------------------------------------

 SCF Done:  E(UB3LYP) =  -100.874832795     a.u. after    6 cycles

 Alpha  occ. eigenvalues --  -24.63109  -1.28148  -0.58597  -0.41676  -0.41676
 Alpha  occ. eigenvalues --   -0.34963
 Alpha virt. eigenvalues --    0.09079   0.25023   0.51116   0.93563   0.93563
 Alpha virt. eigenvalues --    0.95845   1.15714   1.22569   1.22569   1.44153
 Alpha virt. eigenvalues --    1.44153   1.50659   1.96677   2.16512   2.86655

  Beta  occ. eigenvalues --  -24.63089  -1.28092  -0.58512  -0.41662  -0.41662
  Beta virt. eigenvalues --   -0.09580   0.10620   0.36872   0.50986   0.93559
  Beta virt. eigenvalues --    0.93559   0.96071   1.26457   1.43072   1.43072
  Beta virt. eigenvalues --    1.44538   1.44538   1.61436   1.98392   2.43153

 Mulliken charges and spin densities:
               1          2
     1  H    0.252495   0.006483
     2  H    0.007530   0.988618
     3  F   -0.260025   0.004899
 Sum of Mulliken charges =   0.00000   1.00000

 Dipole moment (field-independent basis, Debye):
    X=             -1.6622    Y=              0.0000    Z=              0.0000  Tot=              1.6622
 Quadrupole moment (field-independent basis, Debye-Ang):
   XX=             -7.0529   YY=             -6.6442   ZZ=             -6.6442
   XY=              0.0000   XZ=              0.0000   YZ=              0.0000

  Exact polarizability:       6.111       0.000       2.488      -0.000      -0.000       2.488
 Approx polarizability:       6.130      -0.000       2.477      -0.000      -0.000       2.477

 ******    2 imaginary frequencies (negative Signs) ******

                      1                      2                      3
                      A                      A                      A
 Frequencies --  -3513.1045             -3513.1045               224.9097
 Red. masses --      1.0353                 1.0353                 1.0533
 Frc consts  --      7.5284                 7.5284                 0.0314
 IR Inten    --    189.3087               189.3087                 0.2515

                      4
                      A
 Frequencies --   9070.9638
 Red. masses --      1.0583
 Frc consts  --     51.3058
 IR Inten    --    131.9346

 - Thermochemistry -
 -------------------
 Temperature   298.150 Kelvin.  Pressure   1.00000 Atm.
 Atom     1 has atomic number  1 and mass   1.00783

 Molecular mass:    21.01405 amu.
 Principal axes and moments of inertia in atomic units:
                           1         2         3
     Eigenvalues --     0.00000  29.79419  29.79419
           X            1.00000  -0.00000   0.00000
           Y            0.00000   1.00000   0.00000
           Z            0.00000   0.00000   1.00000
 This molecule is a prolate symmetric top.
 Rotational symmetry number  1.
 Rotational temperature (Kelvin)      2.90707
 Rotational constant (GHZ):          60.573594
    2 imaginary frequencies ignored.
 Zero-point vibrational energy      55601.7 (Joules/Mol)
                                   13.28912 (Kcal/Mol)
 Warning -- explicit consideration of   1 degrees of freedom as
           vibrations may cause significant error
 Vibrational temperatures:    323.59 13051.09
          (Kelvin)

 Zero-point correction=                           0.021178 (Hartree/Particle)
 Thermal correction to Energy=                    0.024061
 Thermal correction to Enthalpy=                  0.025005
 Thermal correction to Gibbs Free Energy=         0.001460
 Sum of electronic and zero-point Energies=           -100.853655
 Sum of electronic and thermal Energies=              -100.850772
 Sum of electronic and thermal Enthalpies=            -100.849828
 Sum of electronic and thermal Free Energies=         -100.873372

                     E (Thermal)             CV                S
                      KCal/Mol        Cal/Mol-Kelvin    Cal/Mol-Kelvin
 Total                   15.098              6.771             49.553
 Electronic               0.000              0.000              1.377
 Translational            0.889              2.981             35.068
 Rotational               0.592              1.987             11.189
 Vibrational             13.617              1.803              1.919
 Vibration     1          0.650              1.803              1.919

 Normal termination of Gaussian 16 at Fri Aug 22 15:46:34 2025.
