 Gaussian 16, Revision C.01,
 Gaussian 16:  ES64L-G16RevC.01  3-Jul-2019

 -----------------------------------------
 # sp b3lyp/6-311g** Force nosymm scf=(qc)
 -----------------------------------------

 -------------------
 Title Card Required
 -------------------
 Symbolic Z-matrix:
 Charge =  0 Multiplicity = 2

                          Input orientation:
 ---------------------------------------------------------------------
 Center     Atomic      Atomic             Coordinates (Angstroms)
 Number     Number       Type             X           Y           Z
 ---------------------------------------------------------------------
      1          1           0        0.000000    0.000000    0.000000
      2          1           0       -1.950000    0.000000    0.000000
      3          9           0        3.450000    0.000000    0.000000
 ---------------------------------------------------------------------

 SCF Done:  E(UB3LYP) =  -100.777021150     a.u. after   32 cycles

 Alpha  occ. eigenvalues --  -24.75540  -1.21492  -0.54663  -0.45901  -0.45901
 Alpha  occ. eigenvalues --   -0.33199
 Alpha virt. eigenvalues --   -0.11144   0.25818   0.31880   0.87765   0.91369
 Alpha virt. eigenvalues --    0.91369   1.01846   1.15110   1.24769   1.24769
 Alpha virt. eigenvalues --    1.37511   1.37511   1.53227   2.13181   2.37128

  Beta  occ. eigenvalues --  -24.72422  -1.12532  -0.42776  -0.42776  -0.33255
  Beta virt. eigenvalues --   -0.25622  -0.10902   0.25749   0.32319   0.92859
  Beta virt. eigenvalues --    0.92859   0.96910   1.05887   1.15114   1.24692
  Beta virt. eigenvalues --    1.24692   1.37838   1.37838   1.53474   2.13788

 Mulliken charges and spin densities:
               1          2
     1  H    0.002854  -0.821178
     2  H    0.006999   0.832682
     3  F   -0.009853   0.988496
 Sum of Mulliken charges =   0.00000   1.00000

 Dipole moment (field-independent basis, Debye):
    X=             -0.2387    Y=              0.0000    Z=             -0.0000  Tot=              0.2387
 Quadrupole moment (field-independent basis, Debye-Ang):
   XX=             -6.5781   YY=             -7.7328   ZZ=             -7.7328
   XY=              0.0000   XZ=             -0.0000   YZ=             -0.0000

  Exact polarizability:      45.621      -0.000       1.992      -0.000       0.000       1.992
 Approx polarizability:      41.291       0.000       1.941      -0.000      -0.000       1.941

 ******    2 imaginary frequencies (negative Signs) ******

                      1                      2                      3
                      A                      A                      A
 Frequencies --  -1448.4628              -138.8444               599.6245
 Red. masses --      1.0078                 1.1085                 1.0125
 Frc consts  --      1.2458                 0.0126                 0.2145
 IR Inten    --     13.3430                 7.9566                 0.0000

                      4
                      A
 Frequencies --    599.6245
 Red. masses --      1.0125
 Frc consts  --      0.2145
 IR Inten    --      0.0000

 - Thermochemistry -
 -------------------
 Temperature   298.150 Kelvin.  Pressure   1.00000 Atm.
 Atom     1 has atomic number  1 and mass   1.00783

 Molecular mass:    21.01405 amu.
 Principal axes and moments of inertia in atomic units:
                           1         2         3
     Eigenvalues --     0.00000 134.26528 134.26528
           X            1.00000  -0.00000   0.00000
           Y            0.00000   1.00000   0.00000
           Z            0.00000   0.00000   1.00000
 This molecule is a prolate symmetric top.
 Rotational symmetry number  1.
 Rotational temperature (Kelvin)      0.64510
 Rotational constant (GHZ):          13.441607
    2 imaginary frequencies ignored.
 Zero-point vibrational energy       7173.1 (Joules/Mol)
                                    1.71441 (Kcal/Mol)
 Warning -- explicit consideration of   2 degrees of freedom as
           vibrations may cause significant error
 Vibrational temperatures:    862.73   862.73
          (Kelvin)

 Zero-point correction=                           0.002732 (Hartree/Particle)
 Thermal correction to Energy=                    0.005413
 Thermal correction to Enthalpy=                  0.006357
 Thermal correction to Gibbs Free Energy=        -0.018125
 Sum of electronic and zero-point Energies=           -100.774289
 Sum of electronic and thermal Energies=              -100.771608
 Sum of electronic and thermal Enthalpies=            -100.770664
 Sum of electronic and thermal Free Energies=         -100.795146

                     E (Thermal)             CV                S
                      KCal/Mol        Cal/Mol-Kelvin    Cal/Mol-Kelvin
 Total                    3.397              7.033             51.527
 Electronic               0.000              0.000              1.377
 Translational            0.889              2.981             35.068
 Rotational               0.592              1.987             14.181
 Vibrational              1.915              2.065              0.901
 Vibration     1          0.958              1.033              0.450
 Vibration     2          0.958              1.033              0.450

 Normal termination of Gaussian 16 at Fri Aug 22 21:40:56 2025.
