 Gaussian 16, Revision C.01,
 Gaussian 16:  ES64L-G16RevC.01  3-Jul-2019

 -----------------------------------------
 # sp b3lyp/6-311g** Force nosymm scf=(qc)
 -----------------------------------------

 -------------------
 Title Card Required
 -------------------
 Symbolic Z-matrix:
 Charge =  0 Multiplicity = 2

                          Input orientation:
 ---------------------------------------------------------------------
 Center     Atomic      Atomic             Coordinates (Angstroms)
 Number     Number       Type             X           Y           Z
 ---------------------------------------------------------------------
      1          1           0        0.000000    0.000000    0.000000
      2          1           0       -1.400000    0.000000    0.000000
      3          9           0        1.450000    0.000000    0.000000
 ---------------------------------------------------------------------

 SCF Done:  E(UB3LYP) =  -100.891089691     a.u. after   11 cycles

 Alpha  occ. eigenvalues --  -24.65085  -1.12044  -0.48388  -0.38653  -0.37493
 Alpha  occ. eigenvalues --   -0.37493
 Alpha virt. eigenvalues --   -0.04363   0.20421   0.29442   0.92920   0.92920
 Alpha virt. eigenvalues --    0.99820   1.03716   1.13275   1.13275   1.43513
 Alpha virt. eigenvalues --    1.43513   1.52089   1.91249   2.20580   2.44936

  Beta  occ. eigenvalues --  -24.63644  -1.08201  -0.42384  -0.36119  -0.36119
  Beta virt. eigenvalues --   -0.21953  -0.00960   0.23508   0.30949   0.93134
  Beta virt. eigenvalues --    0.93134   1.04734   1.06953   1.19507   1.19507
  Beta virt. eigenvalues --    1.45669   1.45669   1.56322   1.95944   2.25068

 Mulliken charges and spin densities:
               1          2
     1  H    0.242936  -0.175416
     2  H    0.071309   0.732537
     3  F   -0.314245   0.442879
 Sum of Mulliken charges =   0.00000   1.00000

 Dipole moment (field-independent basis, Debye):
    X=             -2.7345    Y=             -0.0000    Z=              0.0000  Tot=              2.7345
 Quadrupole moment (field-independent basis, Debye-Ang):
   XX=             -8.0576   YY=             -7.1685   ZZ=             -7.1685
   XY=              0.0000   XZ=             -0.0000   YZ=             -0.0000

  Exact polarizability:      32.788       0.000       2.344      -0.000      -0.000       2.344
 Approx polarizability:      47.827       0.000       2.296      -0.000       0.000       2.296

 ******    2 imaginary frequencies (negative Signs) ******

                      1                      2                      3
                      A                      A                      A
 Frequencies --  -2678.2406              -247.1448              1113.0902
 Red. masses --      1.0229                 1.0908                 1.0175
 Frc consts  --      4.3231                 0.0393                 0.7428
 IR Inten    --    361.3463                14.5819                26.7651

                      4
                      A
 Frequencies --   1113.0902
 Red. masses --      1.0175
 Frc consts  --      0.7428
 IR Inten    --     26.7651

 - Thermochemistry -
 -------------------
 Temperature   298.150 Kelvin.  Pressure   1.00000 Atm.
 Atom     1 has atomic number  1 and mass   1.00783

 Molecular mass:    21.01405 amu.
 Principal axes and moments of inertia in atomic units:
                           1         2         3
     Eigenvalues --     0.00000  33.60836  33.60836
           X            1.00000  -0.00000   0.00000
           Y            0.00000   1.00000   0.00000
           Z            0.00000   0.00000   1.00000
 This molecule is a prolate symmetric top.
 Rotational symmetry number  1.
 Rotational temperature (Kelvin)      2.57715
 Rotational constant (GHZ):          53.699174
    2 imaginary frequencies ignored.
 Zero-point vibrational energy      13315.5 (Joules/Mol)
                                    3.18248 (Kcal/Mol)
 Vibrational temperatures:   1601.49  1601.49
          (Kelvin)

 Zero-point correction=                           0.005072 (Hartree/Particle)
 Thermal correction to Energy=                    0.007479
 Thermal correction to Enthalpy=                  0.008424
 Thermal correction to Gibbs Free Energy=        -0.014379
 Sum of electronic and zero-point Energies=           -100.886018
 Sum of electronic and thermal Energies=              -100.883610
 Sum of electronic and thermal Enthalpies=            -100.882666
 Sum of electronic and thermal Free Energies=         -100.905469

                     E (Thermal)             CV                S
                      KCal/Mol        Cal/Mol-Kelvin    Cal/Mol-Kelvin
 Total                    4.693              5.506             47.992
 Electronic               0.000              0.000              1.377
 Translational            0.889              2.981             35.068
 Rotational               0.592              1.987             11.428
 Vibrational              3.212              0.538              0.118

 Normal termination of Gaussian 16 at Fri Aug 22 16:22:17 2025.
