 Gaussian 16, Revision C.01,
 Gaussian 16:  ES64L-G16RevC.01  3-Jul-2019

 -----------------------------------------
 # sp b3lyp/6-311g** Force nosymm scf=(qc)
 -----------------------------------------

 -------------------
 Title Card Required
 -------------------
 Symbolic Z-matrix:
 Charge =  0 Multiplicity = 2

                          Input orientation:
 ---------------------------------------------------------------------
 Center     Atomic      Atomic             Coordinates (Angstroms)
 Number     Number       Type             X           Y           Z
 ---------------------------------------------------------------------
      1          1           0        0.000000    0.000000    0.000000
      2          1           0       -3.200000    0.000000    0.000000
      3          9           0        3.850000    0.000000    0.000000
 ---------------------------------------------------------------------

 SCF Done:  E(UB3LYP) =  -100.759114612     a.u. after   32 cycles

 Alpha  occ. eigenvalues --  -24.75798  -1.21731  -0.54922  -0.46114  -0.46114
 Alpha  occ. eigenvalues --   -0.32316
 Alpha virt. eigenvalues --   -0.07274   0.24732   0.36998   0.86770   0.91222
 Alpha virt. eigenvalues --    0.91222   1.01205   1.25202   1.25202   1.25604
 Alpha virt. eigenvalues --    1.44816   1.45008   1.45008   2.15522   2.40260

  Beta  occ. eigenvalues --  -24.72658  -1.12702  -0.42966  -0.42966  -0.32550
  Beta virt. eigenvalues --   -0.25692  -0.07006   0.24557   0.37385   0.92719
  Beta virt. eigenvalues --    0.92719   0.96101   1.05313   1.24945   1.24945
  Beta virt. eigenvalues --    1.25328   1.45230   1.45418   1.45418   2.15570

 Mulliken charges and spin densities:
               1          2
     1  H    0.003753  -0.991047
     2  H    0.000196   0.995444
     3  F   -0.003949   0.995604
 Sum of Mulliken charges =  -0.00000   1.00000

 Dipole moment (field-independent basis, Debye):
    X=             -0.0816    Y=              0.0000    Z=              0.0000  Tot=              0.0816
 Quadrupole moment (field-independent basis, Debye-Ang):
   XX=             -6.9662   YY=             -7.6298   ZZ=             -7.6298
   XY=              0.0000   XZ=              0.0000   YZ=              0.0000

  Exact polarizability:      15.285       0.000       2.030       0.000      -0.000       2.030
 Approx polarizability:      11.324       0.000       1.935       0.000      -0.000       1.935

 ******    2 imaginary frequencies (negative Signs) ******

                      1                      2                      3
                      A                      A                      A
 Frequencies --   -268.8760               -84.9670                93.0342
 Red. masses --      1.0092                 1.1068                 1.0159
 Frc consts  --      0.0430                 0.0047                 0.0052
 IR Inten    --      1.5512                 1.0689                 0.0128

                      4
                      A
 Frequencies --     93.0342
 Red. masses --      1.0159
 Frc consts  --      0.0052
 IR Inten    --      0.0128

 - Thermochemistry -
 -------------------
 Temperature   298.150 Kelvin.  Pressure   1.00000 Atm.
 Atom     1 has atomic number  1 and mass   1.00783

 Molecular mass:    21.01405 amu.
 Principal axes and moments of inertia in atomic units:
                           1         2         3
     Eigenvalues --     0.00000 211.71860 211.71860
           X            1.00000  -0.00000   0.00000
           Y            0.00000   1.00000   0.00000
           Z            0.00000   0.00000   1.00000
 This molecule is a prolate symmetric top.
 Rotational symmetry number  1.
 Rotational temperature (Kelvin)      0.40910
 Rotational constant (GHZ):           8.524245
    2 imaginary frequencies ignored.
 Zero-point vibrational energy       1112.9 (Joules/Mol)
                                    0.26600 (Kcal/Mol)
 Warning -- explicit consideration of   2 degrees of freedom as
           vibrations may cause significant error
 Vibrational temperatures:    133.86   133.86
          (Kelvin)

 Zero-point correction=                           0.000424 (Hartree/Particle)
 Thermal correction to Energy=                    0.004280
 Thermal correction to Enthalpy=                  0.005225
 Thermal correction to Gibbs Free Energy=        -0.022676
 Sum of electronic and zero-point Energies=           -100.758691
 Sum of electronic and thermal Energies=              -100.754834
 Sum of electronic and thermal Enthalpies=            -100.753890
 Sum of electronic and thermal Free Energies=         -100.781790

                     E (Thermal)             CV                S
                      KCal/Mol        Cal/Mol-Kelvin    Cal/Mol-Kelvin
 Total                    2.686              8.876             58.722
 Electronic               0.000              0.000              1.377
 Translational            0.889              2.981             35.068
 Rotational               0.592              1.987             15.086
 Vibrational              1.205              3.908              7.190
 Vibration     1          0.602              1.954              3.595
 Vibration     2          0.602              1.954              3.595

 Normal termination of Gaussian 16 at Sat Aug 23 01:10:25 2025.
