 Gaussian 16, Revision C.01,
 Gaussian 16:  ES64L-G16RevC.01  3-Jul-2019

 -----------------------------------------
 # sp b3lyp/6-311g** Force nosymm scf=(qc)
 -----------------------------------------

 -------------------
 Title Card Required
 -------------------
 Symbolic Z-matrix:
 Charge =  0 Multiplicity = 2

                          Input orientation:
 ---------------------------------------------------------------------
 Center     Atomic      Atomic             Coordinates (Angstroms)
 Number     Number       Type             X           Y           Z
 ---------------------------------------------------------------------
      1          1           0        0.000000    0.000000    0.000000
      2          1           0       -3.900000    0.000000    0.000000
      3          9           0        3.050000    0.000000    0.000000
 ---------------------------------------------------------------------

 SCF Done:  E(UB3LYP) =  -100.760526435     a.u. after   22 cycles

 Alpha  occ. eigenvalues --  -24.74249  -1.20297  -0.53369  -0.44812  -0.44812
 Alpha  occ. eigenvalues --   -0.32442
 Alpha virt. eigenvalues --   -0.07606   0.23912   0.36316   0.89175   0.92177
 Alpha virt. eigenvalues --    0.92177   1.03598   1.25055   1.25055   1.25083
 Alpha virt. eigenvalues --    1.44618   1.44618   1.45141   2.14425   2.40959

  Beta  occ. eigenvalues --  -24.71210  -1.11585  -0.41770  -0.41770  -0.33602
  Beta virt. eigenvalues --   -0.24866  -0.05992   0.23759   0.38134   0.93642
  Beta virt. eigenvalues --    0.93642   0.97923   1.07352   1.23730   1.23730
  Beta virt. eigenvalues --    1.23995   1.46535   1.46677   1.46677   2.14546

 Mulliken charges and spin densities:
               1          2
     1  H    0.033604  -0.962266
     2  H    0.000146   0.999225
     3  F   -0.033750   0.963042
 Sum of Mulliken charges =  -0.00000   1.00000

 Dipole moment (field-independent basis, Debye):
    X=             -0.5313    Y=             -0.0000    Z=              0.0000  Tot=              0.5313
 Quadrupole moment (field-independent basis, Debye-Ang):
   XX=             -8.2420   YY=             -7.6073   ZZ=             -7.6073
   XY=             -0.0000   XZ=              0.0000   YZ=              0.0000

  Exact polarizability:      30.593      -0.000       2.028       0.000       0.000       2.028
 Approx polarizability:      30.664      -0.000       1.928       0.000       0.000       1.928

 ******    2 imaginary frequencies (negative Signs) ******

                      1                      2                      3
                      A                      A                      A
 Frequencies --   -346.6590               -76.6348               119.3674
 Red. masses --      1.0529                 1.0586                 1.0212
 Frc consts  --      0.0746                 0.0037                 0.0086
 IR Inten    --     36.2126                 0.1161                 1.0809

                      4
                      A
 Frequencies --    119.3674
 Red. masses --      1.0212
 Frc consts  --      0.0086
 IR Inten    --      1.0809

 - Thermochemistry -
 -------------------
 Temperature   298.150 Kelvin.  Pressure   1.00000 Atm.
 Atom     1 has atomic number  1 and mass   1.00783

 Molecular mass:    21.01405 amu.
 Principal axes and moments of inertia in atomic units:
                           1         2         3
     Eigenvalues --     0.00000 190.06020 190.06020
           X            1.00000  -0.00000   0.00000
           Y            0.00000   1.00000   0.00000
           Z            0.00000   0.00000   1.00000
 This molecule is a prolate symmetric top.
 Rotational symmetry number  1.
 Rotational temperature (Kelvin)      0.45572
 Rotational constant (GHZ):           9.495630
    2 imaginary frequencies ignored.
 Zero-point vibrational energy       1428.0 (Joules/Mol)
                                    0.34129 (Kcal/Mol)
 Warning -- explicit consideration of   2 degrees of freedom as
           vibrations may cause significant error
 Vibrational temperatures:    171.74   171.74
          (Kelvin)

 Zero-point correction=                           0.000544 (Hartree/Particle)
 Thermal correction to Energy=                    0.004301
 Thermal correction to Enthalpy=                  0.005245
 Thermal correction to Gibbs Free Energy=        -0.022093
 Sum of electronic and zero-point Energies=           -100.759983
 Sum of electronic and thermal Energies=              -100.756226
 Sum of electronic and thermal Enthalpies=            -100.755281
 Sum of electronic and thermal Free Energies=         -100.782620

                     E (Thermal)             CV                S
                      KCal/Mol        Cal/Mol-Kelvin    Cal/Mol-Kelvin
 Total                    2.699              8.834             57.538
 Electronic               0.000              0.000              1.377
 Translational            0.889              2.981             35.068
 Rotational               0.592              1.987             14.871
 Vibrational              1.218              3.866              6.221
 Vibration     1          0.609              1.933              3.111
 Vibration     2          0.609              1.933              3.111

 Normal termination of Gaussian 16 at Fri Aug 22 19:45:44 2025.
