 Gaussian 16, Revision C.01,
 Gaussian 16:  ES64L-G16RevC.01  3-Jul-2019

 -----------------------------------------
 # sp b3lyp/6-311g** Force nosymm scf=(qc)
 -----------------------------------------

 -------------------
 Title Card Required
 -------------------
 Symbolic Z-matrix:
 Charge =  0 Multiplicity = 2

                          Input orientation:
 ---------------------------------------------------------------------
 Center     Atomic      Atomic             Coordinates (Angstroms)
 Number     Number       Type             X           Y           Z
 ---------------------------------------------------------------------
      1          1           0        0.000000    0.000000    0.000000
      2          1           0       -2.950000    0.000000    0.000000
      3          9           0        3.900000    0.000000    0.000000
 ---------------------------------------------------------------------

 SCF Done:  E(UB3LYP) =  -100.759710758     a.u. after   31 cycles

 Alpha  occ. eigenvalues --  -24.75838  -1.21768  -0.54963  -0.46148  -0.46148
 Alpha  occ. eigenvalues --   -0.32363
 Alpha virt. eigenvalues --   -0.07839   0.25138   0.36313   0.86688   0.91196
 Alpha virt. eigenvalues --    0.91196   1.01151   1.25178   1.25178   1.25975
 Alpha virt. eigenvalues --    1.44176   1.44176   1.44215   2.15869   2.39370

  Beta  occ. eigenvalues --  -24.72696  -1.12733  -0.42998  -0.42998  -0.32561
  Beta virt. eigenvalues --   -0.25714  -0.07596   0.24971   0.36643   0.92694
  Beta virt. eigenvalues --    0.92694   0.96043   1.05269   1.24962   1.24962
  Beta virt. eigenvalues --    1.25739   1.44541   1.44541   1.44581   2.15923

 Mulliken charges and spin densities:
               1          2
     1  H    0.002928  -0.987608
     2  H    0.000339   0.991269
     3  F   -0.003267   0.996338
 Sum of Mulliken charges =  -0.00000   1.00000

 Dipole moment (field-independent basis, Debye):
    X=             -0.0706    Y=             -0.0000    Z=             -0.0000  Tot=              0.0706
 Quadrupole moment (field-independent basis, Debye-Ang):
   XX=             -6.8840   YY=             -7.6384   ZZ=             -7.6384
   XY=             -0.0000   XZ=             -0.0000   YZ=             -0.0000

  Exact polarizability:      15.670      -0.000       2.028       0.000      -0.000       2.028
 Approx polarizability:      11.675      -0.000       1.934      -0.000      -0.000       1.934

 ******    2 imaginary frequencies (negative Signs) ******

                      1                      2                      3
                      A                      A                      A
 Frequencies --   -358.4857               -79.9062               127.4807
 Red. masses --      1.0081                 1.1082                 1.0149
 Frc consts  --      0.0763                 0.0042                 0.0097
 IR Inten    --      1.0112                 0.9483                 0.0074

                      4
                      A
 Frequencies --    127.4807
 Red. masses --      1.0149
 Frc consts  --      0.0097
 IR Inten    --      0.0074

 - Thermochemistry -
 -------------------
 Temperature   298.150 Kelvin.  Pressure   1.00000 Atm.
 Atom     1 has atomic number  1 and mass   1.00783

 Molecular mass:    21.01405 amu.
 Principal axes and moments of inertia in atomic units:
                           1         2         3
     Eigenvalues --     0.00000 203.66851 203.66851
           X            1.00000  -0.00000   0.00000
           Y            0.00000   1.00000   0.00000
           Z            0.00000   0.00000   1.00000
 This molecule is a prolate symmetric top.
 Rotational symmetry number  1.
 Rotational temperature (Kelvin)      0.42527
 Rotational constant (GHZ):           8.861170
    2 imaginary frequencies ignored.
 Zero-point vibrational energy       1525.0 (Joules/Mol)
                                    0.36449 (Kcal/Mol)
 Warning -- explicit consideration of   2 degrees of freedom as
           vibrations may cause significant error
 Vibrational temperatures:    183.42   183.42
          (Kelvin)

 Zero-point correction=                           0.000581 (Hartree/Particle)
 Thermal correction to Energy=                    0.004308
 Thermal correction to Enthalpy=                  0.005252
 Thermal correction to Gibbs Free Energy=        -0.022031
 Sum of electronic and zero-point Energies=           -100.759130
 Sum of electronic and thermal Energies=              -100.755403
 Sum of electronic and thermal Enthalpies=            -100.754459
 Sum of electronic and thermal Free Energies=         -100.781741

                     E (Thermal)             CV                S
                      KCal/Mol        Cal/Mol-Kelvin    Cal/Mol-Kelvin
 Total                    2.703              8.819             57.421
 Electronic               0.000              0.000              1.377
 Translational            0.889              2.981             35.068
 Rotational               0.592              1.987             15.009
 Vibrational              1.222              3.851              5.967
 Vibration     1          0.611              1.926              2.984
 Vibration     2          0.611              1.926              2.984

 Normal termination of Gaussian 16 at Sat Aug 23 01:26:10 2025.
