 Gaussian 16, Revision C.01,
 Gaussian 16:  ES64L-G16RevC.01  3-Jul-2019

 -----------------------------------------
 # sp b3lyp/6-311g** Force nosymm scf=(qc)
 -----------------------------------------

 -------------------
 Title Card Required
 -------------------
 Symbolic Z-matrix:
 Charge =  0 Multiplicity = 2

                          Input orientation:
 ---------------------------------------------------------------------
 Center     Atomic      Atomic             Coordinates (Angstroms)
 Number     Number       Type             X           Y           Z
 ---------------------------------------------------------------------
      1          1           0        0.000000    0.000000    0.000000
      2          1           0       -1.050000    0.000000    0.000000
      3          9           0        1.900000    0.000000    0.000000
 ---------------------------------------------------------------------

 SCF Done:  E(UB3LYP) =  -100.904475963     a.u. after   12 cycles

 Alpha  occ. eigenvalues --  -24.72520  -1.18828  -0.52645  -0.43487  -0.43487
 Alpha  occ. eigenvalues --   -0.40764
 Alpha virt. eigenvalues --   -0.00362   0.21127   0.35979   0.91398   0.91398
 Alpha virt. eigenvalues --    0.91546   1.07794   1.07794   1.09106   1.50270
 Alpha virt. eigenvalues --    1.60484   1.60484   2.19220   2.31830   2.57252

  Beta  occ. eigenvalues --  -24.69708  -1.10886  -0.40868  -0.40699  -0.40699
  Beta virt. eigenvalues --   -0.24885   0.01200   0.22030   0.36628   0.92611
  Beta virt. eigenvalues --    0.92611   0.98723   1.09160   1.09160   1.11928
  Beta virt. eigenvalues --    1.53095   1.61370   1.61370   2.20883   2.33351

 Mulliken charges and spin densities:
               1          2
     1  H    0.045560  -0.079552
     2  H    0.047461   0.200776
     3  F   -0.093021   0.878776
 Sum of Mulliken charges =   0.00000   1.00000

 Dipole moment (field-independent basis, Debye):
    X=             -1.0891    Y=              0.0000    Z=             -0.0000  Tot=              1.0891
 Quadrupole moment (field-independent basis, Debye-Ang):
   XX=             -6.7648   YY=             -7.2224   ZZ=             -7.2224
   XY=              0.0000   XZ=              0.0000   YZ=             -0.0000

  Exact polarizability:      33.323      -0.000       2.204       0.000      -0.000       2.204
 Approx polarizability:      45.524      -0.000       2.214      -0.000       0.000       2.214

 ******    1 imaginary frequencies (negative Signs) ******

                      1                      2                      3
                      A                      A                      A
 Frequencies --   -772.3348               939.5066              1427.6109
 Red. masses --      1.0806                 1.0320                 1.0124
 Frc consts  --      0.3798                 0.5367                 1.2156
 IR Inten    --    488.6071               393.3591                 0.0490

                      4
                      A
 Frequencies --   1427.6109
 Red. masses --      1.0124
 Frc consts  --      1.2156
 IR Inten    --      0.0490

 - Thermochemistry -
 -------------------
 Temperature   298.150 Kelvin.  Pressure   1.00000 Atm.
 Atom     1 has atomic number  1 and mass   1.00783

 Molecular mass:    21.01405 amu.
 Principal axes and moments of inertia in atomic units:
                           1         2         3
     Eigenvalues --     0.00000  40.25265  40.25265
           X            1.00000  -0.00000   0.00000
           Y            0.00000   1.00000   0.00000
           Z            0.00000   0.00000   1.00000
 This molecule is a prolate symmetric top.
 Rotational symmetry number  1.
 Rotational temperature (Kelvin)      2.15176
 Rotational constant (GHZ):          44.835343
    1 imaginary frequencies ignored.
 Zero-point vibrational energy      22697.5 (Joules/Mol)
                                    5.42484 (Kcal/Mol)
 Vibrational temperatures:   1351.74  2054.01  2054.01
          (Kelvin)

 Zero-point correction=                           0.008645 (Hartree/Particle)
 Thermal correction to Energy=                    0.011065
 Thermal correction to Enthalpy=                  0.012009
 Thermal correction to Gibbs Free Energy=        -0.010979
 Sum of electronic and zero-point Energies=           -100.895831
 Sum of electronic and thermal Energies=              -100.893411
 Sum of electronic and thermal Enthalpies=            -100.892467
 Sum of electronic and thermal Free Energies=         -100.915455

                     E (Thermal)             CV                S
                      KCal/Mol        Cal/Mol-Kelvin    Cal/Mol-Kelvin
 Total                    6.944              5.609             48.383
 Electronic               0.000              0.000              1.377
 Translational            0.889              2.981             35.068
 Rotational               0.592              1.987             11.787
 Vibrational              5.462              0.641              0.151

 Normal termination of Gaussian 16 at Fri Aug 22 16:49:08 2025.
