 Gaussian 16, Revision C.01,
 Gaussian 16:  ES64L-G16RevC.01  3-Jul-2019

 -----------------------------------------
 # sp b3lyp/6-311g** Force nosymm scf=(qc)
 -----------------------------------------

 -------------------
 Title Card Required
 -------------------
 Symbolic Z-matrix:
 Charge =  0 Multiplicity = 2

                          Input orientation:
 ---------------------------------------------------------------------
 Center     Atomic      Atomic             Coordinates (Angstroms)
 Number     Number       Type             X           Y           Z
 ---------------------------------------------------------------------
      1          1           0        0.000000    0.000000    0.000000
      2          1           0       -2.500000    0.000000    0.000000
      3          9           0        2.100000    0.000000    0.000000
 ---------------------------------------------------------------------

 SCF Done:  E(UB3LYP) =  -100.784795217     a.u. after   22 cycles

 Alpha  occ. eigenvalues --  -24.68934  -1.15252  -0.47964  -0.40343  -0.40343
 Alpha  occ. eigenvalues --   -0.34628
 Alpha virt. eigenvalues --   -0.13459   0.24148   0.31600   0.89035   0.94798
 Alpha virt. eigenvalues --    0.94798   1.06310   1.23023   1.23023   1.26080
 Alpha virt. eigenvalues --    1.35624   1.35624   1.55310   2.13913   2.29736

  Beta  occ. eigenvalues --  -24.66422  -1.08193  -0.37859  -0.37859  -0.37150
  Beta virt. eigenvalues --   -0.21447  -0.09869   0.25167   0.34640   0.91967
  Beta virt. eigenvalues --    0.95705   0.95705   1.08781   1.21971   1.21971
  Beta virt. eigenvalues --    1.41259   1.41259   1.42544   1.48262   2.13147

 Mulliken charges and spin densities:
               1          2
     1  H    0.149732  -0.760644
     2  H    0.016460   0.970028
     3  F   -0.166192   0.790616
 Sum of Mulliken charges =   0.00000   1.00000

 Dipole moment (field-independent basis, Debye):
    X=             -1.9354    Y=              0.0000    Z=              0.0000  Tot=              1.9354
 Quadrupole moment (field-independent basis, Debye-Ang):
   XX=             -9.3331   YY=             -7.5451   ZZ=             -7.5451
   XY=             -0.0000   XZ=              0.0000   YZ=             -0.0000

  Exact polarizability:      39.070      -0.000       2.044       0.000      -0.000       2.044
 Approx polarizability:      46.349       0.000       1.937       0.000      -0.000       1.937

 ******    2 imaginary frequencies (negative Signs) ******

                      1                      2                      3
                      A                      A                      A
 Frequencies --  -1091.0385              -391.5743               455.2052
 Red. masses --      1.0389                 1.0732                 1.0202
 Frc consts  --      0.7286                 0.0970                 0.1246
 IR Inten    --     87.1485                17.3374                18.4708

                      4
                      A
 Frequencies --    455.2052
 Red. masses --      1.0202
 Frc consts  --      0.1246
 IR Inten    --     18.4708

 - Thermochemistry -
 -------------------
 Temperature   298.150 Kelvin.  Pressure   1.00000 Atm.
 Atom     1 has atomic number  1 and mass   1.00783

 Molecular mass:    21.01405 amu.
 Principal axes and moments of inertia in atomic units:
                           1         2         3
     Eigenvalues --     0.00000  84.27832  84.27832
           X            1.00000  -0.00000   0.00000
           Y            0.00000   1.00000   0.00000
           Z            0.00000   0.00000   1.00000
 This molecule is a prolate symmetric top.
 Rotational symmetry number  1.
 Rotational temperature (Kelvin)      1.02771
 Rotational constant (GHZ):          21.414061
    2 imaginary frequencies ignored.
 Zero-point vibrational energy       5445.5 (Joules/Mol)
                                    1.30150 (Kcal/Mol)
 Warning -- explicit consideration of   2 degrees of freedom as
           vibrations may cause significant error
 Vibrational temperatures:    654.94   654.94
          (Kelvin)

 Zero-point correction=                           0.002074 (Hartree/Particle)
 Thermal correction to Energy=                    0.004953
 Thermal correction to Enthalpy=                  0.005898
 Thermal correction to Gibbs Free Energy=        -0.018458
 Sum of electronic and zero-point Energies=           -100.782721
 Sum of electronic and thermal Energies=              -100.779842
 Sum of electronic and thermal Enthalpies=            -100.778898
 Sum of electronic and thermal Free Energies=         -100.803253

                     E (Thermal)             CV                S
                      KCal/Mol        Cal/Mol-Kelvin    Cal/Mol-Kelvin
 Total                    3.108              7.667             51.261
 Electronic               0.000              0.000              1.377
 Translational            0.889              2.981             35.068
 Rotational               0.592              1.987             13.255
 Vibrational              1.627              2.699              1.560
 Vibration     1          0.814              1.349              0.780
 Vibration     2          0.814              1.349              0.780

 Normal termination of Gaussian 16 at Fri Aug 22 17:04:18 2025.
