 Gaussian 16, Revision C.01,
 Gaussian 16:  ES64L-G16RevC.01  3-Jul-2019

 -----------------------------------------
 # sp b3lyp/6-311g** Force nosymm scf=(qc)
 -----------------------------------------

 -------------------
 Title Card Required
 -------------------
 Symbolic Z-matrix:
 Charge =  0 Multiplicity = 2

                          Input orientation:
 ---------------------------------------------------------------------
 Center     Atomic      Atomic             Coordinates (Angstroms)
 Number     Number       Type             X           Y           Z
 ---------------------------------------------------------------------
      1          1           0        0.000000    0.000000    0.000000
      2          1           0       -3.000000    0.000000    0.000000
      3          9           0        3.050000    0.000000    0.000000
 ---------------------------------------------------------------------

 SCF Done:  E(UB3LYP) =  -100.761602822     a.u. after   22 cycles

 Alpha  occ. eigenvalues --  -24.74280  -1.20325  -0.53399  -0.44837  -0.44837
 Alpha  occ. eigenvalues --   -0.32681
 Alpha virt. eigenvalues --   -0.08910   0.24705   0.35156   0.89275   0.92159
 Alpha virt. eigenvalues --    0.92159   1.03651   1.24858   1.24858   1.25645
 Alpha virt. eigenvalues --    1.42655   1.42655   1.43019   2.15517   2.39064

  Beta  occ. eigenvalues --  -24.71240  -1.11609  -0.41794  -0.41794  -0.33643
  Beta virt. eigenvalues --   -0.24889  -0.07621   0.24667   0.36702   0.93624
  Beta virt. eigenvalues --    0.93624   0.98059   1.07479   1.23736   1.23736
  Beta virt. eigenvalues --    1.24588   1.44627   1.44662   1.44662   2.16014

 Mulliken charges and spin densities:
               1          2
     1  H    0.031663  -0.956058
     2  H    0.001493   0.992607
     3  F   -0.033156   0.963451
 Sum of Mulliken charges =  -0.00000   1.00000

 Dipole moment (field-independent basis, Debye):
    X=             -0.5408    Y=             -0.0000    Z=             -0.0000  Tot=              0.5408
 Quadrupole moment (field-independent basis, Debye-Ang):
   XX=             -8.0973   YY=             -7.6241   ZZ=             -7.6241
   XY=             -0.0000   XZ=             -0.0000   YZ=             -0.0000

  Exact polarizability:      34.676      -0.000       2.023      -0.000      -0.000       2.023
 Approx polarizability:      33.056      -0.000       1.925      -0.000       0.000       1.925

 ******    2 imaginary frequencies (negative Signs) ******

                      1                      2                      3
                      A                      A                      A
 Frequencies --   -431.7396              -182.5581               158.1622
 Red. masses --      1.0237                 1.0899                 1.0177
 Frc consts  --      0.1124                 0.0214                 0.0150
 IR Inten    --     30.8657                 5.9507                 0.8873

                      4
                      A
 Frequencies --    158.1622
 Red. masses --      1.0177
 Frc consts  --      0.0150
 IR Inten    --      0.8873

 - Thermochemistry -
 -------------------
 Temperature   298.150 Kelvin.  Pressure   1.00000 Atm.
 Atom     1 has atomic number  1 and mass   1.00783

 Molecular mass:    21.01405 amu.
 Principal axes and moments of inertia in atomic units:
                           1         2         3
     Eigenvalues --     0.00000 150.91891 150.91891
           X            1.00000  -0.00000   0.00000
           Y            0.00000   1.00000   0.00000
           Z            0.00000   0.00000   1.00000
 This molecule is a prolate symmetric top.
 Rotational symmetry number  1.
 Rotational temperature (Kelvin)      0.57391
 Rotational constant (GHZ):          11.958350
    2 imaginary frequencies ignored.
 Zero-point vibrational energy       1892.0 (Joules/Mol)
                                    0.45221 (Kcal/Mol)
 Warning -- explicit consideration of   2 degrees of freedom as
           vibrations may cause significant error
 Vibrational temperatures:    227.56   227.56
          (Kelvin)

 Zero-point correction=                           0.000721 (Hartree/Particle)
 Thermal correction to Energy=                    0.004340
 Thermal correction to Enthalpy=                  0.005284
 Thermal correction to Gibbs Free Energy=        -0.021324
 Sum of electronic and zero-point Energies=           -100.760882
 Sum of electronic and thermal Energies=              -100.757263
 Sum of electronic and thermal Enthalpies=            -100.756319
 Sum of electronic and thermal Free Energies=         -100.782927

                     E (Thermal)             CV                S
                      KCal/Mol        Cal/Mol-Kelvin    Cal/Mol-Kelvin
 Total                    2.723              8.755             56.002
 Electronic               0.000              0.000              1.377
 Translational            0.889              2.981             35.068
 Rotational               0.592              1.987             14.413
 Vibrational              1.242              3.787              5.143
 Vibration     1          0.621              1.893              2.572
 Vibration     2          0.621              1.893              2.572

 Normal termination of Gaussian 16 at Fri Aug 22 19:44:47 2025.
