 Gaussian 16, Revision C.01,
 Gaussian 16:  ES64L-G16RevC.01  3-Jul-2019

 -----------------------------------------
 # sp b3lyp/6-311g** Force nosymm scf=(qc)
 -----------------------------------------

 -------------------
 Title Card Required
 -------------------
 Symbolic Z-matrix:
 Charge =  0 Multiplicity = 2

                          Input orientation:
 ---------------------------------------------------------------------
 Center     Atomic      Atomic             Coordinates (Angstroms)
 Number     Number       Type             X           Y           Z
 ---------------------------------------------------------------------
      1          1           0        0.000000    0.000000    0.000000
      2          1           0       -2.050000    0.000000    0.000000
      3          9           0        1.850000    0.000000    0.000000
 ---------------------------------------------------------------------

 SCF Done:  E(UB3LYP) =  -100.810007896     a.u. after   18 cycles

 Alpha  occ. eigenvalues --  -24.66776  -1.13076  -0.45858  -0.38500  -0.38500
 Alpha  occ. eigenvalues --   -0.36723
 Alpha virt. eigenvalues --   -0.13629   0.23704   0.29878   0.90719   0.95057
 Alpha virt. eigenvalues --    0.95057   1.05207   1.21107   1.21107   1.28661
 Alpha virt. eigenvalues --    1.33879   1.33879   1.66540   2.10976   2.29278

  Beta  occ. eigenvalues --  -24.64680  -1.07275  -0.38372  -0.36448  -0.36448
  Beta virt. eigenvalues --   -0.20492  -0.11033   0.25591   0.32049   0.92808
  Beta virt. eigenvalues --    0.95349   0.95349   1.08442   1.24192   1.24192
  Beta virt. eigenvalues --    1.36732   1.36732   1.41149   1.63228   2.12372

 Mulliken charges and spin densities:
               1          2
     1  H    0.189670  -0.565581
     2  H    0.044486   0.907348
     3  F   -0.234156   0.658233
 Sum of Mulliken charges =   0.00000   1.00000

 Dipole moment (field-independent basis, Debye):
    X=             -2.5662    Y=             -0.0000    Z=             -0.0000  Tot=              2.5662
 Quadrupole moment (field-independent basis, Debye-Ang):
   XX=             -8.8987   YY=             -7.4946   ZZ=             -7.4946
   XY=             -0.0000   XZ=             -0.0000   YZ=              0.0000

  Exact polarizability:      44.050      -0.000       2.096      -0.000       0.000       2.096
 Approx polarizability:      54.530       0.000       2.000       0.000      -0.000       2.000

 ******    2 imaginary frequencies (negative Signs) ******

                      1                      2                      3
                      A                      A                      A
 Frequencies --  -1678.2713              -576.3185               695.0709
 Red. masses --      1.0296                 1.0833                 1.0192
 Frc consts  --      1.7087                 0.2120                 0.2901
 IR Inten    --    110.0570                22.3626                24.1842

                      4
                      A
 Frequencies --    695.0709
 Red. masses --      1.0192
 Frc consts  --      0.2901
 IR Inten    --     24.1842

 - Thermochemistry -
 -------------------
 Temperature   298.150 Kelvin.  Pressure   1.00000 Atm.
 Atom     1 has atomic number  1 and mass   1.00783

 Molecular mass:    21.01405 amu.
 Principal axes and moments of inertia in atomic units:
                           1         2         3
     Eigenvalues --     0.00000  61.35171  61.35171
           X            1.00000  -0.00000   0.00000
           Y            0.00000   1.00000   0.00000
           Z            0.00000   0.00000   1.00000
 This molecule is a prolate symmetric top.
 Rotational symmetry number  1.
 Rotational temperature (Kelvin)      1.41176
 Rotational constant (GHZ):          29.416314
    2 imaginary frequencies ignored.
 Zero-point vibrational energy       8314.9 (Joules/Mol)
                                    1.98731 (Kcal/Mol)
 Vibrational temperatures:   1000.05  1000.05
          (Kelvin)

 Zero-point correction=                           0.003167 (Hartree/Particle)
 Thermal correction to Energy=                    0.005757
 Thermal correction to Enthalpy=                  0.006701
 Thermal correction to Gibbs Free Energy=        -0.016910
 Sum of electronic and zero-point Energies=           -100.806841
 Sum of electronic and thermal Energies=              -100.804251
 Sum of electronic and thermal Enthalpies=            -100.803307
 Sum of electronic and thermal Free Energies=         -100.826918

                     E (Thermal)             CV                S
                      KCal/Mol        Cal/Mol-Kelvin    Cal/Mol-Kelvin
 Total                    3.612              6.645             49.694
 Electronic               0.000              0.000              1.377
 Translational            0.889              2.981             35.068
 Rotational               0.592              1.987             12.624
 Vibrational              2.131              1.677              0.624

 Normal termination of Gaussian 16 at Fri Aug 22 16:46:46 2025.
