 Gaussian 16, Revision C.01,
 Gaussian 16:  ES64L-G16RevC.01  3-Jul-2019

 -----------------------------------------
 # sp b3lyp/6-311g** Force nosymm scf=(qc)
 -----------------------------------------

 -------------------
 Title Card Required
 -------------------
 Symbolic Z-matrix:
 Charge =  0 Multiplicity = 2

                          Input orientation:
 ---------------------------------------------------------------------
 Center     Atomic      Atomic             Coordinates (Angstroms)
 Number     Number       Type             X           Y           Z
 ---------------------------------------------------------------------
      1          1           0        0.000000    0.000000    0.000000
      2          1           0       -3.850000    0.000000    0.000000
      3          9           0        1.100000    0.000000    0.000000
 ---------------------------------------------------------------------

 SCF Done:  E(UB3LYP) =  -100.948405089     a.u. after    6 cycles

 Alpha  occ. eigenvalues --  -24.64303  -1.13874  -0.49617  -0.38109  -0.38109
 Alpha  occ. eigenvalues --   -0.33511
 Alpha virt. eigenvalues --   -0.02513   0.22894   0.31163   0.93562   0.93562
 Alpha virt. eigenvalues --    0.99597   1.23941   1.23997   1.23997   1.28367
 Alpha virt. eigenvalues --    1.35205   1.35205   1.79378   2.13726   2.31698

  Beta  occ. eigenvalues --  -24.64302  -1.13870  -0.49614  -0.38108  -0.38108
  Beta virt. eigenvalues --   -0.05670  -0.01993   0.29360   0.39325   0.93562
  Beta virt. eigenvalues --    0.93562   0.99601   1.28353   1.35203   1.35203
  Beta virt. eigenvalues --    1.49806   1.49815   1.49815   1.79402   2.31144

 Mulliken charges and spin densities:
               1          2
     1  H    0.340655   0.000174
     2  H    0.000514   0.999437
     3  F   -0.341169   0.000388
 Sum of Mulliken charges =   0.00000   1.00000

 Dipole moment (field-independent basis, Debye):
    X=             -2.1617    Y=              0.0000    Z=             -0.0000  Tot=              2.1617
 Quadrupole moment (field-independent basis, Debye-Ang):
   XX=             -8.5852   YY=             -7.0486   ZZ=             -7.0486
   XY=              0.0000   XZ=             -0.0000   YZ=              0.0000

  Exact polarizability:       7.695      -0.000       2.362       0.000      -0.000       2.362
 Approx polarizability:      10.215      -0.000       2.325       0.000      -0.000       2.325

 ******    1 imaginary frequencies (negative Signs) ******

                      1                      2                      3
                      A                      A                      A
 Frequencies --    -33.7462              1189.0983              1189.0983
 Red. masses --      1.0532                 1.0370                 1.0370
 Frc consts  --      0.0007                 0.8639                 0.8639
 IR Inten    --      0.0225               159.1186               159.1186

                      4
                      A
 Frequencies --   1941.3048
 Red. masses --      1.0584
 Frc consts  --      2.3500
 IR Inten    --     75.0677

 - Thermochemistry -
 -------------------
 Temperature   298.150 Kelvin.  Pressure   1.00000 Atm.
 Atom     1 has atomic number  1 and mass   1.00783

 Molecular mass:    21.01405 amu.
 Principal axes and moments of inertia in atomic units:
                           1         2         3
     Eigenvalues --     0.00000  86.22166  86.22166
           X            1.00000  -0.00000   0.00000
           Y            0.00000   1.00000   0.00000
           Z            0.00000   0.00000   1.00000
 This molecule is a prolate symmetric top.
 Rotational symmetry number  1.
 Rotational temperature (Kelvin)      1.00455
 Rotational constant (GHZ):          20.931413
    1 imaginary frequencies ignored.
 Zero-point vibrational energy      25836.4 (Joules/Mol)
                                    6.17504 (Kcal/Mol)
 Vibrational temperatures:   1710.85  1710.85  2793.10
          (Kelvin)

 Zero-point correction=                           0.009841 (Hartree/Particle)
 Thermal correction to Energy=                    0.012237
 Thermal correction to Enthalpy=                  0.013181
 Thermal correction to Gibbs Free Energy=        -0.010497
 Sum of electronic and zero-point Energies=           -100.938565
 Sum of electronic and thermal Energies=              -100.936168
 Sum of electronic and thermal Enthalpies=            -100.935224
 Sum of electronic and thermal Free Energies=         -100.958902

                     E (Thermal)             CV                S
                      KCal/Mol        Cal/Mol-Kelvin    Cal/Mol-Kelvin
 Total                    7.679              5.407             49.834
 Electronic               0.000              0.000              1.377
 Translational            0.889              2.981             35.068
 Rotational               0.592              1.987             13.300
 Vibrational              6.197              0.439              0.088

 Normal termination of Gaussian 16 at Fri Aug 22 16:06:32 2025.
