 Gaussian 16, Revision C.01,
 Gaussian 16:  ES64L-G16RevC.01  3-Jul-2019

 -----------------------------------------
 # sp b3lyp/6-311g** Force nosymm scf=(qc)
 -----------------------------------------

 -------------------
 Title Card Required
 -------------------
 Symbolic Z-matrix:
 Charge =  0 Multiplicity = 2

                          Input orientation:
 ---------------------------------------------------------------------
 Center     Atomic      Atomic             Coordinates (Angstroms)
 Number     Number       Type             X           Y           Z
 ---------------------------------------------------------------------
      1          1           0        0.000000    0.000000    0.000000
      2          1           0       -3.150000    0.000000    0.000000
      3          9           0        3.950000    0.000000    0.000000
 ---------------------------------------------------------------------

 SCF Done:  E(UB3LYP) =  -100.759153892     a.u. after   37 cycles

 Alpha  occ. eigenvalues --  -24.75861  -1.21789  -0.54986  -0.46167  -0.46167
 Alpha  occ. eigenvalues --   -0.32312
 Alpha virt. eigenvalues --   -0.07332   0.24822   0.36966   0.86622   0.91182
 Alpha virt. eigenvalues --    0.91182   1.01114   1.25209   1.25209   1.25674
 Alpha virt. eigenvalues --    1.44772   1.44936   1.44936   2.15606   2.40106

  Beta  occ. eigenvalues --  -24.72717  -1.12749  -0.43015  -0.43015  -0.32505
  Beta virt. eigenvalues --   -0.25724  -0.07109   0.24666   0.37260   0.92680
  Beta virt. eigenvalues --    0.92680   0.95989   1.05237   1.25000   1.25000
  Beta virt. eigenvalues --    1.25449   1.45108   1.45268   1.45268   2.15620

 Mulliken charges and spin densities:
               1          2
     1  H    0.002625  -0.991667
     2  H    0.000184   0.994807
     3  F   -0.002809   0.996860
 Sum of Mulliken charges =   0.00000   1.00000

 Dipole moment (field-independent basis, Debye):
    X=             -0.0602    Y=             -0.0000    Z=             -0.0000  Tot=              0.0602
 Quadrupole moment (field-independent basis, Debye-Ang):
   XX=             -6.8889   YY=             -7.6313   ZZ=             -7.6313
   XY=             -0.0000   XZ=             -0.0000   YZ=              0.0000

  Exact polarizability:      13.232      -0.000       2.031      -0.000      -0.000       2.031
 Approx polarizability:       9.910      -0.000       1.935      -0.000      -0.000       1.935

 ******    2 imaginary frequencies (negative Signs) ******

                      1                      2                      3
                      A                      A                      A
 Frequencies --   -280.5910               -75.8245                98.0468
 Red. masses --      1.0085                 1.1077                 1.0154
 Frc consts  --      0.0468                 0.0038                 0.0058
 IR Inten    --      0.8242                 0.6748                 0.0062

                      4
                      A
 Frequencies --     98.0468
 Red. masses --      1.0154
 Frc consts  --      0.0058
 IR Inten    --      0.0062

 - Thermochemistry -
 -------------------
 Temperature   298.150 Kelvin.  Pressure   1.00000 Atm.
 Atom     1 has atomic number  1 and mass   1.00783

 Molecular mass:    21.01405 amu.
 Principal axes and moments of inertia in atomic units:
                           1         2         3
     Eigenvalues --     0.00000 216.50382 216.50382
           X            1.00000  -0.00000   0.00000
           Y            0.00000   1.00000   0.00000
           Z            0.00000   0.00000   1.00000
 This molecule is a prolate symmetric top.
 Rotational symmetry number  1.
 Rotational temperature (Kelvin)      0.40006
 Rotational constant (GHZ):           8.335840
    2 imaginary frequencies ignored.
 Zero-point vibrational energy       1172.9 (Joules/Mol)
                                    0.28033 (Kcal/Mol)
 Warning -- explicit consideration of   2 degrees of freedom as
           vibrations may cause significant error
 Vibrational temperatures:    141.07   141.07
          (Kelvin)

 Zero-point correction=                           0.000447 (Hartree/Particle)
 Thermal correction to Energy=                    0.004284
 Thermal correction to Enthalpy=                  0.005228
 Thermal correction to Gibbs Free Energy=        -0.022596
 Sum of electronic and zero-point Energies=           -100.758707
 Sum of electronic and thermal Energies=              -100.754870
 Sum of electronic and thermal Enthalpies=            -100.753926
 Sum of electronic and thermal Free Energies=         -100.781750

                     E (Thermal)             CV                S
                      KCal/Mol        Cal/Mol-Kelvin    Cal/Mol-Kelvin
 Total                    2.688              8.869             58.561
 Electronic               0.000              0.000              1.377
 Translational            0.889              2.981             35.068
 Rotational               0.592              1.987             15.130
 Vibrational              1.207              3.901              6.986
 Vibration     1          0.603              1.951              3.493
 Vibration     2          0.603              1.951              3.493

 Normal termination of Gaussian 16 at Sat Aug 23 01:41:09 2025.
