 Gaussian 16, Revision C.01,
 Gaussian 16:  ES64L-G16RevC.01  3-Jul-2019

 -----------------------------------------
 # sp b3lyp/6-311g** Force nosymm scf=(qc)
 -----------------------------------------

 -------------------
 Title Card Required
 -------------------
 Symbolic Z-matrix:
 Charge =  0 Multiplicity = 2

                          Input orientation:
 ---------------------------------------------------------------------
 Center     Atomic      Atomic             Coordinates (Angstroms)
 Number     Number       Type             X           Y           Z
 ---------------------------------------------------------------------
      1          1           0        0.000000    0.000000    0.000000
      2          1           0       -2.600000    0.000000    0.000000
      3          9           0        2.300000    0.000000    0.000000
 ---------------------------------------------------------------------

 SCF Done:  E(UB3LYP) =  -100.775578816     a.u. after   14 cycles

 Alpha  occ. eigenvalues --  -24.70447  -1.16721  -0.49521  -0.41619  -0.41619
 Alpha  occ. eigenvalues --   -0.33997
 Alpha virt. eigenvalues --   -0.12489   0.24385   0.32814   0.89281   0.94257
 Alpha virt. eigenvalues --    0.94257   1.06610   1.23621   1.23621   1.26147
 Alpha virt. eigenvalues --    1.37322   1.37322   1.47641   2.14641   2.31877

  Beta  occ. eigenvalues --  -24.67736  -1.09045  -0.38925  -0.38925  -0.36177
  Beta virt. eigenvalues --   -0.22507  -0.09342   0.25388   0.35098   0.94132
  Beta virt. eigenvalues --    0.95479   0.95479   1.08941   1.21828   1.21828
  Beta virt. eigenvalues --    1.37177   1.42182   1.42182   1.43678   2.13545

 Mulliken charges and spin densities:
               1          2
     1  H    0.112066  -0.832445
     2  H    0.010766   0.977558
     3  F   -0.122831   0.854887
 Sum of Mulliken charges =  -0.00000   1.00000

 Dipole moment (field-independent basis, Debye):
    X=             -1.5582    Y=             -0.0000    Z=             -0.0000  Tot=              1.5582
 Quadrupole moment (field-independent basis, Debye-Ang):
   XX=             -9.2108   YY=             -7.5759   ZZ=             -7.5759
   XY=              0.0000   XZ=              0.0000   YZ=             -0.0000

  Exact polarizability:      39.216       0.000       2.026       0.000      -0.000       2.026
 Approx polarizability:      45.547       0.000       1.923       0.000       0.000       1.923

 ******    2 imaginary frequencies (negative Signs) ******

                      1                      2                      3
                      A                      A                      A
 Frequencies --   -875.8744              -339.9613               358.1487
 Red. masses --      1.0346                 1.0778                 1.0195
 Frc consts  --      0.4677                 0.0734                 0.0770
 IR Inten    --     76.9418                15.0611                10.6663

                      4
                      A
 Frequencies --    358.1487
 Red. masses --      1.0195
 Frc consts  --      0.0770
 IR Inten    --     10.6663

 - Thermochemistry -
 -------------------
 Temperature   298.150 Kelvin.  Pressure   1.00000 Atm.
 Atom     1 has atomic number  1 and mass   1.00783

 Molecular mass:    21.01405 amu.
 Principal axes and moments of inertia in atomic units:
                           1         2         3
     Eigenvalues --     0.00000  96.50301  96.50301
           X            1.00000  -0.00000   0.00000
           Y            0.00000   1.00000   0.00000
           Z            0.00000   0.00000   1.00000
 This molecule is a prolate symmetric top.
 Rotational symmetry number  1.
 Rotational temperature (Kelvin)      0.89753
 Rotational constant (GHZ):          18.701398
    2 imaginary frequencies ignored.
 Zero-point vibrational energy       4284.4 (Joules/Mol)
                                    1.02400 (Kcal/Mol)
 Warning -- explicit consideration of   2 degrees of freedom as
           vibrations may cause significant error
 Vibrational temperatures:    515.30   515.30
          (Kelvin)

 Zero-point correction=                           0.001632 (Hartree/Particle)
 Thermal correction to Energy=                    0.004697
 Thermal correction to Enthalpy=                  0.005641
 Thermal correction to Gibbs Free Energy=        -0.019175
 Sum of electronic and zero-point Energies=           -100.773947
 Sum of electronic and thermal Energies=              -100.770882
 Sum of electronic and thermal Enthalpies=            -100.769938
 Sum of electronic and thermal Free Energies=         -100.794754

                     E (Thermal)             CV                S
                      KCal/Mol        Cal/Mol-Kelvin    Cal/Mol-Kelvin
 Total                    2.947              8.085             52.230
 Electronic               0.000              0.000              1.377
 Translational            0.889              2.981             35.068
 Rotational               0.592              1.987             13.524
 Vibrational              1.466              3.117              2.260
 Vibration     1          0.733              1.559              1.130
 Vibration     2          0.733              1.559              1.130

 Normal termination of Gaussian 16 at Fri Aug 22 17:22:28 2025.
