 Gaussian 16, Revision C.01,
 Gaussian 16:  ES64L-G16RevC.01  3-Jul-2019

 -----------------------------------------
 # sp b3lyp/6-311g** Force nosymm scf=(qc)
 -----------------------------------------

 -------------------
 Title Card Required
 -------------------
 Symbolic Z-matrix:
 Charge =  0 Multiplicity = 2

                          Input orientation:
 ---------------------------------------------------------------------
 Center     Atomic      Atomic             Coordinates (Angstroms)
 Number     Number       Type             X           Y           Z
 ---------------------------------------------------------------------
      1          1           0        0.000000    0.000000    0.000000
      2          1           0       -1.950000    0.000000    0.000000
      3          9           0        1.950000    0.000000    0.000000
 ---------------------------------------------------------------------

 SCF Done:  E(UB3LYP) =  -100.805423673     a.u. after   13 cycles

 Alpha  occ. eigenvalues --  -24.67749  -1.14086  -0.46871  -0.39334  -0.39334
 Alpha  occ. eigenvalues --   -0.36753
 Alpha virt. eigenvalues --   -0.13379   0.23705   0.30540   0.88175   0.94988
 Alpha virt. eigenvalues --    0.94988   1.04586   1.21102   1.21102   1.28578
 Alpha virt. eigenvalues --    1.33923   1.33923   1.63111   2.11301   2.31760

  Beta  occ. eigenvalues --  -24.65429  -1.07616  -0.37661  -0.37051  -0.37051
  Beta virt. eigenvalues --   -0.21309  -0.11421   0.25969   0.31380   0.90781
  Beta virt. eigenvalues --    0.95608   0.95608   1.08218   1.23369   1.23369
  Beta virt. eigenvalues --    1.35838   1.35838   1.38447   1.60879   2.12375

 Mulliken charges and spin densities:
               1          2
     1  H    0.151167  -0.600081
     2  H    0.048587   0.871381
     3  F   -0.199754   0.728700
 Sum of Mulliken charges =  -0.00000   1.00000

 Dipole moment (field-independent basis, Debye):
    X=             -2.3827    Y=             -0.0000    Z=             -0.0000  Tot=              2.3827
 Quadrupole moment (field-independent basis, Debye-Ang):
   XX=             -8.6784   YY=             -7.5336   ZZ=             -7.5336
   XY=             -0.0000   XZ=             -0.0000   YZ=              0.0000

  Exact polarizability:      49.061      -0.000       2.075      -0.000       0.000       2.075
 Approx polarizability:      60.494       0.000       1.984       0.000      -0.000       1.984

 ******    2 imaginary frequencies (negative Signs) ******

                      1                      2                      3
                      A                      A                      A
 Frequencies --  -1673.5391              -590.1455               691.7432
 Red. masses --      1.0201                 1.0941                 1.0179
 Frc consts  --      1.6832                 0.2245                 0.2870
 IR Inten    --    140.1277                30.2999                13.8048

                      4
                      A
 Frequencies --    691.7432
 Red. masses --      1.0179
 Frc consts  --      0.2870
 IR Inten    --     13.8048

 - Thermochemistry -
 -------------------
 Temperature   298.150 Kelvin.  Pressure   1.00000 Atm.
 Atom     1 has atomic number  1 and mass   1.00783

 Molecular mass:    21.01405 amu.
 Principal axes and moments of inertia in atomic units:
                           1         2         3
     Eigenvalues --     0.00000  62.51911  62.51911
           X            1.00000  -0.00000   0.00000
           Y            0.00000   1.00000   0.00000
           Z            0.00000   0.00000   1.00000
 This molecule is a prolate symmetric top.
 Rotational symmetry number  1.
 Rotational temperature (Kelvin)      1.38540
 Rotational constant (GHZ):          28.867033
    2 imaginary frequencies ignored.
 Zero-point vibrational energy       8275.1 (Joules/Mol)
                                    1.97779 (Kcal/Mol)
 Vibrational temperatures:    995.26   995.26
          (Kelvin)

 Zero-point correction=                           0.003152 (Hartree/Particle)
 Thermal correction to Energy=                    0.005744
 Thermal correction to Enthalpy=                  0.006688
 Thermal correction to Gibbs Free Energy=        -0.016944
 Sum of electronic and zero-point Energies=           -100.802272
 Sum of electronic and thermal Energies=              -100.799679
 Sum of electronic and thermal Enthalpies=            -100.798735
 Sum of electronic and thermal Free Energies=         -100.822368

                     E (Thermal)             CV                S
                      KCal/Mol        Cal/Mol-Kelvin    Cal/Mol-Kelvin
 Total                    3.605              6.658             49.739
 Electronic               0.000              0.000              1.377
 Translational            0.889              2.981             35.068
 Rotational               0.592              1.987             12.662
 Vibrational              2.123              1.690              0.632

 Normal termination of Gaussian 16 at Fri Aug 22 16:53:16 2025.
