 Gaussian 16, Revision C.01,
 Gaussian 16:  ES64L-G16RevC.01  3-Jul-2019

 -----------------------------------------
 # sp b3lyp/6-311g** Force nosymm scf=(qc)
 -----------------------------------------

 -------------------
 Title Card Required
 -------------------
 Symbolic Z-matrix:
 Charge =  0 Multiplicity = 2

                          Input orientation:
 ---------------------------------------------------------------------
 Center     Atomic      Atomic             Coordinates (Angstroms)
 Number     Number       Type             X           Y           Z
 ---------------------------------------------------------------------
      1          1           0        0.000000    0.000000    0.000000
      2          1           0       -2.300000    0.000000    0.000000
      3          9           0        4.000000    0.000000    0.000000
 ---------------------------------------------------------------------

 SCF Done:  E(UB3LYP) =  -100.765365450     a.u. after  280 cycles

 Alpha  occ. eigenvalues --  -24.75930  -1.21855  -0.55055  -0.46229  -0.46229
 Alpha  occ. eigenvalues --   -0.32642
 Alpha virt. eigenvalues --   -0.09846   0.25974   0.34120   0.86532   0.91131
 Alpha virt. eigenvalues --    0.91132   1.01042   1.25124   1.25124   1.25414
 Alpha virt. eigenvalues --    1.40428   1.40428   1.44292   2.14953   2.35558

  Beta  occ. eigenvalues --  -24.72783  -1.12806  -0.43074  -0.43074  -0.32736
  Beta virt. eigenvalues --   -0.25773  -0.09690   0.25839   0.34333   0.92630
  Beta virt. eigenvalues --    0.92631   0.95925   1.05177   1.25023   1.25023
  Beta virt. eigenvalues --    1.25323   1.40642   1.40642   1.44479   2.15056

 Mulliken charges and spin densities:
               1          2
     1  H    0.000640  -0.942185
     2  H    0.001334   0.944482
     3  F   -0.001974   0.997703
 Sum of Mulliken charges =   0.00000   1.00000

 Dipole moment (field-independent basis, Debye):
    X=             -0.0551    Y=             -0.0001    Z=              0.0000  Tot=              0.0551
 Quadrupole moment (field-independent basis, Debye-Ang):
   XX=             -6.5556   YY=             -7.6835   ZZ=             -7.6880
   XY=             -0.0621   XZ=              0.0023   YZ=             -0.0002

  Exact polarizability:      22.620      -0.013       2.017       0.001      -0.000       2.017
 Approx polarizability:      18.684      -0.040       1.935       0.002      -0.000       1.931

 ******    2 imaginary frequencies (negative Signs) ******

                      1                      2                      3
                      A                      A                      A
 Frequencies --   -880.9819               -72.4929               337.1385
 Red. masses --      1.0078                 1.1085                 1.0126
 Frc consts  --      0.4609                 0.0034                 0.0678
 IR Inten    --      0.4550                 0.5650                 0.0000

                      4
                      A
 Frequencies --    337.1625
 Red. masses --      1.0126
 Frc consts  --      0.0678
 IR Inten    --      0.0000

 - Thermochemistry -
 -------------------
 Temperature   298.150 Kelvin.  Pressure   1.00000 Atm.
 Atom     1 has atomic number  1 and mass   1.00783

 Molecular mass:    21.01405 amu.
 Principal axes and moments of inertia in atomic units:
                           1         2         3
     Eigenvalues --     0.00000 182.11692 182.11692
           X            1.00000  -0.00000   0.00000
           Y            0.00000   1.00000   0.00000
           Z            0.00000   0.00000   1.00000
 This molecule is a prolate symmetric top.
 Rotational symmetry number  1.
 Rotational temperature (Kelvin)      0.47560
 Rotational constant (GHZ):           9.909794
    2 imaginary frequencies ignored.
 Zero-point vibrational energy       4033.2 (Joules/Mol)
                                    0.96396 (Kcal/Mol)
 Warning -- explicit consideration of   2 degrees of freedom as
           vibrations may cause significant error
 Vibrational temperatures:    485.07   485.10
          (Kelvin)

 Zero-point correction=                           0.001536 (Hartree/Particle)
 Thermal correction to Energy=                    0.004648
 Thermal correction to Enthalpy=                  0.005592
 Thermal correction to Gibbs Free Energy=        -0.019914
 Sum of electronic and zero-point Energies=           -100.763829
 Sum of electronic and thermal Energies=              -100.760717
 Sum of electronic and thermal Enthalpies=            -100.759773
 Sum of electronic and thermal Free Energies=         -100.785280

                     E (Thermal)             CV                S
                      KCal/Mol        Cal/Mol-Kelvin    Cal/Mol-Kelvin
 Total                    2.917              8.171             53.683
 Electronic               0.000              0.000              1.377
 Translational            0.889              2.981             35.068
 Rotational               0.592              1.987             14.786
 Vibrational              1.436              3.203              2.451
 Vibration     1          0.718              1.601              1.226
 Vibration     2          0.718              1.601              1.226

 Normal termination of Gaussian 16 at Sat Aug 23 01:54:40 2025.
