 Gaussian 16, Revision C.01,
 Gaussian 16:  ES64L-G16RevC.01  3-Jul-2019

 -----------------------------------------
 # sp b3lyp/6-311g** Force nosymm scf=(qc)
 -----------------------------------------

 -------------------
 Title Card Required
 -------------------
 Symbolic Z-matrix:
 Charge =  0 Multiplicity = 2

                          Input orientation:
 ---------------------------------------------------------------------
 Center     Atomic      Atomic             Coordinates (Angstroms)
 Number     Number       Type             X           Y           Z
 ---------------------------------------------------------------------
      1          1           0        0.000000    0.000000    0.000000
      2          1           0       -3.500000    0.000000    0.000000
      3          9           0        3.400000    0.000000    0.000000
 ---------------------------------------------------------------------

 SCF Done:  E(UB3LYP) =  -100.759352848     a.u. after   25 cycles

 Alpha  occ. eigenvalues --  -24.75199  -1.21176  -0.54321  -0.45609  -0.45609
 Alpha  occ. eigenvalues --   -0.32370
 Alpha virt. eigenvalues --   -0.07159   0.24252   0.36809   0.87928   0.91597
 Alpha virt. eigenvalues --    0.91597   1.02104   1.25135   1.25135   1.25287
 Alpha virt. eigenvalues --    1.45067   1.45067   1.45130   2.14989   2.41168

  Beta  occ. eigenvalues --  -24.72097  -1.12266  -0.42501  -0.42501  -0.32960
  Beta virt. eigenvalues --   -0.25386  -0.06490   0.24019   0.37913   0.93082
  Beta virt. eigenvalues --    0.93082   0.96995   1.06071   1.24455   1.24455
  Beta virt. eigenvalues --    1.24593   1.45877   1.46116   1.46116   2.15248

 Mulliken charges and spin densities:
               1          2
     1  H    0.014838  -0.981363
     2  H    0.000221   0.997897
     3  F   -0.015059   0.983466
 Sum of Mulliken charges =  -0.00000   1.00000

 Dipole moment (field-independent basis, Debye):
    X=             -0.2670    Y=             -0.0000    Z=             -0.0000  Tot=              0.2670
 Quadrupole moment (field-independent basis, Debye-Ang):
   XX=             -7.5525   YY=             -7.6205   ZZ=             -7.6205
   XY=             -0.0000   XZ=              0.0000   YZ=              0.0000

  Exact polarizability:      26.114      -0.000       2.032       0.000       0.000       2.032
 Approx polarizability:      21.582      -0.000       1.932       0.000      -0.000       1.932

 ******    2 imaginary frequencies (negative Signs) ******

                      1                      2                      3
                      A                      A                      A
 Frequencies --   -263.9727              -107.4791                84.5137
 Red. masses --      1.0319                 1.0807                 1.0183
 Frc consts  --      0.0424                 0.0074                 0.0043
 IR Inten    --     14.6806                 1.2294                 0.1983

                      4
                      A
 Frequencies --     84.5138
 Red. masses --      1.0183
 Frc consts  --      0.0043
 IR Inten    --      0.1983

 - Thermochemistry -
 -------------------
 Temperature   298.150 Kelvin.  Pressure   1.00000 Atm.
 Atom     1 has atomic number  1 and mass   1.00783

 Molecular mass:    21.01405 amu.
 Principal axes and moments of inertia in atomic units:
                           1         2         3
     Eigenvalues --     0.00000 194.64147 194.64147
           X            1.00000  -0.00000   0.00000
           Y            0.00000   1.00000   0.00000
           Z            0.00000   0.00000   1.00000
 This molecule is a prolate symmetric top.
 Rotational symmetry number  1.
 Rotational temperature (Kelvin)      0.44499
 Rotational constant (GHZ):           9.272131
    2 imaginary frequencies ignored.
 Zero-point vibrational energy       1011.0 (Joules/Mol)
                                    0.24164 (Kcal/Mol)
 Warning -- explicit consideration of   2 degrees of freedom as
           vibrations may cause significant error
 Vibrational temperatures:    121.60   121.60
          (Kelvin)

 Zero-point correction=                           0.000385 (Hartree/Particle)
 Thermal correction to Energy=                    0.004275
 Thermal correction to Enthalpy=                  0.005219
 Thermal correction to Gibbs Free Energy=        -0.022781
 Sum of electronic and zero-point Energies=           -100.758968
 Sum of electronic and thermal Energies=              -100.755078
 Sum of electronic and thermal Enthalpies=            -100.754134
 Sum of electronic and thermal Free Energies=         -100.782133

                     E (Thermal)             CV                S
                      KCal/Mol        Cal/Mol-Kelvin    Cal/Mol-Kelvin
 Total                    2.683              8.888             58.930
 Electronic               0.000              0.000              1.377
 Translational            0.889              2.981             35.068
 Rotational               0.592              1.987             14.919
 Vibrational              1.201              3.920              7.566
 Vibration     1          0.601              1.960              3.783
 Vibration     2          0.601              1.960              3.783

 Normal termination of Gaussian 16 at Fri Aug 22 21:18:40 2025.
