 Gaussian 16, Revision C.01,
 Gaussian 16:  ES64L-G16RevC.01  3-Jul-2019

 -----------------------------------------
 # sp b3lyp/6-311g** Force nosymm scf=(qc)
 -----------------------------------------

 -------------------
 Title Card Required
 -------------------
 Symbolic Z-matrix:
 Charge =  0 Multiplicity = 2

                          Input orientation:
 ---------------------------------------------------------------------
 Center     Atomic      Atomic             Coordinates (Angstroms)
 Number     Number       Type             X           Y           Z
 ---------------------------------------------------------------------
      1          1           0        0.000000    0.000000    0.000000
      2          1           0       -3.600000    0.000000    0.000000
      3          9           0        2.700000    0.000000    0.000000
 ---------------------------------------------------------------------

 SCF Done:  E(UB3LYP) =  -100.763963017     a.u. after   22 cycles

 Alpha  occ. eigenvalues --  -24.72809  -1.18959  -0.51923  -0.43607  -0.43607
 Alpha  occ. eigenvalues --   -0.32705
 Alpha virt. eigenvalues --   -0.09213   0.23689   0.35768   0.89946   0.93024
 Alpha virt. eigenvalues --    0.93024   1.05580   1.24800   1.24800   1.24913
 Alpha virt. eigenvalues --    1.42284   1.42284   1.43869   2.14509   2.38531

  Beta  occ. eigenvalues --  -24.69877  -1.10583  -0.40677  -0.40677  -0.34608
  Beta virt. eigenvalues --   -0.24018  -0.06503   0.23916   0.37977   0.94448
  Beta virt. eigenvalues --    0.94448   0.97749   1.08650   1.22720   1.22720
  Beta virt. eigenvalues --    1.25568   1.45952   1.46208   1.46208   2.13737

 Mulliken charges and spin densities:
               1          2
     1  H    0.064299  -0.926512
     2  H    0.000534   0.998396
     3  F   -0.064833   0.928116
 Sum of Mulliken charges =  -0.00000   1.00000

 Dipole moment (field-independent basis, Debye):
    X=             -0.9048    Y=              0.0000    Z=              0.0000  Tot=              0.9048
 Quadrupole moment (field-independent basis, Debye-Ang):
   XX=             -8.9306   YY=             -7.5895   ZZ=             -7.5895
   XY=              0.0000   XZ=             -0.0000   YZ=              0.0000

  Exact polarizability:      31.741       0.000       2.024      -0.000       0.000       2.024
 Approx polarizability:      37.286       0.000       1.922      -0.000      -0.000       1.922

 ******    2 imaginary frequencies (negative Signs) ******

                      1                      2                      3
                      A                      A                      A
 Frequencies --   -503.2360              -107.7891               187.3422
 Red. masses --      1.0532                 1.0583                 1.0218
 Frc consts  --      0.1572                 0.0072                 0.0211
 IR Inten    --     63.0162                 0.2470                 3.9572

                      4
                      A
 Frequencies --    187.3422
 Red. masses --      1.0218
 Frc consts  --      0.0211
 IR Inten    --      3.9572

 - Thermochemistry -
 -------------------
 Temperature   298.150 Kelvin.  Pressure   1.00000 Atm.
 Atom     1 has atomic number  1 and mass   1.00783

 Molecular mass:    21.01405 amu.
 Principal axes and moments of inertia in atomic units:
                           1         2         3
     Eigenvalues --     0.00000 155.10026 155.10026
           X            1.00000  -0.00000   0.00000
           Y            0.00000   1.00000   0.00000
           Z            0.00000   0.00000   1.00000
 This molecule is a prolate symmetric top.
 Rotational symmetry number  1.
 Rotational temperature (Kelvin)      0.55844
 Rotational constant (GHZ):          11.635965
    2 imaginary frequencies ignored.
 Zero-point vibrational energy       2241.1 (Joules/Mol)
                                    0.53564 (Kcal/Mol)
 Warning -- explicit consideration of   2 degrees of freedom as
           vibrations may cause significant error
 Vibrational temperatures:    269.54   269.54
          (Kelvin)

 Zero-point correction=                           0.000854 (Hartree/Particle)
 Thermal correction to Energy=                    0.004376
 Thermal correction to Enthalpy=                  0.005320
 Thermal correction to Gibbs Free Energy=        -0.021012
 Sum of electronic and zero-point Energies=           -100.763109
 Sum of electronic and thermal Energies=              -100.759587
 Sum of electronic and thermal Enthalpies=            -100.758643
 Sum of electronic and thermal Free Energies=         -100.784975

                     E (Thermal)             CV                S
                      KCal/Mol        Cal/Mol-Kelvin    Cal/Mol-Kelvin
 Total                    2.746              8.682             55.421
 Electronic               0.000              0.000              1.377
 Translational            0.889              2.981             35.068
 Rotational               0.592              1.987             14.467
 Vibrational              1.265              3.714              4.508
 Vibration     1          0.632              1.857              2.254
 Vibration     2          0.632              1.857              2.254

 Normal termination of Gaussian 16 at Fri Aug 22 18:27:00 2025.
