 Gaussian 16, Revision C.01,
 Gaussian 16:  ES64L-G16RevC.01  3-Jul-2019

 -----------------------------------------
 # sp b3lyp/6-311g** Force nosymm scf=(qc)
 -----------------------------------------

 -------------------
 Title Card Required
 -------------------
 Symbolic Z-matrix:
 Charge =  0 Multiplicity = 2

                          Input orientation:
 ---------------------------------------------------------------------
 Center     Atomic      Atomic             Coordinates (Angstroms)
 Number     Number       Type             X           Y           Z
 ---------------------------------------------------------------------
      1          1           0        0.000000    0.000000    0.000000
      2          1           0       -2.850000    0.000000    0.000000
      3          9           0        3.300000    0.000000    0.000000
 ---------------------------------------------------------------------

 SCF Done:  E(UB3LYP) =  -100.761021027     a.u. after   26 cycles

 Alpha  occ. eigenvalues --  -24.75011  -1.21001  -0.54132  -0.45451  -0.45451
 Alpha  occ. eigenvalues --   -0.32592
 Alpha virt. eigenvalues --   -0.08760   0.25107   0.35086   0.88321   0.91712
 Alpha virt. eigenvalues --    0.91712   1.02452   1.24965   1.24965   1.26032
 Alpha virt. eigenvalues --    1.42772   1.42772   1.43058   2.15803   2.38852

  Beta  occ. eigenvalues --  -24.71922  -1.12132  -0.42356  -0.42356  -0.33174
  Beta virt. eigenvalues --   -0.25292  -0.07962   0.24927   0.36223   0.93193
  Beta virt. eigenvalues --    0.93193   0.97339   1.06407   1.24279   1.24279
  Beta virt. eigenvalues --    1.25268   1.44052   1.44052   1.44269   2.16357

 Mulliken charges and spin densities:
               1          2
     1  H    0.017334  -0.968115
     2  H    0.001423   0.988855
     3  F   -0.018756   0.979260
 Sum of Mulliken charges =  -0.00000   1.00000

 Dipole moment (field-independent basis, Debye):
    X=             -0.3374    Y=             -0.0000    Z=             -0.0000  Tot=              0.3374
 Quadrupole moment (field-independent basis, Debye-Ang):
   XX=             -7.5823   YY=             -7.6380   ZZ=             -7.6380
   XY=             -0.0000   XZ=             -0.0000   YZ=             -0.0000

  Exact polarizability:      32.710      -0.000       2.025      -0.000      -0.000       2.025
 Approx polarizability:      27.136      -0.000       1.928      -0.000      -0.000       1.928

 ******    2 imaginary frequencies (negative Signs) ******

                      1                      2                      3
                      A                      A                      A
 Frequencies --   -444.7254              -165.4671               158.9070
 Red. masses --      1.0116                 1.1040                 1.0163
 Frc consts  --      0.1179                 0.0178                 0.0151
 IR Inten    --     14.0135                 7.5307                 0.2509

                      4
                      A
 Frequencies --    158.9070
 Red. masses --      1.0163
 Frc consts  --      0.0151
 IR Inten    --      0.2509

 - Thermochemistry -
 -------------------
 Temperature   298.150 Kelvin.  Pressure   1.00000 Atm.
 Atom     1 has atomic number  1 and mass   1.00783

 Molecular mass:    21.01405 amu.
 Principal axes and moments of inertia in atomic units:
                           1         2         3
     Eigenvalues --     0.00000 159.90247 159.90247
           X            1.00000  -0.00000   0.00000
           Y            0.00000   1.00000   0.00000
           Z            0.00000   0.00000   1.00000
 This molecule is a prolate symmetric top.
 Rotational symmetry number  1.
 Rotational temperature (Kelvin)      0.54167
 Rotational constant (GHZ):          11.286512
    2 imaginary frequencies ignored.
 Zero-point vibrational energy       1901.0 (Joules/Mol)
                                    0.45434 (Kcal/Mol)
 Warning -- explicit consideration of   2 degrees of freedom as
           vibrations may cause significant error
 Vibrational temperatures:    228.63   228.63
          (Kelvin)

 Zero-point correction=                           0.000724 (Hartree/Particle)
 Thermal correction to Energy=                    0.004340
 Thermal correction to Enthalpy=                  0.005285
 Thermal correction to Gibbs Free Energy=        -0.021370
 Sum of electronic and zero-point Energies=           -100.760297
 Sum of electronic and thermal Energies=              -100.756681
 Sum of electronic and thermal Enthalpies=            -100.755736
 Sum of electronic and thermal Free Energies=         -100.782391

                     E (Thermal)             CV                S
                      KCal/Mol        Cal/Mol-Kelvin    Cal/Mol-Kelvin
 Total                    2.724              8.753             56.099
 Electronic               0.000              0.000              1.377
 Translational            0.889              2.981             35.068
 Rotational               0.592              1.987             14.528
 Vibrational              1.242              3.785              5.126
 Vibration     1          0.621              1.893              2.563
 Vibration     2          0.621              1.893              2.563

 Normal termination of Gaussian 16 at Fri Aug 22 20:49:16 2025.
