 Gaussian 16, Revision C.01,
 Gaussian 16:  ES64L-G16RevC.01  3-Jul-2019

 -----------------------------------------
 # sp b3lyp/6-311g** Force nosymm scf=(qc)
 -----------------------------------------

 -------------------
 Title Card Required
 -------------------
 Symbolic Z-matrix:
 Charge =  0 Multiplicity = 2

                          Input orientation:
 ---------------------------------------------------------------------
 Center     Atomic      Atomic             Coordinates (Angstroms)
 Number     Number       Type             X           Y           Z
 ---------------------------------------------------------------------
      1          1           0        0.000000    0.000000    0.000000
      2          1           0       -3.900000    0.000000    0.000000
      3          9           0        3.750000    0.000000    0.000000
 ---------------------------------------------------------------------

 SCF Done:  E(UB3LYP) =  -100.758562245     a.u. after   27 cycles

 Alpha  occ. eigenvalues --  -24.75704  -1.21644  -0.54828  -0.46034  -0.46034
 Alpha  occ. eigenvalues --   -0.32253
 Alpha virt. eigenvalues --   -0.06088   0.24176   0.37659   0.86949   0.91283
 Alpha virt. eigenvalues --    0.91283   1.01330   1.25242   1.25242   1.25274
 Alpha virt. eigenvalues --    1.46376   1.46376   1.46881   2.14635   2.42402

  Beta  occ. eigenvalues --  -24.72569  -1.12633  -0.42892  -0.42892  -0.32568
  Beta virt. eigenvalues --   -0.25644  -0.05901   0.23954   0.38205   0.92778
  Beta virt. eigenvalues --    0.92778   0.96227   1.05413   1.24892   1.24892
  Beta virt. eigenvalues --    1.24907   1.46601   1.46718   1.46718   2.14674

 Mulliken charges and spin densities:
               1          2
     1  H    0.005562  -0.993023
     2  H    0.000037   0.999200
     3  F   -0.005598   0.993823
 Sum of Mulliken charges =  -0.00000   1.00000

 Dipole moment (field-independent basis, Debye):
    X=             -0.1090    Y=              0.0000    Z=              0.0000  Tot=              0.1090
 Quadrupole moment (field-independent basis, Debye-Ang):
   XX=             -7.1165   YY=             -7.6191   ZZ=             -7.6191
   XY=             -0.0000   XZ=             -0.0000   YZ=              0.0000

  Exact polarizability:      16.071      -0.000       2.032      -0.000      -0.000       2.032
 Approx polarizability:      11.904      -0.000       1.936      -0.000      -0.000       1.936

 ******    2 imaginary frequencies (negative Signs) ******

                      1                      2                      3
                      A                      A                      A
 Frequencies --   -169.4339               -68.4532                52.3128
 Red. masses --      1.0331                 1.0794                 1.0184
 Frc consts  --      0.0175                 0.0030                 0.0016
 IR Inten    --      3.9577                 0.2915                 0.0308

                      4
                      A
 Frequencies --     52.3129
 Red. masses --      1.0184
 Frc consts  --      0.0016
 IR Inten    --      0.0308

 - Thermochemistry -
 -------------------
 Temperature   298.150 Kelvin.  Pressure   1.00000 Atm.
 Atom     1 has atomic number  1 and mass   1.00783

 Molecular mass:    21.01405 amu.
 Principal axes and moments of inertia in atomic units:
                           1         2         3
     Eigenvalues --     0.00000 238.80204 238.80204
           X            1.00000  -0.00000   0.00000
           Y            0.00000   1.00000   0.00000
           Z            0.00000   0.00000   1.00000
 This molecule is a prolate symmetric top.
 Rotational symmetry number  1.
 Rotational temperature (Kelvin)      0.36270
 Rotational constant (GHZ):           7.557478
    2 imaginary frequencies ignored.
 Zero-point vibrational energy        625.8 (Joules/Mol)
                                    0.14957 (Kcal/Mol)
 Warning -- explicit consideration of   2 degrees of freedom as
           vibrations may cause significant error
 Vibrational temperatures:     75.27    75.27
          (Kelvin)

 Zero-point correction=                           0.000238 (Hartree/Particle)
 Thermal correction to Energy=                    0.004259
 Thermal correction to Enthalpy=                  0.005203
 Thermal correction to Gibbs Free Energy=        -0.023888
 Sum of electronic and zero-point Energies=           -100.758324
 Sum of electronic and thermal Energies=              -100.754303
 Sum of electronic and thermal Enthalpies=            -100.753359
 Sum of electronic and thermal Free Energies=         -100.782450

                     E (Thermal)             CV                S
                      KCal/Mol        Cal/Mol-Kelvin    Cal/Mol-Kelvin
 Total                    2.672              8.921             61.226
 Electronic               0.000              0.000              1.377
 Translational            0.889              2.981             35.068
 Rotational               0.592              1.987             15.325
 Vibrational              1.191              3.953              9.456
 Vibration     1          0.596              1.977              4.728
 Vibration     2          0.596              1.977              4.728

 Normal termination of Gaussian 16 at Sat Aug 23 00:28:35 2025.
