 Gaussian 16, Revision C.01,
 Gaussian 16:  ES64L-G16RevC.01  3-Jul-2019

 -----------------------------------------
 # sp b3lyp/6-311g** Force nosymm scf=(qc)
 -----------------------------------------

 -------------------
 Title Card Required
 -------------------
 Symbolic Z-matrix:
 Charge =  0 Multiplicity = 2

                          Input orientation:
 ---------------------------------------------------------------------
 Center     Atomic      Atomic             Coordinates (Angstroms)
 Number     Number       Type             X           Y           Z
 ---------------------------------------------------------------------
      1          1           0        0.000000    0.000000    0.000000
      2          1           0       -1.550000    0.000000    0.000000
      3          9           0        2.350000    0.000000    0.000000
 ---------------------------------------------------------------------

 SCF Done:  E(UB3LYP) =  -100.819448499     a.u. after   19 cycles

 Alpha  occ. eigenvalues --  -24.72198  -1.18394  -0.51405  -0.43110  -0.43110
 Alpha  occ. eigenvalues --   -0.36328
 Alpha virt. eigenvalues --   -0.11250   0.23508   0.31243   0.87582   0.93211
 Alpha virt. eigenvalues --    0.93211   1.02962   1.17699   1.18582   1.18582
 Alpha virt. eigenvalues --    1.38125   1.38125   1.75985   2.18220   2.44270

  Beta  occ. eigenvalues --  -24.69349  -1.10286  -0.40270  -0.40270  -0.35814
  Beta virt. eigenvalues --   -0.24315  -0.10338   0.25084   0.31049   0.93149
  Beta virt. eigenvalues --    0.94552   0.94552   1.06284   1.19472   1.19472
  Beta virt. eigenvalues --    1.21544   1.38759   1.38759   1.76812   2.19280

 Mulliken charges and spin densities:
               1          2
     1  H    0.037251  -0.397733
     2  H    0.046088   0.498431
     3  F   -0.083339   0.899303
 Sum of Mulliken charges =   0.00000   1.00000

 Dipole moment (field-independent basis, Debye):
    X=             -1.3298    Y=             -0.0000    Z=              0.0000  Tot=              1.3298
 Quadrupole moment (field-independent basis, Debye-Ang):
   XX=             -7.2963   YY=             -7.6444   ZZ=             -7.6444
   XY=             -0.0000   XZ=              0.0000   YZ=              0.0000

  Exact polarizability:      58.963      -0.000       2.054       0.000       0.000       2.054
 Approx polarizability:      83.391       0.000       2.019      -0.000      -0.000       2.019

 ******    2 imaginary frequencies (negative Signs) ******

                      1                      2                      3
                      A                      A                      A
 Frequencies --  -2076.9287              -373.6132              1060.1465
 Red. masses --      1.0089                 1.1072                 1.0137
 Frc consts  --      2.5641                 0.0911                 0.6713
 IR Inten    --    577.9146                36.8157                 0.1838

                      4
                      A
 Frequencies --   1060.1465
 Red. masses --      1.0137
 Frc consts  --      0.6713
 IR Inten    --      0.1838

 - Thermochemistry -
 -------------------
 Temperature   298.150 Kelvin.  Pressure   1.00000 Atm.
 Atom     1 has atomic number  1 and mass   1.00783

 Molecular mass:    21.01405 amu.
 Principal axes and moments of inertia in atomic units:
                           1         2         3
     Eigenvalues --     0.00000  67.87399  67.87399
           X            1.00000  -0.00000   0.00000
           Y            0.00000   1.00000   0.00000
           Z            0.00000   0.00000   1.00000
 This molecule is a prolate symmetric top.
 Rotational symmetry number  1.
 Rotational temperature (Kelvin)      1.27610
 Rotational constant (GHZ):          26.589586
    2 imaginary frequencies ignored.
 Zero-point vibrational energy      12682.2 (Joules/Mol)
                                    3.03111 (Kcal/Mol)
 Vibrational temperatures:   1525.31  1525.31
          (Kelvin)

 Zero-point correction=                           0.004830 (Hartree/Particle)
 Thermal correction to Energy=                    0.007249
 Thermal correction to Enthalpy=                  0.008193
 Thermal correction to Gibbs Free Energy=        -0.015286
 Sum of electronic and zero-point Energies=           -100.814618
 Sum of electronic and thermal Energies=              -100.812199
 Sum of electronic and thermal Enthalpies=            -100.811255
 Sum of electronic and thermal Free Energies=         -100.834735

                     E (Thermal)             CV                S
                      KCal/Mol        Cal/Mol-Kelvin    Cal/Mol-Kelvin
 Total                    4.549              5.600             49.417
 Electronic               0.000              0.000              1.377
 Translational            0.889              2.981             35.068
 Rotational               0.592              1.987             12.825
 Vibrational              3.068              0.632              0.147

 Normal termination of Gaussian 16 at Fri Aug 22 17:25:52 2025.
