 Gaussian 16, Revision C.01,
 Gaussian 16:  ES64L-G16RevC.01  3-Jul-2019

 -----------------------------------------
 # sp b3lyp/6-311g** Force nosymm scf=(qc)
 -----------------------------------------

 -------------------
 Title Card Required
 -------------------
 Symbolic Z-matrix:
 Charge =  0 Multiplicity = 2

                          Input orientation:
 ---------------------------------------------------------------------
 Center     Atomic      Atomic             Coordinates (Angstroms)
 Number     Number       Type             X           Y           Z
 ---------------------------------------------------------------------
      1          1           0        0.000000    0.000000    0.000000
      2          1           0       -1.650000    0.000000    0.000000
      3          9           0        1.150000    0.000000    0.000000
 ---------------------------------------------------------------------

 SCF Done:  E(UB3LYP) =  -100.941228618     a.u. after    6 cycles

 Alpha  occ. eigenvalues --  -24.63460  -1.12544  -0.49525  -0.37335  -0.37139
 Alpha  occ. eigenvalues --   -0.37139
 Alpha virt. eigenvalues --    0.01262   0.21772   0.29897   0.93877   0.93877
 Alpha virt. eigenvalues --    1.00600   1.08894   1.17689   1.17689   1.38224
 Alpha virt. eigenvalues --    1.38224   1.52407   1.83019   2.23864   2.35923

  Beta  occ. eigenvalues --  -24.63141  -1.11743  -0.47600  -0.36851  -0.36851
  Beta virt. eigenvalues --   -0.16715   0.04464   0.26973   0.33121   0.93949
  Beta virt. eigenvalues --    0.93949   1.01389   1.17377   1.29379   1.29379
  Beta virt. eigenvalues --    1.42573   1.42573   1.55751   1.90560   2.31649

 Mulliken charges and spin densities:
               1          2
     1  H    0.314278  -0.017411
     2  H    0.041265   0.925347
     3  F   -0.355543   0.092064
 Sum of Mulliken charges =   0.00000   1.00000

 Dipole moment (field-independent basis, Debye):
    X=             -2.6018    Y=             -0.0000    Z=              0.0000  Tot=              2.6018
 Quadrupole moment (field-independent basis, Debye-Ang):
   XX=             -7.9499   YY=             -6.9881   ZZ=             -6.9881
   XY=             -0.0000   XZ=              0.0000   YZ=             -0.0000

  Exact polarizability:      16.582       0.000       2.441      -0.000       0.000       2.441
 Approx polarizability:      19.738       0.000       2.416      -0.000       0.000       2.416

 ******    1 imaginary frequencies (negative Signs) ******

                      1                      2                      3
                      A                      A                      A
 Frequencies --   -683.1416              1056.5529              1129.3178
 Red. masses --      1.0155                 1.0994                 1.0229
 Frc consts  --      0.2792                 0.7231                 0.7686
 IR Inten    --     57.1107               151.2212                90.0450

                      4
                      A
 Frequencies --   1129.3178
 Red. masses --      1.0229
 Frc consts  --      0.7686
 IR Inten    --     90.0450

 - Thermochemistry -
 -------------------
 Temperature   298.150 Kelvin.  Pressure   1.00000 Atm.
 Atom     1 has atomic number  1 and mass   1.00783

 Molecular mass:    21.01405 amu.
 Principal axes and moments of inertia in atomic units:
                           1         2         3
     Eigenvalues --     0.00000  30.28282  30.28282
           X            1.00000  -0.00000   0.00000
           Y            0.00000   1.00000   0.00000
           Z            0.00000   0.00000   1.00000
 This molecule is a prolate symmetric top.
 Rotational symmetry number  1.
 Rotational temperature (Kelvin)      2.86017
 Rotational constant (GHZ):          59.596214
    1 imaginary frequencies ignored.
 Zero-point vibrational energy      19829.2 (Joules/Mol)
                                    4.73930 (Kcal/Mol)
 Vibrational temperatures:   1520.14  1624.84  1624.84
          (Kelvin)

 Zero-point correction=                           0.007553 (Hartree/Particle)
 Thermal correction to Energy=                    0.009987
 Thermal correction to Enthalpy=                  0.010931
 Thermal correction to Gibbs Free Energy=        -0.011805
 Sum of electronic and zero-point Energies=           -100.933676
 Sum of electronic and thermal Energies=              -100.931242
 Sum of electronic and thermal Enthalpies=            -100.930297
 Sum of electronic and thermal Free Energies=         -100.953033

                     E (Thermal)             CV                S
                      KCal/Mol        Cal/Mol-Kelvin    Cal/Mol-Kelvin
 Total                    6.267              5.799             47.852
 Electronic               0.000              0.000              1.377
 Translational            0.889              2.981             35.068
 Rotational               0.592              1.987             11.221
 Vibrational              4.786              0.831              0.185

 Normal termination of Gaussian 16 at Fri Aug 22 16:07:29 2025.
