 Gaussian 16, Revision C.01,
 Gaussian 16:  ES64L-G16RevC.01  3-Jul-2019

 -----------------------------------------
 # sp b3lyp/6-311g** Force nosymm scf=(qc)
 -----------------------------------------

 -------------------
 Title Card Required
 -------------------
 Symbolic Z-matrix:
 Charge =  0 Multiplicity = 2

                          Input orientation:
 ---------------------------------------------------------------------
 Center     Atomic      Atomic             Coordinates (Angstroms)
 Number     Number       Type             X           Y           Z
 ---------------------------------------------------------------------
      1          1           0        0.000000    0.000000    0.000000
      2          1           0       -2.200000    0.000000    0.000000
      3          9           0        2.450000    0.000000    0.000000
 ---------------------------------------------------------------------

 SCF Done:  E(UB3LYP) =  -100.776940065     a.u. after   18 cycles

 Alpha  occ. eigenvalues --  -24.71462  -1.17682  -0.50558  -0.42462  -0.42462
 Alpha  occ. eigenvalues --   -0.34498
 Alpha virt. eigenvalues --   -0.12690   0.24867   0.32473   0.89948   0.93787
 Alpha virt. eigenvalues --    0.93787   1.06446   1.23330   1.23330   1.25890
 Alpha virt. eigenvalues --    1.35961   1.35961   1.44594   2.12387   2.32790

  Beta  occ. eigenvalues --  -24.68646  -1.09673  -0.39656  -0.39656  -0.35408
  Beta virt. eigenvalues --   -0.23261  -0.10923   0.26374   0.33186   0.95130
  Beta virt. eigenvalues --    0.95130   0.96558   1.09324   1.22526   1.22526
  Beta virt. eigenvalues --    1.29929   1.38846   1.38846   1.44556   2.12676

 Mulliken charges and spin densities:
               1          2
     1  H    0.073056  -0.818920
     2  H    0.022030   0.929332
     3  F   -0.095086   0.889588
 Sum of Mulliken charges =  -0.00000   1.00000

 Dipole moment (field-independent basis, Debye):
    X=             -1.4156    Y=             -0.0000    Z=             -0.0000  Tot=              1.4156
 Quadrupole moment (field-independent basis, Debye-Ang):
   XX=             -8.5468   YY=             -7.6317   ZZ=             -7.6317
   XY=             -0.0000   XZ=             -0.0000   YZ=             -0.0000

  Exact polarizability:      52.504      -0.000       2.012      -0.000      -0.000       2.012
 Approx polarizability:      55.152       0.000       1.922       0.000       0.000       1.922

 ******    2 imaginary frequencies (negative Signs) ******

                      1                      2                      3
                      A                      A                      A
 Frequencies --  -1109.0016              -399.5265               441.6840
 Red. masses --      1.0121                 1.1034                 1.0167
 Frc consts  --      0.7334                 0.1038                 0.1169
 IR Inten    --     51.3350                44.3036                 3.6686

                      4
                      A
 Frequencies --    441.6840
 Red. masses --      1.0167
 Frc consts  --      0.1169
 IR Inten    --      3.6686

 - Thermochemistry -
 -------------------
 Temperature   298.150 Kelvin.  Pressure   1.00000 Atm.
 Atom     1 has atomic number  1 and mass   1.00783

 Molecular mass:    21.01405 amu.
 Principal axes and moments of inertia in atomic units:
                           1         2         3
     Eigenvalues --     0.00000  90.72150  90.72150
           X            1.00000  -0.00000   0.00000
           Y            0.00000   1.00000   0.00000
           Z            0.00000   0.00000   1.00000
 This molecule is a prolate symmetric top.
 Rotational symmetry number  1.
 Rotational temperature (Kelvin)      0.95472
 Rotational constant (GHZ):          19.893204
    2 imaginary frequencies ignored.
 Zero-point vibrational energy       5283.7 (Joules/Mol)
                                    1.26284 (Kcal/Mol)
 Warning -- explicit consideration of   2 degrees of freedom as
           vibrations may cause significant error
 Vibrational temperatures:    635.48   635.48
          (Kelvin)

 Zero-point correction=                           0.002012 (Hartree/Particle)
 Thermal correction to Energy=                    0.004915
 Thermal correction to Enthalpy=                  0.005859
 Thermal correction to Gibbs Free Energy=        -0.018605
 Sum of electronic and zero-point Energies=           -100.774928
 Sum of electronic and thermal Energies=              -100.772025
 Sum of electronic and thermal Enthalpies=            -100.771081
 Sum of electronic and thermal Free Energies=         -100.795545

                     E (Thermal)             CV                S
                      KCal/Mol        Cal/Mol-Kelvin    Cal/Mol-Kelvin
 Total                    3.084              7.726             51.490
 Electronic               0.000              0.000              1.377
 Translational            0.889              2.981             35.068
 Rotational               0.592              1.987             13.402
 Vibrational              1.603              2.758              1.643
 Vibration     1          0.801              1.379              0.821
 Vibration     2          0.801              1.379              0.821

 Normal termination of Gaussian 16 at Fri Aug 22 17:38:31 2025.
