 Gaussian 16, Revision C.01,
 Gaussian 16:  ES64L-G16RevC.01  3-Jul-2019

 -----------------------------------------
 # sp b3lyp/6-311g** Force nosymm scf=(qc)
 -----------------------------------------

 -------------------
 Title Card Required
 -------------------
 Symbolic Z-matrix:
 Charge =  0 Multiplicity = 2

                          Input orientation:
 ---------------------------------------------------------------------
 Center     Atomic      Atomic             Coordinates (Angstroms)
 Number     Number       Type             X           Y           Z
 ---------------------------------------------------------------------
      1          1           0        0.000000    0.000000    0.000000
      2          1           0       -1.150000    0.000000    0.000000
      3          9           0        3.050000    0.000000    0.000000
 ---------------------------------------------------------------------

 SCF Done:  E(UB3LYP) =  -100.881251061     a.u. after  133 cycles

 Alpha  occ. eigenvalues --  -24.76645  -1.22470  -0.55661  -0.46904  -0.46811
 Alpha  occ. eigenvalues --   -0.36765
 Alpha virt. eigenvalues --   -0.02780   0.22631   0.35470   0.85791   0.90665
 Alpha virt. eigenvalues --    0.93361   1.03690   1.11908   1.11914   1.25983
 Alpha virt. eigenvalues --    1.57209   1.57216   2.13125   2.33636   2.55686

  Beta  occ. eigenvalues --  -24.73485  -1.13385  -0.43745  -0.43642  -0.36752
  Beta virt. eigenvalues --   -0.26287  -0.02763   0.22652   0.35545   0.92163
  Beta virt. eigenvalues --    0.95035   0.95250   1.07566   1.11908   1.11913
  Beta virt. eigenvalues --    1.25991   1.57208   1.57215   2.13136   2.33640

 Mulliken charges and spin densities:
               1          2
     1  H   -0.001627  -0.000402
     2  H   -0.005809  -0.000567
     3  F    0.007436   1.000968
 Sum of Mulliken charges =  -0.00000   1.00000

 Dipole moment (field-independent basis, Debye):
    X=              0.0970    Y=              0.0000    Z=              0.0000  Tot=              0.0970
 Quadrupole moment (field-independent basis, Debye-Ang):
   XX=             -6.1557   YY=             -7.0177   ZZ=             -7.0171
   XY=              0.0000   XZ=              0.0000   YZ=              0.4318

  Exact polarizability:      15.438       0.000       2.311       0.000       0.230       2.311
 Approx polarizability:      22.140       0.000       2.404       0.000       0.290       2.405

                      1                      2                      3
                      A                      A                      A
 Frequencies --     39.0254               584.5449              1502.3033
 Red. masses --      1.1085                 1.0078                 1.0103
 Frc consts  --      0.0010                 0.2029                 1.3434
 IR Inten    --      0.4491                 0.7878                 0.0010

                      4
                      A
 Frequencies --   1502.4997
 Red. masses --      1.0103
 Frc consts  --      1.3438
 IR Inten    --      0.0011

 - Thermochemistry -
 -------------------
 Temperature   298.150 Kelvin.  Pressure   1.00000 Atm.
 Atom     1 has atomic number  1 and mass   1.00783

 Molecular mass:    21.01405 amu.
 Principal axes and moments of inertia in atomic units:
                           1         2         3
     Eigenvalues --     0.00000  87.89364  87.89364
           X            1.00000  -0.00000   0.00000
           Y            0.00000   1.00000   0.00000
           Z            0.00000   0.00000   1.00000
 This molecule is a prolate symmetric top.
 Rotational symmetry number  1.
 Rotational temperature (Kelvin)      0.98544
 Rotational constant (GHZ):          20.533241
 Zero-point vibrational energy      21702.5 (Joules/Mol)
                                    5.18702 (Kcal/Mol)
 Warning -- explicit consideration of   2 degrees of freedom as
           vibrations may cause significant error
 Vibrational temperatures:     56.15   841.03  2161.48  2161.76
          (Kelvin)

 Zero-point correction=                           0.008266 (Hartree/Particle)
 Thermal correction to Energy=                    0.011663
 Thermal correction to Enthalpy=                  0.012607
 Thermal correction to Gibbs Free Energy=        -0.013807
 Sum of electronic and zero-point Energies=           -100.872985
 Sum of electronic and thermal Energies=              -100.869588
 Sum of electronic and thermal Enthalpies=            -100.868644
 Sum of electronic and thermal Free Energies=         -100.895058

                     E (Thermal)             CV                S
                      KCal/Mol        Cal/Mol-Kelvin    Cal/Mol-Kelvin
 Total                    7.319              8.163             55.592
 Electronic               0.000              0.000              1.377
 Translational            0.889              2.981             35.068
 Rotational               0.592              1.987             13.339
 Vibrational              5.837              3.195              5.808
 Vibration     1          0.594              1.981              5.308
 Vibration     2          0.941              1.065              0.477

 Normal termination of Gaussian 16 at Fri Aug 22 19:40:24 2025.
