 Gaussian 16, Revision C.01,
 Gaussian 16:  ES64L-G16RevC.01  3-Jul-2019

 -----------------------------------------
 # sp b3lyp/6-311g** Force nosymm scf=(qc)
 -----------------------------------------

 -------------------
 Title Card Required
 -------------------
 Symbolic Z-matrix:
 Charge =  0 Multiplicity = 2

                          Input orientation:
 ---------------------------------------------------------------------
 Center     Atomic      Atomic             Coordinates (Angstroms)
 Number     Number       Type             X           Y           Z
 ---------------------------------------------------------------------
      1          1           0        0.000000    0.000000    0.000000
      2          1           0       -1.750000    0.000000    0.000000
      3          9           0        0.850000    0.000000    0.000000
 ---------------------------------------------------------------------

 SCF Done:  E(UB3LYP) =  -100.964987105     a.u. after    6 cycles

 Alpha  occ. eigenvalues --  -24.63522  -1.20701  -0.55298  -0.39872  -0.39872
 Alpha  occ. eigenvalues --   -0.36241
 Alpha virt. eigenvalues --    0.09491   0.22908   0.40818   0.94514   0.94514
 Alpha virt. eigenvalues --    0.97785   1.17670   1.20041   1.20041   1.39769
 Alpha virt. eigenvalues --    1.39769   1.53766   2.00445   2.21832   2.51624

  Beta  occ. eigenvalues --  -24.63425  -1.20448  -0.54712  -0.39791  -0.39791
  Beta virt. eigenvalues --   -0.12690   0.11356   0.31630   0.42830   0.94553
  Beta virt. eigenvalues --    0.94553   0.98056   1.26870   1.34402   1.34402
  Beta virt. eigenvalues --    1.44078   1.44078   1.59906   2.09468   2.31247

 Mulliken charges and spin densities:
               1          2
     1  H    0.266046   0.009807
     2  H    0.017945   0.967741
     3  F   -0.283991   0.022452
 Sum of Mulliken charges =   0.00000   1.00000

 Dipole moment (field-independent basis, Debye):
    X=             -1.9710    Y=             -0.0000    Z=             -0.0000  Tot=              1.9710
 Quadrupole moment (field-independent basis, Debye-Ang):
   XX=             -7.3645   YY=             -6.7516   ZZ=             -6.7516
   XY=             -0.0000   XZ=             -0.0000   YZ=             -0.0000

  Exact polarizability:       8.905      -0.000       2.515       0.000      -0.000       2.515
 Approx polarizability:       9.097       0.000       2.511      -0.000      -0.000       2.511

 ******    2 imaginary frequencies (negative Signs) ******

                      1                      2                      3
                      A                      A                      A
 Frequencies --  -1319.7593             -1319.7593               416.1292
 Red. masses --      1.0285                 1.0285                 1.0530
 Frc consts  --      1.0555                 1.0555                 0.1074
 IR Inten    --    140.7725               140.7725                 0.2579

                      4
                      A
 Frequencies --   5271.9024
 Red. masses --      1.0586
 Frc consts  --     17.3343
 IR Inten    --    189.0310

 - Thermochemistry -
 -------------------
 Temperature   298.150 Kelvin.  Pressure   1.00000 Atm.
 Atom     1 has atomic number  1 and mass   1.00783

 Molecular mass:    21.01405 amu.
 Principal axes and moments of inertia in atomic units:
                           1         2         3
     Eigenvalues --     0.00000  24.87513  24.87513
           X            1.00000  -0.00000   0.00000
           Y            0.00000   1.00000   0.00000
           Z            0.00000   0.00000   1.00000
 This molecule is a prolate symmetric top.
 Rotational symmetry number  1.
 Rotational temperature (Kelvin)      3.48195
 Rotational constant (GHZ):          72.552038
    2 imaginary frequencies ignored.
 Zero-point vibrational energy      34022.0 (Joules/Mol)
                                    8.13145 (Kcal/Mol)
 Warning -- explicit consideration of   1 degrees of freedom as
           vibrations may cause significant error
 Vibrational temperatures:    598.72  7585.09
          (Kelvin)

 Zero-point correction=                           0.012958 (Hartree/Particle)
 Thermal correction to Energy=                    0.015613
 Thermal correction to Enthalpy=                  0.016557
 Thermal correction to Gibbs Free Energy=        -0.006335
 Sum of electronic and zero-point Energies=           -100.952029
 Sum of electronic and thermal Energies=              -100.949374
 Sum of electronic and thermal Enthalpies=            -100.948430
 Sum of electronic and thermal Free Energies=         -100.971322

                     E (Thermal)             CV                S
                      KCal/Mol        Cal/Mol-Kelvin    Cal/Mol-Kelvin
 Total                    9.797              6.403             48.181
 Electronic               0.000              0.000              1.377
 Translational            0.889              2.981             35.068
 Rotational               0.592              1.987             10.830
 Vibrational              8.316              1.435              0.905
 Vibration     1          0.779              1.435              0.905

 Normal termination of Gaussian 16 at Fri Aug 22 15:53:17 2025.
