 Gaussian 16, Revision C.01,
 Gaussian 16:  ES64L-G16RevC.01  3-Jul-2019

 -----------------------------------------
 # sp b3lyp/6-311g** Force nosymm scf=(qc)
 -----------------------------------------

 -------------------
 Title Card Required
 -------------------
 Symbolic Z-matrix:
 Charge =  0 Multiplicity = 2

                          Input orientation:
 ---------------------------------------------------------------------
 Center     Atomic      Atomic             Coordinates (Angstroms)
 Number     Number       Type             X           Y           Z
 ---------------------------------------------------------------------
      1          1           0        0.000000    0.000000    0.000000
      2          1           0       -3.700000    0.000000    0.000000
      3          9           0        3.800000    0.000000    0.000000
 ---------------------------------------------------------------------

 SCF Done:  E(UB3LYP) =  -100.758611731     a.u. after   34 cycles

 Alpha  occ. eigenvalues --  -24.75750  -1.21687  -0.54875  -0.46074  -0.46074
 Alpha  occ. eigenvalues --   -0.32261
 Alpha virt. eigenvalues --   -0.06423   0.24230   0.37641   0.86855   0.91253
 Alpha virt. eigenvalues --    0.91253   1.01265   1.25237   1.25237   1.25309
 Alpha virt. eigenvalues --    1.45865   1.46021   1.46021   2.14829   2.41757

  Beta  occ. eigenvalues --  -24.72613  -1.12667  -0.42928  -0.42928  -0.32541
  Beta virt. eigenvalues --   -0.25667  -0.06150   0.24036   0.38138   0.92749
  Beta virt. eigenvalues --    0.92749   0.96157   1.05360   1.24928   1.24928
  Beta virt. eigenvalues --    1.24983   1.46284   1.46467   1.46467   2.14860

 Mulliken charges and spin densities:
               1          2
     1  H    0.004698  -0.993434
     2  H    0.000057   0.998692
     3  F   -0.004755   0.994742
 Sum of Mulliken charges =  -0.00000   1.00000

 Dipole moment (field-independent basis, Debye):
    X=             -0.0943    Y=              0.0000    Z=             -0.0000  Tot=              0.0943
 Quadrupole moment (field-independent basis, Debye-Ang):
   XX=             -7.0583   YY=             -7.6210   ZZ=             -7.6210
   XY=              0.0000   XZ=             -0.0000   YZ=             -0.0000

  Exact polarizability:      15.024      -0.000       2.031       0.000       0.000       2.031
 Approx polarizability:      11.095       0.000       1.936      -0.000       0.000       1.936

 ******    2 imaginary frequencies (negative Signs) ******

                      1                      2                      3
                      A                      A                      A
 Frequencies --   -179.3827               -76.6375                57.3626
 Red. masses --      1.0215                 1.0924                 1.0176
 Frc consts  --      0.0194                 0.0038                 0.0020
 IR Inten    --      2.8287                 0.5547                 0.0217

                      4
                      A
 Frequencies --     57.3627
 Red. masses --      1.0176
 Frc consts  --      0.0020
 IR Inten    --      0.0217

 - Thermochemistry -
 -------------------
 Temperature   298.150 Kelvin.  Pressure   1.00000 Atm.
 Atom     1 has atomic number  1 and mass   1.00783

 Molecular mass:    21.01405 amu.
 Principal axes and moments of inertia in atomic units:
                           1         2         3
     Eigenvalues --     0.00000 232.37374 232.37374
           X            1.00000  -0.00000   0.00000
           Y            0.00000   1.00000   0.00000
           Z            0.00000   0.00000   1.00000
 This molecule is a prolate symmetric top.
 Rotational symmetry number  1.
 Rotational temperature (Kelvin)      0.37274
 Rotational constant (GHZ):           7.766546
    2 imaginary frequencies ignored.
 Zero-point vibrational energy        686.2 (Joules/Mol)
                                    0.16401 (Kcal/Mol)
 Warning -- explicit consideration of   2 degrees of freedom as
           vibrations may cause significant error
 Vibrational temperatures:     82.53    82.53
          (Kelvin)

 Zero-point correction=                           0.000261 (Hartree/Particle)
 Thermal correction to Energy=                    0.004261
 Thermal correction to Enthalpy=                  0.005205
 Thermal correction to Gibbs Free Energy=        -0.023687
 Sum of electronic and zero-point Energies=           -100.758350
 Sum of electronic and thermal Energies=              -100.754351
 Sum of electronic and thermal Enthalpies=            -100.753407
 Sum of electronic and thermal Free Energies=         -100.782298

                     E (Thermal)             CV                S
                      KCal/Mol        Cal/Mol-Kelvin    Cal/Mol-Kelvin
 Total                    2.674              8.917             60.808
 Electronic               0.000              0.000              1.377
 Translational            0.889              2.981             35.068
 Rotational               0.592              1.987             15.271
 Vibrational              1.193              3.949              9.092
 Vibration     1          0.596              1.975              4.546
 Vibration     2          0.596              1.975              4.546

 Normal termination of Gaussian 16 at Sat Aug 23 00:52:36 2025.
