 Gaussian 16, Revision C.01,
 Gaussian 16:  ES64L-G16RevC.01  3-Jul-2019

 -----------------------------------------
 # sp b3lyp/6-311g** Force nosymm scf=(qc)
 -----------------------------------------

 -------------------
 Title Card Required
 -------------------
 Symbolic Z-matrix:
 Charge =  0 Multiplicity = 2

                          Input orientation:
 ---------------------------------------------------------------------
 Center     Atomic      Atomic             Coordinates (Angstroms)
 Number     Number       Type             X           Y           Z
 ---------------------------------------------------------------------
      1          1           0        0.000000    0.000000    0.000000
      2          1           0       -0.800000    0.000000    0.000000
      3          9           0        1.200000    0.000000    0.000000
 ---------------------------------------------------------------------

 SCF Done:  E(UB3LYP) =  -100.944729816     a.u. after    6 cycles

 Alpha  occ. eigenvalues --  -24.67584  -1.16891  -0.58768  -0.40668  -0.40668
 Alpha  occ. eigenvalues --   -0.38527
 Alpha virt. eigenvalues --    0.10877   0.19009   0.45346   0.88080   0.88080
 Alpha virt. eigenvalues --    0.96854   1.08785   1.08785   1.43067   1.64765
 Alpha virt. eigenvalues --    1.74985   1.74985   2.08595   2.34439   3.04556

  Beta  occ. eigenvalues --  -24.65644  -1.11855  -0.50611  -0.38857  -0.38857
  Beta virt. eigenvalues --   -0.20872   0.12766   0.20305   0.49695   0.89557
  Beta virt. eigenvalues --    0.89557   1.01032   1.12617   1.12617   1.46328
  Beta virt. eigenvalues --    1.70245   1.77933   1.77933   2.09100   2.41317

 Mulliken charges and spin densities:
               1          2
     1  H    0.245266  -0.039736
     2  H    0.003790   0.491422
     3  F   -0.249056   0.548314
 Sum of Mulliken charges =   0.00000   1.00000

 Dipole moment (field-independent basis, Debye):
    X=             -1.6755    Y=              0.0000    Z=             -0.0000  Tot=              1.6755
 Quadrupole moment (field-independent basis, Debye-Ang):
   XX=             -7.3913   YY=             -6.6864   ZZ=             -6.6864
   XY=              0.0000   XZ=             -0.0000   YZ=              0.0000

  Exact polarizability:      18.049       0.000       2.482      -0.000      -0.000       2.482
 Approx polarizability:      23.644       0.000       2.512      -0.000      -0.000       2.512

 ******    3 imaginary frequencies (negative Signs) ******

                      1                      2                      3
                      A                      A                      A
 Frequencies --   -888.5213              -888.5213              -468.7717
 Red. masses --      1.0138                 1.0138                 1.0986
 Frc consts  --      0.4716                 0.4716                 0.1422
 IR Inten    --     13.2240                13.2240                94.9264

                      4
                      A
 Frequencies --   2873.2194
 Red. masses --      1.0161
 Frc consts  --      4.9425
 IR Inten    --    419.1788

 - Thermochemistry -
 -------------------
 Temperature   298.150 Kelvin.  Pressure   1.00000 Atm.
 Atom     1 has atomic number  1 and mass   1.00783

 Molecular mass:    21.01405 amu.
 Principal axes and moments of inertia in atomic units:
                           1         2         3
     Eigenvalues --     0.00000  17.81111  17.81111
           X            1.00000  -0.00000   0.00000
           Y            0.00000   1.00000   0.00000
           Z            0.00000   0.00000   1.00000
 This molecule is a prolate symmetric top.
 Rotational symmetry number  1.
 Rotational temperature (Kelvin)      4.86292
 Rotational constant (GHZ):         101.326702
    3 imaginary frequencies ignored.
 Zero-point vibrational energy      17185.7 (Joules/Mol)
                                    4.10747 (Kcal/Mol)
 Vibrational temperatures:   4133.92
          (Kelvin)

 Zero-point correction=                           0.006546 (Hartree/Particle)
 Thermal correction to Energy=                    0.008906
 Thermal correction to Enthalpy=                  0.009850
 Thermal correction to Gibbs Free Energy=        -0.012296
 Sum of electronic and zero-point Energies=           -100.938184
 Sum of electronic and thermal Energies=              -100.935824
 Sum of electronic and thermal Enthalpies=            -100.934879
 Sum of electronic and thermal Free Energies=         -100.957026

                     E (Thermal)             CV                S
                      KCal/Mol        Cal/Mol-Kelvin    Cal/Mol-Kelvin
 Total                    5.589              4.968             46.612
 Electronic               0.000              0.000              1.377
 Translational            0.889              2.981             35.068
 Rotational               0.592              1.987             10.166
 Vibrational              4.107              0.000              0.000

 Normal termination of Gaussian 16 at Fri Aug 22 16:09:17 2025.
