 Gaussian 16, Revision C.01,
 Gaussian 16:  ES64L-G16RevC.01  3-Jul-2019

 -----------------------------------------
 # sp b3lyp/6-311g** Force nosymm scf=(qc)
 -----------------------------------------

 -------------------
 Title Card Required
 -------------------
 Symbolic Z-matrix:
 Charge =  0 Multiplicity = 2

                          Input orientation:
 ---------------------------------------------------------------------
 Center     Atomic      Atomic             Coordinates (Angstroms)
 Number     Number       Type             X           Y           Z
 ---------------------------------------------------------------------
      1          1           0        0.000000    0.000000    0.000000
      2          1           0       -1.300000    0.000000    0.000000
      3          9           0        1.950000    0.000000    0.000000
 ---------------------------------------------------------------------

 SCF Done:  E(UB3LYP) =  -100.864088515     a.u. after   13 cycles

 Alpha  occ. eigenvalues --  -24.70923  -1.17278  -0.50714  -0.42118  -0.42118
 Alpha  occ. eigenvalues --   -0.38873
 Alpha virt. eigenvalues --   -0.06805   0.21825   0.32353   0.88083   0.92779
 Alpha virt. eigenvalues --    0.92779   1.04536   1.12163   1.12163   1.36278
 Alpha virt. eigenvalues --    1.46587   1.46587   1.99070   2.25381   2.51066

  Beta  occ. eigenvalues --  -24.68254  -1.09759  -0.39475  -0.39475  -0.38532
  Beta virt. eigenvalues --   -0.24291  -0.04928   0.23230   0.32724   0.93575
  Beta virt. eigenvalues --    0.93880   0.93880   1.08000   1.13912   1.13912
  Beta virt. eigenvalues --    1.40054   1.47619   1.47619   2.01020   2.26697

 Mulliken charges and spin densities:
               1          2
     1  H    0.067403  -0.190548
     2  H    0.059133   0.354238
     3  F   -0.126536   0.836310
 Sum of Mulliken charges =  -0.00000   1.00000

 Dipole moment (field-independent basis, Debye):
    X=             -1.5766    Y=             -0.0000    Z=             -0.0000  Tot=              1.5766
 Quadrupole moment (field-independent basis, Debye-Ang):
   XX=             -7.2460   YY=             -7.4253   ZZ=             -7.4253
   XY=             -0.0000   XZ=             -0.0000   YZ=             -0.0000

  Exact polarizability:      45.457      -0.000       2.172      -0.000       0.000       2.172
 Approx polarizability:      69.456       0.000       2.148       0.000       0.000       2.148

 ******    2 imaginary frequencies (negative Signs) ******

                      1                      2                      3
                      A                      A                      A
 Frequencies --  -1911.4375              -328.1666              1282.0712
 Red. masses --      1.0145                 1.1006                 1.0138
 Frc consts  --      2.1838                 0.0698                 0.9818
 IR Inten    --   1150.5119                 1.4720                 0.6291

                      4
                      A
 Frequencies --   1282.0712
 Red. masses --      1.0138
 Frc consts  --      0.9818
 IR Inten    --      0.6291

 - Thermochemistry -
 -------------------
 Temperature   298.150 Kelvin.  Pressure   1.00000 Atm.
 Atom     1 has atomic number  1 and mass   1.00783

 Molecular mass:    21.01405 amu.
 Principal axes and moments of inertia in atomic units:
                           1         2         3
     Eigenvalues --     0.00000  47.03247  47.03247
           X            1.00000  -0.00000   0.00000
           Y            0.00000   1.00000   0.00000
           Z            0.00000   0.00000   1.00000
 This molecule is a prolate symmetric top.
 Rotational symmetry number  1.
 Rotational temperature (Kelvin)      1.84158
 Rotational constant (GHZ):          38.372242
    2 imaginary frequencies ignored.
 Zero-point vibrational energy      15337.0 (Joules/Mol)
                                    3.66563 (Kcal/Mol)
 Vibrational temperatures:   1844.61  1844.61
          (Kelvin)

 Zero-point correction=                           0.005842 (Hartree/Particle)
 Thermal correction to Energy=                    0.008226
 Thermal correction to Enthalpy=                  0.009170
 Thermal correction to Gibbs Free Energy=        -0.013921
 Sum of electronic and zero-point Energies=           -100.858247
 Sum of electronic and thermal Energies=              -100.855862
 Sum of electronic and thermal Enthalpies=            -100.854918
 Sum of electronic and thermal Free Energies=         -100.878010

                     E (Thermal)             CV                S
                      KCal/Mol        Cal/Mol-Kelvin    Cal/Mol-Kelvin
 Total                    5.162              5.282             48.600
 Electronic               0.000              0.000              1.377
 Translational            0.889              2.981             35.068
 Rotational               0.592              1.987             12.096
 Vibrational              3.681              0.314              0.059

 Normal termination of Gaussian 16 at Fri Aug 22 16:52:39 2025.
