 Gaussian 16, Revision C.01,
 Gaussian 16:  ES64L-G16RevC.01  3-Jul-2019

 -----------------------------------------
 # sp b3lyp/6-311g** Force nosymm scf=(qc)
 -----------------------------------------

 -------------------
 Title Card Required
 -------------------
 Symbolic Z-matrix:
 Charge =  0 Multiplicity = 2

                          Input orientation:
 ---------------------------------------------------------------------
 Center     Atomic      Atomic             Coordinates (Angstroms)
 Number     Number       Type             X           Y           Z
 ---------------------------------------------------------------------
      1          1           0        0.000000    0.000000    0.000000
      2          1           0       -1.550000    0.000000    0.000000
      3          9           0        0.900000    0.000000    0.000000
 ---------------------------------------------------------------------

 SCF Done:  E(UB3LYP) =  -100.970321776     a.u. after    6 cycles

 Alpha  occ. eigenvalues --  -24.63540  -1.18845  -0.54681  -0.39323  -0.39323
 Alpha  occ. eigenvalues --   -0.36725
 Alpha virt. eigenvalues --    0.10042   0.21544   0.38852   0.94401   0.94401
 Alpha virt. eigenvalues --    0.98074   1.17014   1.17014   1.20873   1.41514
 Alpha virt. eigenvalues --    1.41514   1.53264   2.03759   2.24799   2.56270

  Beta  occ. eigenvalues --  -24.63351  -1.18364  -0.53445  -0.39161  -0.39161
  Beta virt. eigenvalues --   -0.14366   0.12000   0.28386   0.42288   0.94537
  Beta virt. eigenvalues --    0.94537   0.98479   1.28781   1.28781   1.29506
  Beta virt. eigenvalues --    1.46811   1.46811   1.57484   2.15901   2.29462

 Mulliken charges and spin densities:
               1          2
     1  H    0.273895   0.007282
     2  H    0.024723   0.947348
     3  F   -0.298618   0.045370
 Sum of Mulliken charges =   0.00000   1.00000

 Dipole moment (field-independent basis, Debye):
    X=             -2.0804    Y=             -0.0000    Z=             -0.0000  Tot=              2.0804
 Quadrupole moment (field-independent basis, Debye-Ang):
   XX=             -7.4656   YY=             -6.7624   ZZ=             -6.7624
   XY=              0.0000   XZ=             -0.0000   YZ=             -0.0000

  Exact polarizability:      10.422      -0.000       2.531      -0.000       0.000       2.531
 Approx polarizability:      10.837      -0.000       2.531       0.000       0.000       2.531

 ******    2 imaginary frequencies (negative Signs) ******

                      1                      2                      3
                      A                      A                      A
 Frequencies --   -726.0162              -726.0162               527.1906
 Red. masses --      1.0257                 1.0257                 1.0520
 Frc consts  --      0.3185                 0.3185                 0.1723
 IR Inten    --    119.7509               119.7509                 0.0223

                      4
                      A
 Frequencies --   4327.9608
 Red. masses --      1.0595
 Frc consts  --     11.6933
 IR Inten    --    202.5696

 - Thermochemistry -
 -------------------
 Temperature   298.150 Kelvin.  Pressure   1.00000 Atm.
 Atom     1 has atomic number  1 and mass   1.00783

 Molecular mass:    21.01405 amu.
 Principal axes and moments of inertia in atomic units:
                           1         2         3
     Eigenvalues --     0.00000  22.58116  22.58116
           X            1.00000  -0.00000   0.00000
           Y            0.00000   1.00000   0.00000
           Z            0.00000   0.00000   1.00000
 This molecule is a prolate symmetric top.
 Rotational symmetry number  1.
 Rotational temperature (Kelvin)      3.83567
 Rotational constant (GHZ):          79.922415
    2 imaginary frequencies ignored.
 Zero-point vibrational energy      29040.3 (Joules/Mol)
                                    6.94079 (Kcal/Mol)
 Warning -- explicit consideration of   1 degrees of freedom as
           vibrations may cause significant error
 Vibrational temperatures:    758.51  6226.97
          (Kelvin)

 Zero-point correction=                           0.011061 (Hartree/Particle)
 Thermal correction to Energy=                    0.013626
 Thermal correction to Enthalpy=                  0.014570
 Thermal correction to Gibbs Free Energy=        -0.008083
 Sum of electronic and zero-point Energies=           -100.959261
 Sum of electronic and thermal Energies=              -100.956696
 Sum of electronic and thermal Enthalpies=            -100.955752
 Sum of electronic and thermal Free Energies=         -100.978404

                     E (Thermal)             CV                S
                      KCal/Mol        Cal/Mol-Kelvin    Cal/Mol-Kelvin
 Total                    8.550              6.158             47.677
 Electronic               0.000              0.000              1.377
 Translational            0.889              2.981             35.068
 Rotational               0.592              1.987             10.638
 Vibrational              7.069              1.190              0.594
 Vibration     1          0.882              1.190              0.594

 Normal termination of Gaussian 16 at Fri Aug 22 15:55:31 2025.
