 Gaussian 16, Revision C.01,
 Gaussian 16:  ES64L-G16RevC.01  3-Jul-2019

 -----------------------------------------
 # sp b3lyp/6-311g** Force nosymm scf=(qc)
 -----------------------------------------

 -------------------
 Title Card Required
 -------------------
 Symbolic Z-matrix:
 Charge =  0 Multiplicity = 2

                          Input orientation:
 ---------------------------------------------------------------------
 Center     Atomic      Atomic             Coordinates (Angstroms)
 Number     Number       Type             X           Y           Z
 ---------------------------------------------------------------------
      1          1           0        0.000000    0.000000    0.000000
      2          1           0       -1.500000    0.000000    0.000000
      3          9           0        2.700000    0.000000    0.000000
 ---------------------------------------------------------------------

 SCF Done:  E(UB3LYP) =  -100.821997484     a.u. after   22 cycles

 Alpha  occ. eigenvalues --  -24.74392  -1.20436  -0.53550  -0.44950  -0.44950
 Alpha  occ. eigenvalues --   -0.35230
 Alpha virt. eigenvalues --   -0.10503   0.24063   0.30683   0.89859   0.92018
 Alpha virt. eigenvalues --    0.92018   1.04618   1.09287   1.18778   1.18778
 Alpha virt. eigenvalues --    1.40305   1.40305   1.80741   2.20850   2.46818

  Beta  occ. eigenvalues --  -24.71370  -1.11777  -0.41927  -0.41927  -0.34883
  Beta virt. eigenvalues --   -0.25329  -0.09999   0.24765   0.30930   0.93465
  Beta virt. eigenvalues --    0.93465   0.97744   1.06441   1.12555   1.19183
  Beta virt. eigenvalues --    1.19183   1.40647   1.40647   1.81261   2.21656

 Mulliken charges and spin densities:
               1          2
     1  H    0.006837  -0.280014
     2  H    0.028700   0.323312
     3  F   -0.035536   0.956701
 Sum of Mulliken charges =   0.00000   1.00000

 Dipole moment (field-independent basis, Debye):
    X=             -0.6920    Y=              0.0000    Z=             -0.0000  Tot=              0.6920
 Quadrupole moment (field-independent basis, Debye-Ang):
   XX=             -6.5180   YY=             -7.6991   ZZ=             -7.6991
   XY=             -0.0000   XZ=              0.0000   YZ=              0.0000

  Exact polarizability:      56.357       0.000       2.051       0.000      -0.000       2.051
 Approx polarizability:      75.266      -0.000       2.030       0.000      -0.000       2.030

 ******    2 imaginary frequencies (negative Signs) ******

                      1                      2                      3
                      A                      A                      A
 Frequencies --  -2030.7445              -245.5921              1163.2296
 Red. masses --      1.0082                 1.1081                 1.0124
 Frc consts  --      2.4496                 0.0394                 0.8071
 IR Inten    --    519.0583                24.8725                 0.0143

                      4
                      A
 Frequencies --   1163.2296
 Red. masses --      1.0124
 Frc consts  --      0.8071
 IR Inten    --      0.0143

 - Thermochemistry -
 -------------------
 Temperature   298.150 Kelvin.  Pressure   1.00000 Atm.
 Atom     1 has atomic number  1 and mass   1.00783

 Molecular mass:    21.01405 amu.
 Principal axes and moments of inertia in atomic units:
                           1         2         3
     Eigenvalues --     0.00000  81.50547  81.50547
           X            1.00000  -0.00000   0.00000
           Y            0.00000   1.00000   0.00000
           Z            0.00000   0.00000   1.00000
 This molecule is a prolate symmetric top.
 Rotational symmetry number  1.
 Rotational temperature (Kelvin)      1.06268
 Rotational constant (GHZ):          22.142578
    2 imaginary frequencies ignored.
 Zero-point vibrational energy      13915.3 (Joules/Mol)
                                    3.32584 (Kcal/Mol)
 Vibrational temperatures:   1673.63  1673.63
          (Kelvin)

 Zero-point correction=                           0.005300 (Hartree/Particle)
 Thermal correction to Energy=                    0.007699
 Thermal correction to Enthalpy=                  0.008644
 Thermal correction to Gibbs Free Energy=        -0.014985
 Sum of electronic and zero-point Energies=           -100.816697
 Sum of electronic and thermal Energies=              -100.814298
 Sum of electronic and thermal Enthalpies=            -100.813354
 Sum of electronic and thermal Free Energies=         -100.836982

                     E (Thermal)             CV                S
                      KCal/Mol        Cal/Mol-Kelvin    Cal/Mol-Kelvin
 Total                    4.831              5.428             49.730
 Electronic               0.000              0.000              1.377
 Translational            0.889              2.981             35.068
 Rotational               0.592              1.987             13.189
 Vibrational              3.350              0.460              0.096

 Normal termination of Gaussian 16 at Fri Aug 22 18:24:47 2025.
