 Gaussian 16, Revision C.01,
 Gaussian 16:  ES64L-G16RevC.01  3-Jul-2019

 -----------------------------------------
 # sp b3lyp/6-311g** Force nosymm scf=(qc)
 -----------------------------------------

 -------------------
 Title Card Required
 -------------------
 Symbolic Z-matrix:
 Charge =  0 Multiplicity = 2

                          Input orientation:
 ---------------------------------------------------------------------
 Center     Atomic      Atomic             Coordinates (Angstroms)
 Number     Number       Type             X           Y           Z
 ---------------------------------------------------------------------
      1          1           0        0.000000    0.000000    0.000000
      2          1           0       -3.550000    0.000000    0.000000
      3          9           0        1.800000    0.000000    0.000000
 ---------------------------------------------------------------------

 SCF Done:  E(UB3LYP) =  -100.804321242     a.u. after   17 cycles

 Alpha  occ. eigenvalues --  -24.64651  -1.07511  -0.39365  -0.36451  -0.36451
 Alpha  occ. eigenvalues --   -0.33613
 Alpha virt. eigenvalues --   -0.19220   0.19554   0.27223   0.93370   0.94800
 Alpha virt. eigenvalues --    0.94800   1.07908   1.23734   1.23734   1.23870
 Alpha virt. eigenvalues --    1.23870   1.23903   1.64747   2.11271   2.14919

  Beta  occ. eigenvalues --  -24.66542  -1.12718  -0.45315  -0.38296  -0.38296
  Beta virt. eigenvalues --   -0.15228  -0.05349   0.26631   0.39205   0.92836
  Beta virt. eigenvalues --    0.94797   0.94797   1.05849   1.33686   1.33686
  Beta virt. eigenvalues --    1.46781   1.46781   1.46895   1.69751   2.25541

 Mulliken charges and spin densities:
               1          2
     1  H    0.257203   0.596128
     2  H    0.001443   0.998605
     3  F   -0.258646  -0.594734
 Sum of Mulliken charges =   0.00000   1.00000

 Dipole moment (field-independent basis, Debye):
    X=             -2.2986    Y=             -0.0000    Z=             -0.0000  Tot=              2.2986
 Quadrupole moment (field-independent basis, Debye-Ang):
   XX=            -10.2300   YY=             -7.4316   ZZ=             -7.4316
   XY=             -0.0000   XZ=             -0.0000   YZ=             -0.0000

  Exact polarizability:      23.322      -0.000       2.097       0.000       0.000       2.097
 Approx polarizability:      36.677      -0.000       1.988       0.000       0.000       1.988

 ******    1 imaginary frequencies (negative Signs) ******

                      1                      2                      3
                      A                      A                      A
 Frequencies --  -1510.0998                32.0243               656.3816
 Red. masses --      1.0586                 1.0529                 1.0278
 Frc consts  --      1.4224                 0.0006                 0.2609
 IR Inten    --    128.3678                 0.2800                61.6781

                      4
                      A
 Frequencies --    656.3816
 Red. masses --      1.0278
 Frc consts  --      0.2609
 IR Inten    --     61.6781

 - Thermochemistry -
 -------------------
 Temperature   298.150 Kelvin.  Pressure   1.00000 Atm.
 Atom     1 has atomic number  1 and mass   1.00783

 Molecular mass:    21.01405 amu.
 Principal axes and moments of inertia in atomic units:
                           1         2         3
     Eigenvalues --     0.00000 105.84931 105.84931
           X            1.00000  -0.00000   0.00000
           Y            0.00000   1.00000   0.00000
           Z            0.00000   0.00000   1.00000
 This molecule is a prolate symmetric top.
 Rotational symmetry number  1.
 Rotational temperature (Kelvin)      0.81828
 Rotational constant (GHZ):          17.050098
    1 imaginary frequencies ignored.
 Zero-point vibrational energy       8043.6 (Joules/Mol)
                                    1.92247 (Kcal/Mol)
 Warning -- explicit consideration of   1 degrees of freedom as
           vibrations may cause significant error
 Vibrational temperatures:     46.08   944.39   944.39
          (Kelvin)

 Zero-point correction=                           0.003064 (Hartree/Particle)
 Thermal correction to Energy=                    0.006560
 Thermal correction to Enthalpy=                  0.007504
 Thermal correction to Gibbs Free Energy=        -0.019378
 Sum of electronic and zero-point Energies=           -100.801258
 Sum of electronic and thermal Energies=              -100.797761
 Sum of electronic and thermal Enthalpies=            -100.796817
 Sum of electronic and thermal Free Energies=         -100.823699

                     E (Thermal)             CV                S
                      KCal/Mol        Cal/Mol-Kelvin    Cal/Mol-Kelvin
 Total                    4.117              8.781             56.578
 Electronic               0.000              0.000              1.377
 Translational            0.889              2.981             35.068
 Rotational               0.592              1.987             13.708
 Vibrational              2.635              3.813              6.424
 Vibration     1          0.594              1.983              5.700

 Normal termination of Gaussian 16 at Fri Aug 22 16:45:02 2025.
