 Gaussian 16, Revision C.01,
 Gaussian 16:  ES64L-G16RevC.01  3-Jul-2019

 -----------------------------------------
 # sp b3lyp/6-311g** Force nosymm scf=(qc)
 -----------------------------------------

 -------------------
 Title Card Required
 -------------------
 Symbolic Z-matrix:
 Charge =  0 Multiplicity = 2

                          Input orientation:
 ---------------------------------------------------------------------
 Center     Atomic      Atomic             Coordinates (Angstroms)
 Number     Number       Type             X           Y           Z
 ---------------------------------------------------------------------
      1          1           0        0.000000    0.000000    0.000000
      2          1           0       -2.650000    0.000000    0.000000
      3          9           0        3.150000    0.000000    0.000000
 ---------------------------------------------------------------------

 SCF Done:  E(UB3LYP) =  -100.762707792     a.u. after   23 cycles

 Alpha  occ. eigenvalues --  -24.74631  -1.20648  -0.53750  -0.45131  -0.45131
 Alpha  occ. eigenvalues --   -0.32806
 Alpha virt. eigenvalues --   -0.09641   0.25309   0.34210   0.88926   0.91946
 Alpha virt. eigenvalues --    0.91946   1.03115   1.24794   1.24794   1.26389
 Alpha virt. eigenvalues --    1.41332   1.41332   1.42248   2.15764   2.37684

  Beta  occ. eigenvalues --  -24.71567  -1.11860  -0.42063  -0.42063  -0.33468
  Beta virt. eigenvalues --   -0.25090  -0.08643   0.25248   0.35466   0.93419
  Beta virt. eigenvalues --    0.93419   0.97839   1.07038   1.24003   1.24003
  Beta virt. eigenvalues --    1.25454   1.42939   1.42939   1.43779   2.16562

 Mulliken charges and spin densities:
               1          2
     1  H    0.023134  -0.951700
     2  H    0.003056   0.980755
     3  F   -0.026190   0.970946
 Sum of Mulliken charges =  -0.00000   1.00000

 Dipole moment (field-independent basis, Debye):
    X=             -0.4622    Y=              0.0000    Z=              0.0000  Tot=              0.4622
 Quadrupole moment (field-independent basis, Debye-Ang):
   XX=             -7.7565   YY=             -7.6462   ZZ=             -7.6462
   XY=             -0.0000   XZ=             -0.0000   YZ=             -0.0000

  Exact polarizability:      38.597      -0.000       2.019      -0.000      -0.000       2.019
 Approx polarizability:      33.324      -0.000       1.925      -0.000       0.000       1.925

 ******    2 imaginary frequencies (negative Signs) ******

                      1                      2                      3
                      A                      A                      A
 Frequencies --   -572.3693              -196.7987               211.0321
 Red. masses --      1.0102                 1.1056                 1.0160
 Frc consts  --      0.1950                 0.0252                 0.0267
 IR Inten    --     18.1496                12.8242                 0.4310

                      4
                      A
 Frequencies --    211.0321
 Red. masses --      1.0160
 Frc consts  --      0.0267
 IR Inten    --      0.4310

 - Thermochemistry -
 -------------------
 Temperature   298.150 Kelvin.  Pressure   1.00000 Atm.
 Atom     1 has atomic number  1 and mass   1.00783

 Molecular mass:    21.01405 amu.
 Principal axes and moments of inertia in atomic units:
                           1         2         3
     Eigenvalues --     0.00000 142.95556 142.95556
           X            1.00000  -0.00000   0.00000
           Y            0.00000   1.00000   0.00000
           Z            0.00000   0.00000   1.00000
 This molecule is a prolate symmetric top.
 Rotational symmetry number  1.
 Rotational temperature (Kelvin)      0.60588
 Rotational constant (GHZ):          12.624491
    2 imaginary frequencies ignored.
 Zero-point vibrational energy       2524.5 (Joules/Mol)
                                    0.60337 (Kcal/Mol)
 Warning -- explicit consideration of   2 degrees of freedom as
           vibrations may cause significant error
 Vibrational temperatures:    303.63   303.63
          (Kelvin)

 Zero-point correction=                           0.000962 (Hartree/Particle)
 Thermal correction to Energy=                    0.004409
 Thermal correction to Enthalpy=                  0.005353
 Thermal correction to Gibbs Free Energy=        -0.020693
 Sum of electronic and zero-point Energies=           -100.761746
 Sum of electronic and thermal Energies=              -100.758299
 Sum of electronic and thermal Enthalpies=            -100.757354
 Sum of electronic and thermal Free Energies=         -100.783401

                     E (Thermal)             CV                S
                      KCal/Mol        Cal/Mol-Kelvin    Cal/Mol-Kelvin
 Total                    2.767              8.616             54.820
 Electronic               0.000              0.000              1.377
 Translational            0.889              2.981             35.068
 Rotational               0.592              1.987             14.305
 Vibrational              1.286              3.648              4.069
 Vibration     1          0.643              1.824              2.035
 Vibration     2          0.643              1.824              2.035

 Normal termination of Gaussian 16 at Fri Aug 22 20:10:47 2025.
