 Gaussian 16, Revision C.01,
 Gaussian 16:  ES64L-G16RevC.01  3-Jul-2019

 -----------------------------------------
 # sp b3lyp/6-311g** Force nosymm scf=(qc)
 -----------------------------------------

 -------------------
 Title Card Required
 -------------------
 Symbolic Z-matrix:
 Charge =  0 Multiplicity = 2

                          Input orientation:
 ---------------------------------------------------------------------
 Center     Atomic      Atomic             Coordinates (Angstroms)
 Number     Number       Type             X           Y           Z
 ---------------------------------------------------------------------
      1          1           0        0.000000    0.000000    0.000000
      2          1           0       -1.750000    0.000000    0.000000
      3          9           0        2.100000    0.000000    0.000000
 ---------------------------------------------------------------------

 SCF Done:  E(UB3LYP) =  -100.807843136     a.u. after   13 cycles

 Alpha  occ. eigenvalues --  -24.69448  -1.15771  -0.48640  -0.40782  -0.40782
 Alpha  occ. eigenvalues --   -0.36825
 Alpha virt. eigenvalues --   -0.12661   0.23486   0.31045   0.85853   0.94480
 Alpha virt. eigenvalues --    0.94480   1.03261   1.20429   1.20429   1.25386
 Alpha virt. eigenvalues --    1.34573   1.34573   1.65501   2.13508   2.37124

  Beta  occ. eigenvalues --  -24.66872  -1.08519  -0.38232  -0.38232  -0.36778
  Beta virt. eigenvalues --   -0.22671  -0.11402   0.26005   0.30563   0.89429
  Beta virt. eigenvalues --    0.95508   0.95508   1.07274   1.22043   1.22043
  Beta virt. eigenvalues --    1.30934   1.35494   1.35494   1.65802   2.14295

 Mulliken charges and spin densities:
               1          2
     1  H    0.096120  -0.562853
     2  H    0.053781   0.752589
     3  F   -0.149901   0.810264
 Sum of Mulliken charges =  -0.00000   1.00000

 Dipole moment (field-independent basis, Debye):
    X=             -2.0262    Y=              0.0000    Z=              0.0000  Tot=              2.0262
 Quadrupole moment (field-independent basis, Debye-Ang):
   XX=             -8.1651   YY=             -7.5869   ZZ=             -7.5869
   XY=             -0.0000   XZ=              0.0000   YZ=             -0.0000

  Exact polarizability:      55.825       0.000       2.058      -0.000       0.000       2.058
 Approx polarizability:      73.657      -0.000       1.987      -0.000      -0.000       1.987

 ******    2 imaginary frequencies (negative Signs) ******

                      1                      2                      3
                      A                      A                      A
 Frequencies --  -1890.5537              -531.0738               814.5607
 Red. masses --      1.0115                 1.1042                 1.0159
 Frc consts  --      2.1300                 0.1835                 0.3971
 IR Inten    --    274.7541                39.3673                 3.9760

                      4
                      A
 Frequencies --    814.5607
 Red. masses --      1.0159
 Frc consts  --      0.3971
 IR Inten    --      3.9760

 - Thermochemistry -
 -------------------
 Temperature   298.150 Kelvin.  Pressure   1.00000 Atm.
 Atom     1 has atomic number  1 and mass   1.00783

 Molecular mass:    21.01405 amu.
 Principal axes and moments of inertia in atomic units:
                           1         2         3
     Eigenvalues --     0.00000  63.10722  63.10722
           X            1.00000  -0.00000   0.00000
           Y            0.00000   1.00000   0.00000
           Z            0.00000   0.00000   1.00000
 This molecule is a prolate symmetric top.
 Rotational symmetry number  1.
 Rotational temperature (Kelvin)      1.37249
 Rotational constant (GHZ):          28.598017
    2 imaginary frequencies ignored.
 Zero-point vibrational energy       9744.3 (Joules/Mol)
                                    2.32895 (Kcal/Mol)
 Vibrational temperatures:   1171.97  1171.97
          (Kelvin)

 Zero-point correction=                           0.003711 (Hartree/Particle)
 Thermal correction to Energy=                    0.006220
 Thermal correction to Enthalpy=                  0.007165
 Thermal correction to Gibbs Free Energy=        -0.016363
 Sum of electronic and zero-point Energies=           -100.804132
 Sum of electronic and thermal Energies=              -100.801623
 Sum of electronic and thermal Enthalpies=            -100.800678
 Sum of electronic and thermal Free Energies=         -100.824206

                     E (Thermal)             CV                S
                      KCal/Mol        Cal/Mol-Kelvin    Cal/Mol-Kelvin
 Total                    3.903              6.222             49.517
 Electronic               0.000              0.000              1.377
 Translational            0.889              2.981             35.068
 Rotational               0.592              1.987             12.680
 Vibrational              2.422              1.254              0.392

 Normal termination of Gaussian 16 at Fri Aug 22 17:03:36 2025.
