 Gaussian 16, Revision C.01,
 Gaussian 16:  ES64L-G16RevC.01  3-Jul-2019

 -----------------------------------------
 # sp b3lyp/6-311g** Force nosymm scf=(qc)
 -----------------------------------------

 -------------------
 Title Card Required
 -------------------
 Symbolic Z-matrix:
 Charge =  0 Multiplicity = 2

                          Input orientation:
 ---------------------------------------------------------------------
 Center     Atomic      Atomic             Coordinates (Angstroms)
 Number     Number       Type             X           Y           Z
 ---------------------------------------------------------------------
      1          1           0        0.000000    0.000000    0.000000
      2          1           0       -2.000000    0.000000    0.000000
      3          9           0        0.500000    0.000000    0.000000
 ---------------------------------------------------------------------

 SCF Done:  E(UB3LYP) =  -100.268037393     a.u. after    7 cycles

 Alpha  occ. eigenvalues --  -24.63016  -1.42363  -0.63586  -0.44315  -0.44315
 Alpha  occ. eigenvalues --   -0.34892
 Alpha virt. eigenvalues --    0.11686   0.24260   0.57862   0.89577   0.90150
 Alpha virt. eigenvalues --    0.90150   1.22582   1.22582   1.24220   1.58573
 Alpha virt. eigenvalues --    1.58573   1.58677   2.03607   2.22158   3.76655

  Beta  occ. eigenvalues --  -24.62992  -1.42288  -0.63518  -0.44305  -0.44305
  Beta virt. eigenvalues --   -0.09429   0.12985   0.35419   0.59570   0.89693
  Beta virt. eigenvalues --    0.90133   0.90133   1.33538   1.43245   1.43245
  Beta virt. eigenvalues --    1.58604   1.58604   1.66387   2.08684   2.46644

 Mulliken charges and spin densities:
               1          2
     1  H    0.098210   0.010837
     2  H    0.009168   0.988492
     3  F   -0.107378   0.000671
 Sum of Mulliken charges =   0.00000   1.00000

 Dipole moment (field-independent basis, Debye):
    X=             -1.3547    Y=              0.0000    Z=              0.0000  Tot=              1.3547
 Quadrupole moment (field-independent basis, Debye-Ang):
   XX=             -6.4555   YY=             -6.4105   ZZ=             -6.4105
   XY=             -0.0000   XZ=              0.0000   YZ=              0.0000

  Exact polarizability:       5.169       0.000       2.449      -0.000      -0.000       2.449
 Approx polarizability:       4.956       0.000       2.441      -0.000      -0.000       2.441

 ******    2 imaginary frequencies (negative Signs) ******

                      1                      2                      3
                      A                      A                      A
 Frequencies --  -9486.8737             -9486.8737               409.5756
 Red. masses --      1.0389                 1.0389                 1.0533
 Frc consts  --     55.0911                55.0911                 0.1041
 IR Inten    --    241.4048               241.4048                 0.0233

                      4
                      A
 Frequencies --  19157.9310
 Red. masses --      1.0583
 Frc consts  --    228.8497
 IR Inten    --     86.5378

 - Thermochemistry -
 -------------------
 Temperature   298.150 Kelvin.  Pressure   1.00000 Atm.
 Atom     1 has atomic number  1 and mass   1.00783

 Molecular mass:    21.01405 amu.
 Principal axes and moments of inertia in atomic units:
                           1         2         3
     Eigenvalues --     0.00000  21.84009  21.84009
           X            1.00000  -0.00000   0.00000
           Y            0.00000   1.00000   0.00000
           Z            0.00000   0.00000   1.00000
 This molecule is a prolate symmetric top.
 Rotational symmetry number  1.
 Rotational temperature (Kelvin)      3.96582
 Rotational constant (GHZ):          82.634318
    2 imaginary frequencies ignored.
 Zero-point vibrational energy     117039.7 (Joules/Mol)
                                   27.97315 (Kcal/Mol)
 Warning -- explicit consideration of   1 degrees of freedom as
           vibrations may cause significant error
 Vibrational temperatures:    589.29 27563.99
          (Kelvin)

 Zero-point correction=                           0.044578 (Hartree/Particle)
 Thermal correction to Energy=                    0.047239
 Thermal correction to Enthalpy=                  0.048183
 Thermal correction to Gibbs Free Energy=         0.025403
 Sum of electronic and zero-point Energies=           -100.223459
 Sum of electronic and thermal Energies=              -100.220799
 Sum of electronic and thermal Enthalpies=            -100.219855
 Sum of electronic and thermal Free Energies=         -100.242635

                     E (Thermal)             CV                S
                      KCal/Mol        Cal/Mol-Kelvin    Cal/Mol-Kelvin
 Total                   29.643              6.417             47.945
 Electronic               0.000              0.000              1.377
 Translational            0.889              2.981             35.068
 Rotational               0.592              1.987             10.572
 Vibrational             28.162              1.449              0.928
 Vibration     1          0.774              1.449              0.928

 Normal termination of Gaussian 16 at Fri Aug 22 15:36:54 2025.
