 Gaussian 16, Revision C.01,
 Gaussian 16:  ES64L-G16RevC.01  3-Jul-2019

 -----------------------------------------
 # sp b3lyp/6-311g** Force nosymm scf=(qc)
 -----------------------------------------

 -------------------
 Title Card Required
 -------------------
 Symbolic Z-matrix:
 Charge =  0 Multiplicity = 2

                          Input orientation:
 ---------------------------------------------------------------------
 Center     Atomic      Atomic             Coordinates (Angstroms)
 Number     Number       Type             X           Y           Z
 ---------------------------------------------------------------------
      1          1           0        0.000000    0.000000    0.000000
      2          1           0       -3.450000    0.000000    0.000000
      3          9           0        1.250000    0.000000    0.000000
 ---------------------------------------------------------------------

 SCF Done:  E(UB3LYP) =  -100.913465584     a.u. after    6 cycles

 Alpha  occ. eigenvalues --  -24.64358  -1.11640  -0.46876  -0.37280  -0.37280
 Alpha  occ. eigenvalues --   -0.33922
 Alpha virt. eigenvalues --   -0.07337   0.21900   0.28875   0.93062   0.93062
 Alpha virt. eigenvalues --    1.01439   1.23434   1.23594   1.23594   1.24385
 Alpha virt. eigenvalues --    1.34257   1.34257   1.71198   2.13800   2.26629

  Beta  occ. eigenvalues --  -24.64352  -1.11625  -0.46860  -0.37275  -0.37275
  Beta virt. eigenvalues --   -0.08688  -0.05207   0.25933   0.38454   0.93061
  Beta virt. eigenvalues --    0.93061   1.01455   1.24228   1.34243   1.34243
  Beta virt. eigenvalues --    1.46535   1.46885   1.46885   1.71234   2.26317

 Mulliken charges and spin densities:
               1          2
     1  H    0.356217  -0.000190
     2  H    0.001507   0.998335
     3  F   -0.357724   0.001855
 Sum of Mulliken charges =   0.00000   1.00000

 Dipole moment (field-independent basis, Debye):
    X=             -2.3585    Y=             -0.0000    Z=              0.0000  Tot=              2.3585
 Quadrupole moment (field-independent basis, Debye-Ang):
   XX=             -9.0185   YY=             -7.1647   ZZ=             -7.1647
   XY=             -0.0000   XZ=             -0.0000   YZ=              0.0000

  Exact polarizability:      10.541      -0.000       2.303       0.000      -0.000       2.303
 Approx polarizability:      15.468      -0.000       2.252       0.000      -0.000       2.252

 ******    1 imaginary frequencies (negative Signs) ******

                      1                      2                      3
                      A                      A                      A
 Frequencies --    -68.2771               441.0192              1186.3821
 Red. masses --      1.0495                 1.0621                 1.0333
 Frc consts  --      0.0029                 0.1217                 0.8569
 IR Inten    --      0.4387                64.2858               140.6052

                      4
                      A
 Frequencies --   1186.3821
 Red. masses --      1.0333
 Frc consts  --      0.8569
 IR Inten    --    140.6052

 - Thermochemistry -
 -------------------
 Temperature   298.150 Kelvin.  Pressure   1.00000 Atm.
 Atom     1 has atomic number  1 and mass   1.00783

 Molecular mass:    21.01405 amu.
 Principal axes and moments of inertia in atomic units:
                           1         2         3
     Eigenvalues --     0.00000  79.01483  79.01483
           X            1.00000  -0.00000   0.00000
           Y            0.00000   1.00000   0.00000
           Z            0.00000   0.00000   1.00000
 This molecule is a prolate symmetric top.
 Rotational symmetry number  1.
 Rotational temperature (Kelvin)      1.09617
 Rotational constant (GHZ):          22.840537
    1 imaginary frequencies ignored.
 Zero-point vibrational energy      16830.2 (Joules/Mol)
                                    4.02251 (Kcal/Mol)
 Warning -- explicit consideration of   1 degrees of freedom as
           vibrations may cause significant error
 Vibrational temperatures:    634.53  1706.94  1706.94
          (Kelvin)

 Zero-point correction=                           0.006410 (Hartree/Particle)
 Thermal correction to Energy=                    0.009078
 Thermal correction to Enthalpy=                  0.010022
 Thermal correction to Gibbs Free Energy=        -0.013964
 Sum of electronic and zero-point Energies=           -100.907055
 Sum of electronic and thermal Energies=              -100.904388
 Sum of electronic and thermal Enthalpies=            -100.903444
 Sum of electronic and thermal Free Energies=         -100.927430

                     E (Thermal)             CV                S
                      KCal/Mol        Cal/Mol-Kelvin    Cal/Mol-Kelvin
 Total                    5.696              6.777             50.483
 Electronic               0.000              0.000              1.377
 Translational            0.889              2.981             35.068
 Rotational               0.592              1.987             13.127
 Vibrational              4.215              1.809              0.911
 Vibration     1          0.801              1.381              0.823

 Normal termination of Gaussian 16 at Fri Aug 22 16:13:34 2025.
