 Gaussian 16, Revision C.01,
 Gaussian 16:  ES64L-G16RevC.01  3-Jul-2019

 -----------------------------------------
 # sp b3lyp/6-311g** Force nosymm scf=(qc)
 -----------------------------------------

 -------------------
 Title Card Required
 -------------------
 Symbolic Z-matrix:
 Charge =  0 Multiplicity = 2

                          Input orientation:
 ---------------------------------------------------------------------
 Center     Atomic      Atomic             Coordinates (Angstroms)
 Number     Number       Type             X           Y           Z
 ---------------------------------------------------------------------
      1          1           0        0.000000    0.000000    0.000000
      2          1           0       -3.250000    0.000000    0.000000
      3          9           0        3.450000    0.000000    0.000000
 ---------------------------------------------------------------------

 SCF Done:  E(UB3LYP) =  -100.759542636     a.u. after   30 cycles

 Alpha  occ. eigenvalues --  -24.75304  -1.21273  -0.54426  -0.45697  -0.45697
 Alpha  occ. eigenvalues --   -0.32400
 Alpha virt. eigenvalues --   -0.07547   0.24552   0.36490   0.87769   0.91532
 Alpha virt. eigenvalues --    0.91532   1.01952   1.25116   1.25116   1.25469
 Alpha virt. eigenvalues --    1.44457   1.44572   1.44572   2.15362   2.40390

  Beta  occ. eigenvalues --  -24.72195  -1.12342  -0.42582  -0.42582  -0.32909
  Beta virt. eigenvalues --   -0.25442  -0.06944   0.24328   0.37466   0.93019
  Beta virt. eigenvalues --    0.93019   0.96875   1.05946   1.24528   1.24528
  Beta virt. eigenvalues --    1.24854   1.45324   1.45542   1.45542   2.15646

 Mulliken charges and spin densities:
               1          2
     1  H    0.012724  -0.981618
     2  H    0.000384   0.996054
     3  F   -0.013108   0.985564
 Sum of Mulliken charges =  -0.00000   1.00000

 Dipole moment (field-independent basis, Debye):
    X=             -0.2385    Y=              0.0000    Z=              0.0000  Tot=              0.2385
 Quadrupole moment (field-independent basis, Debye-Ang):
   XX=             -7.4387   YY=             -7.6260   ZZ=             -7.6260
   XY=              0.0000   XZ=              0.0000   YZ=              0.0000

  Exact polarizability:      25.914       0.000       2.032       0.000      -0.000       2.032
 Approx polarizability:      20.775       0.000       1.932       0.000      -0.000       1.932

 ******    2 imaginary frequencies (negative Signs) ******

                      1                      2                      3
                      A                      A                      A
 Frequencies --   -292.8099              -123.3861                97.6787
 Red. masses --      1.0185                 1.0959                 1.0172
 Frc consts  --      0.0515                 0.0098                 0.0057
 IR Inten    --     10.8765                 2.7995                 0.1409

                      4
                      A
 Frequencies --     97.6787
 Red. masses --      1.0172
 Frc consts  --      0.0057
 IR Inten    --      0.1409

 - Thermochemistry -
 -------------------
 Temperature   298.150 Kelvin.  Pressure   1.00000 Atm.
 Atom     1 has atomic number  1 and mass   1.00783

 Molecular mass:    21.01405 amu.
 Principal axes and moments of inertia in atomic units:
                           1         2         3
     Eigenvalues --     0.00000 186.61430 186.61430
           X            1.00000  -0.00000   0.00000
           Y            0.00000   1.00000   0.00000
           Z            0.00000   0.00000   1.00000
 This molecule is a prolate symmetric top.
 Rotational symmetry number  1.
 Rotational temperature (Kelvin)      0.46413
 Rotational constant (GHZ):           9.670970
    2 imaginary frequencies ignored.
 Zero-point vibrational energy       1168.5 (Joules/Mol)
                                    0.27928 (Kcal/Mol)
 Warning -- explicit consideration of   2 degrees of freedom as
           vibrations may cause significant error
 Vibrational temperatures:    140.54   140.54
          (Kelvin)

 Zero-point correction=                           0.000445 (Hartree/Particle)
 Thermal correction to Energy=                    0.004284
 Thermal correction to Enthalpy=                  0.005228
 Thermal correction to Gibbs Free Energy=        -0.022463
 Sum of electronic and zero-point Energies=           -100.759098
 Sum of electronic and thermal Energies=              -100.755259
 Sum of electronic and thermal Enthalpies=            -100.754315
 Sum of electronic and thermal Free Energies=         -100.782006

                     E (Thermal)             CV                S
                      KCal/Mol        Cal/Mol-Kelvin    Cal/Mol-Kelvin
 Total                    2.688              8.870             58.281
 Electronic               0.000              0.000              1.377
 Translational            0.889              2.981             35.068
 Rotational               0.592              1.987             14.835
 Vibrational              1.207              3.902              7.000
 Vibration     1          0.603              1.951              3.500
 Vibration     2          0.603              1.951              3.500

 Normal termination of Gaussian 16 at Fri Aug 22 21:42:55 2025.
