 Gaussian 16, Revision C.01,
 Gaussian 16:  ES64L-G16RevC.01  3-Jul-2019

 -----------------------------------------
 # sp b3lyp/6-311g** Force nosymm scf=(qc)
 -----------------------------------------

 -------------------
 Title Card Required
 -------------------
 Symbolic Z-matrix:
 Charge =  0 Multiplicity = 2

                          Input orientation:
 ---------------------------------------------------------------------
 Center     Atomic      Atomic             Coordinates (Angstroms)
 Number     Number       Type             X           Y           Z
 ---------------------------------------------------------------------
      1          1           0        0.000000    0.000000    0.000000
      2          1           0       -3.500000    0.000000    0.000000
      3          9           0        2.700000    0.000000    0.000000
 ---------------------------------------------------------------------

 SCF Done:  E(UB3LYP) =  -100.764040057     a.u. after   22 cycles

 Alpha  occ. eigenvalues --  -24.72812  -1.18961  -0.51925  -0.43608  -0.43608
 Alpha  occ. eigenvalues --   -0.32738
 Alpha virt. eigenvalues --   -0.09303   0.23746   0.35698   0.89965   0.93023
 Alpha virt. eigenvalues --    0.93023   1.05599   1.24771   1.24771   1.24939
 Alpha virt. eigenvalues --    1.42274   1.42274   1.43717   2.14631   2.38194

  Beta  occ. eigenvalues --  -24.69879  -1.10584  -0.40679  -0.40679  -0.34610
  Beta virt. eigenvalues --   -0.24020  -0.06669   0.24000   0.37870   0.94447
  Beta virt. eigenvalues --    0.94447   0.97780   1.08684   1.22722   1.22722
  Beta virt. eigenvalues --    1.25582   1.45753   1.46023   1.46023   2.13905

 Mulliken charges and spin densities:
               1          2
     1  H    0.064083  -0.926088
     2  H    0.000691   0.997943
     3  F   -0.064774   0.928145
 Sum of Mulliken charges =  -0.00000   1.00000

 Dipole moment (field-independent basis, Debye):
    X=             -0.9064    Y=             -0.0000    Z=              0.0000  Tot=              0.9064
 Quadrupole moment (field-independent basis, Debye-Ang):
   XX=             -8.9158   YY=             -7.5909   ZZ=             -7.5909
   XY=             -0.0000   XZ=              0.0000   YZ=             -0.0000

  Exact polarizability:      32.079      -0.000       2.024      -0.000       0.000       2.024
 Approx polarizability:      37.499      -0.000       1.922       0.000      -0.000       1.922

 ******    2 imaginary frequencies (negative Signs) ******

                      1                      2                      3
                      A                      A                      A
 Frequencies --   -506.6255              -120.3106               188.7700
 Red. masses --      1.0519                 1.0596                 1.0214
 Frc consts  --      0.1591                 0.0090                 0.0214
 IR Inten    --     62.8377                 0.3914                 3.9044

                      4
                      A
 Frequencies --    188.7701
 Red. masses --      1.0214
 Frc consts  --      0.0214
 IR Inten    --      3.9044

 - Thermochemistry -
 -------------------
 Temperature   298.150 Kelvin.  Pressure   1.00000 Atm.
 Atom     1 has atomic number  1 and mass   1.00783

 Molecular mass:    21.01405 amu.
 Principal axes and moments of inertia in atomic units:
                           1         2         3
     Eigenvalues --     0.00000 150.91047 150.91047
           X            1.00000  -0.00000   0.00000
           Y            0.00000   1.00000   0.00000
           Z            0.00000   0.00000   1.00000
 This molecule is a prolate symmetric top.
 Rotational symmetry number  1.
 Rotational temperature (Kelvin)      0.57394
 Rotational constant (GHZ):          11.959019
    2 imaginary frequencies ignored.
 Zero-point vibrational energy       2258.2 (Joules/Mol)
                                    0.53972 (Kcal/Mol)
 Warning -- explicit consideration of   2 degrees of freedom as
           vibrations may cause significant error
 Vibrational temperatures:    271.60   271.60
          (Kelvin)

 Zero-point correction=                           0.000860 (Hartree/Particle)
 Thermal correction to Energy=                    0.004378
 Thermal correction to Enthalpy=                  0.005322
 Thermal correction to Gibbs Free Energy=        -0.020971
 Sum of electronic and zero-point Energies=           -100.763180
 Sum of electronic and thermal Energies=              -100.759662
 Sum of electronic and thermal Enthalpies=            -100.758718
 Sum of electronic and thermal Free Energies=         -100.785011

                     E (Thermal)             CV                S
                      KCal/Mol        Cal/Mol-Kelvin    Cal/Mol-Kelvin
 Total                    2.747              8.679             55.338
 Electronic               0.000              0.000              1.377
 Translational            0.889              2.981             35.068
 Rotational               0.592              1.987             14.413
 Vibrational              1.266              3.711              4.480
 Vibration     1          0.633              1.855              2.240
 Vibration     2          0.633              1.855              2.240

 Normal termination of Gaussian 16 at Fri Aug 22 18:26:54 2025.
