 Gaussian 16, Revision C.01,
 Gaussian 16:  ES64L-G16RevC.01  3-Jul-2019

 -----------------------------------------
 # sp b3lyp/6-311g** Force nosymm scf=(qc)
 -----------------------------------------

 -------------------
 Title Card Required
 -------------------
 Symbolic Z-matrix:
 Charge =  0 Multiplicity = 2

                          Input orientation:
 ---------------------------------------------------------------------
 Center     Atomic      Atomic             Coordinates (Angstroms)
 Number     Number       Type             X           Y           Z
 ---------------------------------------------------------------------
      1          1           0        0.000000    0.000000    0.000000
      2          1           0       -3.300000    0.000000    0.000000
      3          9           0        2.550000    0.000000    0.000000
 ---------------------------------------------------------------------

 SCF Done:  E(UB3LYP) =  -100.766699917     a.u. after   21 cycles

 Alpha  occ. eigenvalues --  -24.72027  -1.18226  -0.51133  -0.42951  -0.42951
 Alpha  occ. eigenvalues --   -0.32951
 Alpha virt. eigenvalues --   -0.10203   0.23737   0.35179   0.89853   0.93461
 Alpha virt. eigenvalues --    0.93461   1.06223   1.24567   1.24567   1.24922
 Alpha virt. eigenvalues --    1.40980   1.40980   1.44096   2.14775   2.36353

  Beta  occ. eigenvalues --  -24.69160  -1.10057  -0.40091  -0.40091  -0.35160
  Beta virt. eigenvalues --   -0.23529  -0.07117   0.24195   0.37540   0.94844
  Beta virt. eigenvalues --    0.94844   0.96706   1.08769   1.22258   1.22258
  Beta virt. eigenvalues --    1.28377   1.45284   1.45524   1.45524   2.13498

 Mulliken charges and spin densities:
               1          2
     1  H    0.081848  -0.902964
     2  H    0.001399   0.996570
     3  F   -0.083247   0.906395
 Sum of Mulliken charges =  -0.00000   1.00000

 Dipole moment (field-independent basis, Debye):
    X=             -1.1039    Y=             -0.0000    Z=             -0.0000  Tot=              1.1039
 Quadrupole moment (field-independent basis, Debye-Ang):
   XX=             -9.1655   YY=             -7.5803   ZZ=             -7.5803
   XY=             -0.0000   XZ=             -0.0000   YZ=             -0.0000

  Exact polarizability:      32.247      -0.000       2.024      -0.000      -0.000       2.024
 Approx polarizability:      39.338      -0.000       1.920      -0.000       0.000       1.920

 ******    2 imaginary frequencies (negative Signs) ******

                      1                      2                      3
                      A                      A                      A
 Frequencies --   -597.2892              -151.8223               230.8630
 Red. masses --      1.0509                 1.0607                 1.0214
 Frc consts  --      0.2209                 0.0144                 0.0321
 IR Inten    --     75.0341                 0.8112                 6.2968

                      4
                      A
 Frequencies --    230.8630
 Red. masses --      1.0214
 Frc consts  --      0.0321
 IR Inten    --      6.2968

 - Thermochemistry -
 -------------------
 Temperature   298.150 Kelvin.  Pressure   1.00000 Atm.
 Atom     1 has atomic number  1 and mass   1.00783

 Molecular mass:    21.01405 amu.
 Principal axes and moments of inertia in atomic units:
                           1         2         3
     Eigenvalues --     0.00000 134.39048 134.39048
           X            1.00000  -0.00000   0.00000
           Y            0.00000   1.00000   0.00000
           Z            0.00000   0.00000   1.00000
 This molecule is a prolate symmetric top.
 Rotational symmetry number  1.
 Rotational temperature (Kelvin)      0.64449
 Rotational constant (GHZ):          13.429085
    2 imaginary frequencies ignored.
 Zero-point vibrational energy       2761.7 (Joules/Mol)
                                    0.66007 (Kcal/Mol)
 Warning -- explicit consideration of   2 degrees of freedom as
           vibrations may cause significant error
 Vibrational temperatures:    332.16   332.16
          (Kelvin)

 Zero-point correction=                           0.001052 (Hartree/Particle)
 Thermal correction to Energy=                    0.004440
 Thermal correction to Enthalpy=                  0.005384
 Thermal correction to Gibbs Free Energy=        -0.020450
 Sum of electronic and zero-point Energies=           -100.765648
 Sum of electronic and thermal Energies=              -100.762260
 Sum of electronic and thermal Enthalpies=            -100.761316
 Sum of electronic and thermal Free Energies=         -100.787150

                     E (Thermal)             CV                S
                      KCal/Mol        Cal/Mol-Kelvin    Cal/Mol-Kelvin
 Total                    2.786              8.556             54.372
 Electronic               0.000              0.000              1.377
 Translational            0.889              2.981             35.068
 Rotational               0.592              1.987             14.182
 Vibrational              1.305              3.588              3.744
 Vibration     1          0.653              1.794              1.872
 Vibration     2          0.653              1.794              1.872

 Normal termination of Gaussian 16 at Fri Aug 22 17:55:06 2025.
