 Gaussian 16, Revision C.01,
 Gaussian 16:  ES64L-G16RevC.01  3-Jul-2019

 -----------------------------------------
 # sp b3lyp/6-311g** Force nosymm scf=(qc)
 -----------------------------------------

 -------------------
 Title Card Required
 -------------------
 Symbolic Z-matrix:
 Charge =  0 Multiplicity = 2

                          Input orientation:
 ---------------------------------------------------------------------
 Center     Atomic      Atomic             Coordinates (Angstroms)
 Number     Number       Type             X           Y           Z
 ---------------------------------------------------------------------
      1          1           0        0.000000    0.000000    0.000000
      2          1           0       -0.650000    0.000000    0.000000
      3          9           0        2.850000    0.000000    0.000000
 ---------------------------------------------------------------------

 SCF Done:  E(UB3LYP) =  -100.927248151     a.u. after   61 cycles

 Alpha  occ. eigenvalues --  -24.76674  -1.22464  -0.55653  -0.47064  -0.46801
 Alpha  occ. eigenvalues --   -0.44994
 Alpha virt. eigenvalues --    0.08167   0.19501   0.50894   0.85825   0.90696
 Alpha virt. eigenvalues --    0.93889   1.08406   1.09674   1.09684   1.59884
 Alpha virt. eigenvalues --    1.86224   1.89479   1.89490   2.38610   3.64615

  Beta  occ. eigenvalues --  -24.73511  -1.13374  -0.45407  -0.43630  -0.43475
  Beta virt. eigenvalues --   -0.26271   0.08233   0.19542   0.51010   0.92194
  Beta virt. eigenvalues --    0.95280   0.95808   1.09675   1.09683   1.11940
  Beta virt. eigenvalues --    1.59899   1.86258   1.89478   1.89489   2.38617

 Mulliken charges and spin densities:
               1          2
     1  H   -0.008054  -0.001731
     2  H   -0.003562   0.000095
     3  F    0.011615   1.001637
 Sum of Mulliken charges =   0.00000   1.00000

 Dipole moment (field-independent basis, Debye):
    X=              0.1066    Y=             -0.0000    Z=              0.0000  Tot=              0.1066
 Quadrupole moment (field-independent basis, Debye-Ang):
   XX=             -6.0146   YY=             -6.3881   ZZ=             -6.3888
   XY=             -0.0000   XZ=              0.0000   YZ=             -0.4317

  Exact polarizability:       7.479       0.000       2.139      -0.000      -0.228       2.139
 Approx polarizability:       8.164      -0.000       2.280       0.000      -0.287       2.280

 ******    2 imaginary frequencies (negative Signs) ******

                      1                      2                      3
                      A                      A                      A
 Frequencies --  -1942.9998             -1942.8949                91.9238
 Red. masses --      1.0089                 1.0089                 1.1085
 Frc consts  --      2.2441                 2.2438                 0.0055
 IR Inten    --      0.0338                 0.0298                 0.2363

                      4
                      A
 Frequencies --   5976.0242
 Red. masses --      1.0078
 Frc consts  --     21.2061
 IR Inten    --      0.6237

 - Thermochemistry -
 -------------------
 Temperature   298.150 Kelvin.  Pressure   1.00000 Atm.
 Atom     1 has atomic number  1 and mass   1.00783

 Molecular mass:    21.01405 amu.
 Principal axes and moments of inertia in atomic units:
                           1         2         3
     Eigenvalues --     0.00000  66.36086  66.36086
           X            1.00000  -0.00000   0.00000
           Y            0.00000   1.00000   0.00000
           Z            0.00000   0.00000   1.00000
 This molecule is a prolate symmetric top.
 Rotational symmetry number  1.
 Rotational temperature (Kelvin)      1.30520
 Rotational constant (GHZ):          27.195869
    2 imaginary frequencies ignored.
 Zero-point vibrational energy      36294.4 (Joules/Mol)
                                    8.67457 (Kcal/Mol)
 Warning -- explicit consideration of   1 degrees of freedom as
           vibrations may cause significant error
 Vibrational temperatures:    132.26  8598.17
          (Kelvin)

 Zero-point correction=                           0.013824 (Hartree/Particle)
 Thermal correction to Energy=                    0.016934
 Thermal correction to Enthalpy=                  0.017879
 Thermal correction to Gibbs Free Energy=        -0.007229
 Sum of electronic and zero-point Energies=           -100.913424
 Sum of electronic and thermal Energies=              -100.910314
 Sum of electronic and thermal Enthalpies=            -100.909370
 Sum of electronic and thermal Free Energies=         -100.934478

                     E (Thermal)             CV                S
                      KCal/Mol        Cal/Mol-Kelvin    Cal/Mol-Kelvin
 Total                   10.627              6.923             52.844
 Electronic               0.000              0.000              1.377
 Translational            0.889              2.981             35.068
 Rotational               0.592              1.987             12.780
 Vibrational              9.145              1.955              3.619
 Vibration     1          0.602              1.955              3.619

 Normal termination of Gaussian 16 at Fri Aug 22 18:46:24 2025.
