 Gaussian 16, Revision C.01,
 Gaussian 16:  ES64L-G16RevC.01  3-Jul-2019

 -----------------------------------------
 # sp b3lyp/6-311g** Force nosymm scf=(qc)
 -----------------------------------------

 -------------------
 Title Card Required
 -------------------
 Symbolic Z-matrix:
 Charge =  0 Multiplicity = 2

                          Input orientation:
 ---------------------------------------------------------------------
 Center     Atomic      Atomic             Coordinates (Angstroms)
 Number     Number       Type             X           Y           Z
 ---------------------------------------------------------------------
      1          1           0        0.000000    0.000000    0.000000
      2          1           0       -1.600000    0.000000    0.000000
      3          9           0        3.100000    0.000000    0.000000
 ---------------------------------------------------------------------

 SCF Done:  E(UB3LYP) =  -100.806707041     a.u. after   26 cycles

 Alpha  occ. eigenvalues --  -24.75284  -1.21258  -0.54413  -0.45694  -0.45694
 Alpha  occ. eigenvalues --   -0.34133
 Alpha virt. eigenvalues --   -0.10937   0.24875   0.30063   0.89112   0.91502
 Alpha virt. eigenvalues --    0.91502   1.03316   1.05885   1.21517   1.21517
 Alpha virt. eigenvalues --    1.38680   1.38680   1.74017   2.18672   2.44176

  Beta  occ. eigenvalues --  -24.72193  -1.12381  -0.42597  -0.42597  -0.33988
  Beta virt. eigenvalues --   -0.25620  -0.10712   0.25179   0.30354   0.92980
  Beta virt. eigenvalues --    0.92980   0.97967   1.05976   1.07454   1.21679
  Beta virt. eigenvalues --    1.21679   1.38860   1.38860   1.74331   2.19353

 Mulliken charges and spin densities:
               1          2
     1  H    0.000380  -0.457847
     2  H    0.016135   0.478112
     3  F   -0.016515   0.979736
 Sum of Mulliken charges =   0.00000   1.00000

 Dipole moment (field-independent basis, Debye):
    X=             -0.3833    Y=             -0.0000    Z=             -0.0000  Tot=              0.3833
 Quadrupole moment (field-independent basis, Debye-Ang):
   XX=             -6.2521   YY=             -7.7505   ZZ=             -7.7505
   XY=             -0.0000   XZ=             -0.0000   YZ=             -0.0000

  Exact polarizability:      52.287       0.000       2.009       0.000       0.000       2.009
 Approx polarizability:      63.353      -0.000       2.000      -0.000      -0.000       2.000

 ******    2 imaginary frequencies (negative Signs) ******

                      1                      2                      3
                      A                      A                      A
 Frequencies --  -2061.9989              -178.0646              1040.3334
 Red. masses --      1.0079                 1.1085                 1.0119
 Frc consts  --      2.5248                 0.0207                 0.6453
 IR Inten    --    124.8368                15.4841                 0.0377

                      4
                      A
 Frequencies --   1040.3334
 Red. masses --      1.0119
 Frc consts  --      0.6453
 IR Inten    --      0.0377

 - Thermochemistry -
 -------------------
 Temperature   298.150 Kelvin.  Pressure   1.00000 Atm.
 Atom     1 has atomic number  1 and mass   1.00783

 Molecular mass:    21.01405 amu.
 Principal axes and moments of inertia in atomic units:
                           1         2         3
     Eigenvalues --     0.00000 103.58717 103.58717
           X            1.00000  -0.00000   0.00000
           Y            0.00000   1.00000   0.00000
           Z            0.00000   0.00000   1.00000
 This molecule is a prolate symmetric top.
 Rotational symmetry number  1.
 Rotational temperature (Kelvin)      0.83615
 Rotational constant (GHZ):          17.422440
    2 imaginary frequencies ignored.
 Zero-point vibrational energy      12445.2 (Joules/Mol)
                                    2.97446 (Kcal/Mol)
 Vibrational temperatures:   1496.81  1496.81
          (Kelvin)

 Zero-point correction=                           0.004740 (Hartree/Particle)
 Thermal correction to Energy=                    0.007164
 Thermal correction to Enthalpy=                  0.008108
 Thermal correction to Gibbs Free Energy=        -0.015777
 Sum of electronic and zero-point Energies=           -100.801967
 Sum of electronic and thermal Energies=              -100.799543
 Sum of electronic and thermal Enthalpies=            -100.798599
 Sum of electronic and thermal Free Energies=         -100.822484

                     E (Thermal)             CV                S
                      KCal/Mol        Cal/Mol-Kelvin    Cal/Mol-Kelvin
 Total                    4.495              5.638             50.269
 Electronic               0.000              0.000              1.377
 Translational            0.889              2.981             35.068
 Rotational               0.592              1.987             13.665
 Vibrational              3.014              0.670              0.159

 Normal termination of Gaussian 16 at Fri Aug 22 19:53:48 2025.
