 Gaussian 16, Revision C.01,
 Gaussian 16:  ES64L-G16RevC.01  3-Jul-2019

 -----------------------------------------
 # sp b3lyp/6-311g** Force nosymm scf=(qc)
 -----------------------------------------

 -------------------
 Title Card Required
 -------------------
 Symbolic Z-matrix:
 Charge =  0 Multiplicity = 2

                          Input orientation:
 ---------------------------------------------------------------------
 Center     Atomic      Atomic             Coordinates (Angstroms)
 Number     Number       Type             X           Y           Z
 ---------------------------------------------------------------------
      1          1           0        0.000000    0.000000    0.000000
      2          1           0       -3.650000    0.000000    0.000000
      3          9           0        2.700000    0.000000    0.000000
 ---------------------------------------------------------------------

 SCF Done:  E(UB3LYP) =  -100.763930695     a.u. after   22 cycles

 Alpha  occ. eigenvalues --  -24.72808  -1.18959  -0.51922  -0.43606  -0.43606
 Alpha  occ. eigenvalues --   -0.32690
 Alpha virt. eigenvalues --   -0.09174   0.23670   0.35789   0.89938   0.93025
 Alpha virt. eigenvalues --    0.93025   1.05571   1.24814   1.24814   1.24905
 Alpha virt. eigenvalues --    1.42276   1.42276   1.43942   2.14454   2.38693

  Beta  occ. eigenvalues --  -24.69876  -1.10582  -0.40676  -0.40676  -0.34607
  Beta virt. eigenvalues --   -0.24017  -0.06425   0.23883   0.38017   0.94448
  Beta virt. eigenvalues --    0.94448   0.97735   1.08635   1.22720   1.22720
  Beta virt. eigenvalues --    1.25564   1.46047   1.46292   1.46292   2.13660

 Mulliken charges and spin densities:
               1          2
     1  H    0.064390  -0.926685
     2  H    0.000469   0.998583
     3  F   -0.064858   0.928102
 Sum of Mulliken charges =  -0.00000   1.00000

 Dipole moment (field-independent basis, Debye):
    X=             -0.9041    Y=              0.0000    Z=             -0.0000  Tot=              0.9041
 Quadrupole moment (field-independent basis, Debye-Ang):
   XX=             -8.9370   YY=             -7.5889   ZZ=             -7.5889
   XY=             -0.0000   XZ=              0.0000   YZ=              0.0000

  Exact polarizability:      31.597      -0.000       2.024      -0.000       0.000       2.024
 Approx polarizability:      37.195      -0.000       1.922       0.000      -0.000       1.922

 ******    2 imaginary frequencies (negative Signs) ******

                      1                      2                      3
                      A                      A                      A
 Frequencies --   -501.8716              -102.1580               186.8140
 Red. masses --      1.0538                 1.0578                 1.0220
 Frc consts  --      0.1564                 0.0065                 0.0210
 IR Inten    --     63.0787                 0.1973                 3.9808

                      4
                      A
 Frequencies --    186.8140
 Red. masses --      1.0220
 Frc consts  --      0.0210
 IR Inten    --      3.9808

 - Thermochemistry -
 -------------------
 Temperature   298.150 Kelvin.  Pressure   1.00000 Atm.
 Atom     1 has atomic number  1 and mass   1.00783

 Molecular mass:    21.01405 amu.
 Principal axes and moments of inertia in atomic units:
                           1         2         3
     Eigenvalues --     0.00000 157.22086 157.22086
           X            1.00000  -0.00000   0.00000
           Y            0.00000   1.00000   0.00000
           Z            0.00000   0.00000   1.00000
 This molecule is a prolate symmetric top.
 Rotational symmetry number  1.
 Rotational temperature (Kelvin)      0.55091
 Rotational constant (GHZ):          11.479019
    2 imaginary frequencies ignored.
 Zero-point vibrational energy       2234.8 (Joules/Mol)
                                    0.53413 (Kcal/Mol)
 Warning -- explicit consideration of   2 degrees of freedom as
           vibrations may cause significant error
 Vibrational temperatures:    268.78   268.78
          (Kelvin)

 Zero-point correction=                           0.000851 (Hartree/Particle)
 Thermal correction to Energy=                    0.004375
 Thermal correction to Enthalpy=                  0.005319
 Thermal correction to Gibbs Free Energy=        -0.021031
 Sum of electronic and zero-point Energies=           -100.763080
 Sum of electronic and thermal Energies=              -100.759556
 Sum of electronic and thermal Enthalpies=            -100.758611
 Sum of electronic and thermal Free Energies=         -100.784961

                     E (Thermal)             CV                S
                      KCal/Mol        Cal/Mol-Kelvin    Cal/Mol-Kelvin
 Total                    2.745              8.684             55.458
 Electronic               0.000              0.000              1.377
 Translational            0.889              2.981             35.068
 Rotational               0.592              1.987             14.494
 Vibrational              1.264              3.716              4.518
 Vibration     1          0.632              1.858              2.259
 Vibration     2          0.632              1.858              2.259

 Normal termination of Gaussian 16 at Fri Aug 22 18:27:03 2025.
