 Gaussian 16, Revision C.01,
 Gaussian 16:  ES64L-G16RevC.01  3-Jul-2019

 -----------------------------------------
 # sp b3lyp/6-311g** Force nosymm scf=(qc)
 -----------------------------------------

 -------------------
 Title Card Required
 -------------------
 Symbolic Z-matrix:
 Charge =  0 Multiplicity = 2

                          Input orientation:
 ---------------------------------------------------------------------
 Center     Atomic      Atomic             Coordinates (Angstroms)
 Number     Number       Type             X           Y           Z
 ---------------------------------------------------------------------
      1          1           0        0.000000    0.000000    0.000000
      2          1           0       -1.300000    0.000000    0.000000
      3          9           0        1.850000    0.000000    0.000000
 ---------------------------------------------------------------------

 SCF Done:  E(UB3LYP) =  -100.867728582     a.u. after   13 cycles

 Alpha  occ. eigenvalues --  -24.69973  -1.16412  -0.50082  -0.41349  -0.41349
 Alpha  occ. eigenvalues --   -0.39227
 Alpha virt. eigenvalues --   -0.06483   0.21501   0.31876   0.89544   0.92753
 Alpha virt. eigenvalues --    0.92753   1.04367   1.11977   1.11977   1.40216
 Alpha virt. eigenvalues --    1.46554   1.46554   2.00114   2.24906   2.50897

  Beta  occ. eigenvalues --  -24.67430  -1.09291  -0.39135  -0.38840  -0.38840
  Beta virt. eigenvalues --   -0.23973  -0.04312   0.23156   0.32306   0.93703
  Beta virt. eigenvalues --    0.93703   0.94766   1.07880   1.14222   1.14222
  Beta virt. eigenvalues --    1.44238   1.47719   1.47719   2.02517   2.26374

 Mulliken charges and spin densities:
               1          2
     1  H    0.091072  -0.205824
     2  H    0.063722   0.411224
     3  F   -0.154795   0.794599
 Sum of Mulliken charges =   0.00000   1.00000

 Dipole moment (field-independent basis, Debye):
    X=             -1.7927    Y=              0.0000    Z=              0.0000  Tot=              1.7927
 Quadrupole moment (field-independent basis, Debye-Ang):
   XX=             -7.4161   YY=             -7.3840   ZZ=             -7.3840
   XY=              0.0000   XZ=              0.0000   YZ=             -0.0000

  Exact polarizability:      43.823       0.000       2.202       0.000      -0.000       2.202
 Approx polarizability:      67.979      -0.000       2.170      -0.000       0.000       2.170

 ******    2 imaginary frequencies (negative Signs) ******

                      1                      2                      3
                      A                      A                      A
 Frequencies --  -2068.9504              -336.2323              1259.4706
 Red. masses --      1.0160                 1.0988                 1.0142
 Frc consts  --      2.5624                 0.0732                 0.9479
 IR Inten    --   1172.7501                 0.0777                 1.5666

                      4
                      A
 Frequencies --   1259.4706
 Red. masses --      1.0142
 Frc consts  --      0.9479
 IR Inten    --      1.5666

 - Thermochemistry -
 -------------------
 Temperature   298.150 Kelvin.  Pressure   1.00000 Atm.
 Atom     1 has atomic number  1 and mass   1.00783

 Molecular mass:    21.01405 amu.
 Principal axes and moments of inertia in atomic units:
                           1         2         3
     Eigenvalues --     0.00000  43.71360  43.71360
           X            1.00000  -0.00000   0.00000
           Y            0.00000   1.00000   0.00000
           Z            0.00000   0.00000   1.00000
 This molecule is a prolate symmetric top.
 Rotational symmetry number  1.
 Rotational temperature (Kelvin)      1.98140
 Rotational constant (GHZ):          41.285581
    2 imaginary frequencies ignored.
 Zero-point vibrational energy      15066.6 (Joules/Mol)
                                    3.60101 (Kcal/Mol)
 Vibrational temperatures:   1812.10  1812.10
          (Kelvin)

 Zero-point correction=                           0.005739 (Hartree/Particle)
 Thermal correction to Energy=                    0.008125
 Thermal correction to Enthalpy=                  0.009070
 Thermal correction to Gibbs Free Energy=        -0.013956
 Sum of electronic and zero-point Energies=           -100.861990
 Sum of electronic and thermal Energies=              -100.859603
 Sum of electronic and thermal Enthalpies=            -100.858659
 Sum of electronic and thermal Free Energies=         -100.881684

                     E (Thermal)             CV                S
                      KCal/Mol        Cal/Mol-Kelvin    Cal/Mol-Kelvin
 Total                    5.099              5.306             48.461
 Electronic               0.000              0.000              1.377
 Translational            0.889              2.981             35.068
 Rotational               0.592              1.987             11.951
 Vibrational              3.618              0.338              0.065

 Normal termination of Gaussian 16 at Fri Aug 22 16:46:04 2025.
