 Gaussian 16, Revision C.01,
 Gaussian 16:  ES64L-G16RevC.01  3-Jul-2019

 -----------------------------------------
 # sp b3lyp/6-311g** Force nosymm scf=(qc)
 -----------------------------------------

 -------------------
 Title Card Required
 -------------------
 Symbolic Z-matrix:
 Charge =  0 Multiplicity = 2

                          Input orientation:
 ---------------------------------------------------------------------
 Center     Atomic      Atomic             Coordinates (Angstroms)
 Number     Number       Type             X           Y           Z
 ---------------------------------------------------------------------
      1          1           0        0.000000    0.000000    0.000000
      2          1           0       -3.500000    0.000000    0.000000
      3          9           0        3.800000    0.000000    0.000000
 ---------------------------------------------------------------------

 SCF Done:  E(UB3LYP) =  -100.758757191     a.u. after   33 cycles

 Alpha  occ. eigenvalues --  -24.75753  -1.21689  -0.54877  -0.46076  -0.46076
 Alpha  occ. eigenvalues --   -0.32281
 Alpha virt. eigenvalues --   -0.06737   0.24364   0.37485   0.86857   0.91251
 Alpha virt. eigenvalues --    0.91251   1.01265   1.25223   1.25223   1.25374
 Alpha virt. eigenvalues --    1.45448   1.45679   1.45679   2.15079   2.41204

  Beta  occ. eigenvalues --  -24.72616  -1.12669  -0.42930  -0.42930  -0.32553
  Beta virt. eigenvalues --   -0.25669  -0.06449   0.24177   0.37955   0.92748
  Beta virt. eigenvalues --    0.92748   0.96160   1.05360   1.24922   1.24922
  Beta virt. eigenvalues --    1.25055   1.45909   1.46134   1.46134   2.15123

 Mulliken charges and spin densities:
               1          2
     1  H    0.004628  -0.992626
     2  H    0.000098   0.997860
     3  F   -0.004726   0.994766
 Sum of Mulliken charges =  -0.00000   1.00000

 Dipole moment (field-independent basis, Debye):
    X=             -0.0944    Y=             -0.0000    Z=              0.0000  Tot=              0.0944
 Quadrupole moment (field-independent basis, Debye-Ang):
   XX=             -7.0431   YY=             -7.6235   ZZ=             -7.6235
   XY=             -0.0000   XZ=              0.0000   YZ=              0.0000

  Exact polarizability:      15.463      -0.000       2.027       0.000       0.000       2.027
 Approx polarizability:      11.433      -0.000       1.936       0.000      -0.000       1.936

 ******    2 imaginary frequencies (negative Signs) ******

                      1                      2                      3
                      A                      A                      A
 Frequencies --   -205.4929               -83.9778                68.6084
 Red. masses --      1.0149                 1.1001                 1.0170
 Frc consts  --      0.0252                 0.0046                 0.0028
 IR Inten    --      2.5070                 0.8697                 0.0215

                      4
                      A
 Frequencies --     68.6084
 Red. masses --      1.0170
 Frc consts  --      0.0028
 IR Inten    --      0.0215

 - Thermochemistry -
 -------------------
 Temperature   298.150 Kelvin.  Pressure   1.00000 Atm.
 Atom     1 has atomic number  1 and mass   1.00783

 Molecular mass:    21.01405 amu.
 Principal axes and moments of inertia in atomic units:
                           1         2         3
     Eigenvalues --     0.00000 222.49395 222.49395
           X            1.00000  -0.00000   0.00000
           Y            0.00000   1.00000   0.00000
           Z            0.00000   0.00000   1.00000
 This molecule is a prolate symmetric top.
 Rotational symmetry number  1.
 Rotational temperature (Kelvin)      0.38929
 Rotational constant (GHZ):           8.111417
    2 imaginary frequencies ignored.
 Zero-point vibrational energy        820.7 (Joules/Mol)
                                    0.19616 (Kcal/Mol)
 Warning -- explicit consideration of   2 degrees of freedom as
           vibrations may cause significant error
 Vibrational temperatures:     98.71    98.71
          (Kelvin)

 Zero-point correction=                           0.000313 (Hartree/Particle)
 Thermal correction to Energy=                    0.004266
 Thermal correction to Enthalpy=                  0.005210
 Thermal correction to Gibbs Free Energy=        -0.023305
 Sum of electronic and zero-point Energies=           -100.758445
 Sum of electronic and thermal Energies=              -100.754491
 Sum of electronic and thermal Enthalpies=            -100.753547
 Sum of electronic and thermal Free Energies=         -100.782062

                     E (Thermal)             CV                S
                      KCal/Mol        Cal/Mol-Kelvin    Cal/Mol-Kelvin
 Total                    2.677              8.906             60.016
 Electronic               0.000              0.000              1.377
 Translational            0.889              2.981             35.068
 Rotational               0.592              1.987             15.184
 Vibrational              1.196              3.938              8.386
 Vibration     1          0.598              1.969              4.193
 Vibration     2          0.598              1.969              4.193

 Normal termination of Gaussian 16 at Sat Aug 23 00:52:16 2025.
