 Gaussian 16, Revision C.01,
 Gaussian 16:  ES64L-G16RevC.01  3-Jul-2019

 -----------------------------------------
 # sp b3lyp/6-311g** Force nosymm scf=(qc)
 -----------------------------------------

 -------------------
 Title Card Required
 -------------------
 Symbolic Z-matrix:
 Charge =  0 Multiplicity = 2

                          Input orientation:
 ---------------------------------------------------------------------
 Center     Atomic      Atomic             Coordinates (Angstroms)
 Number     Number       Type             X           Y           Z
 ---------------------------------------------------------------------
      1          1           0        0.000000    0.000000    0.000000
      2          1           0       -2.050000    0.000000    0.000000
      3          9           0        2.550000    0.000000    0.000000
 ---------------------------------------------------------------------

 SCF Done:  E(UB3LYP) =  -100.779232089     a.u. after   19 cycles

 Alpha  occ. eigenvalues --  -24.72155  -1.18335  -0.51263  -0.43045  -0.43045
 Alpha  occ. eigenvalues --   -0.34586
 Alpha virt. eigenvalues --   -0.12615   0.24945   0.32137   0.90158   0.93411
 Alpha virt. eigenvalues --    0.93411   1.05996   1.21480   1.23343   1.23343
 Alpha virt. eigenvalues --    1.35565   1.35565   1.47462   2.11541   2.34568

  Beta  occ. eigenvalues --  -24.69280  -1.10137  -0.40175  -0.40175  -0.35011
  Beta virt. eigenvalues --   -0.23738  -0.11408   0.26489   0.32342   0.94799
  Beta virt. eigenvalues --    0.94799   0.97443   1.09079   1.22957   1.22957
  Beta virt. eigenvalues --    1.23682   1.37533   1.37533   1.48286   2.12300

 Mulliken charges and spin densities:
               1          2
     1  H    0.053181  -0.796098
     2  H    0.025499   0.886836
     3  F   -0.078680   0.909262
 Sum of Mulliken charges =   0.00000   1.00000

 Dipole moment (field-independent basis, Debye):
    X=             -1.2732    Y=             -0.0000    Z=             -0.0000  Tot=              1.2732
 Quadrupole moment (field-independent basis, Debye-Ang):
   XX=             -8.1676   YY=             -7.6619   ZZ=             -7.6619
   XY=             -0.0000   XZ=             -0.0000   YZ=             -0.0000

  Exact polarizability:      58.258      -0.000       2.008      -0.000       0.000       2.008
 Approx polarizability:      60.643      -0.000       1.926      -0.000      -0.000       1.926

 ******    2 imaginary frequencies (negative Signs) ******

                      1                      2                      3
                      A                      A                      A
 Frequencies --  -1308.1566              -374.3403               523.5384
 Red. masses --      1.0093                 1.1068                 1.0155
 Frc consts  --      1.0176                 0.0914                 0.1640
 IR Inten    --     61.7491                47.9399                 1.5946

                      4
                      A
 Frequencies --    523.5384
 Red. masses --      1.0155
 Frc consts  --      0.1640
 IR Inten    --      1.5946

 - Thermochemistry -
 -------------------
 Temperature   298.150 Kelvin.  Pressure   1.00000 Atm.
 Atom     1 has atomic number  1 and mass   1.00783

 Molecular mass:    21.01405 amu.
 Principal axes and moments of inertia in atomic units:
                           1         2         3
     Eigenvalues --     0.00000  90.73348  90.73348
           X            1.00000  -0.00000   0.00000
           Y            0.00000   1.00000   0.00000
           Z            0.00000   0.00000   1.00000
 This molecule is a prolate symmetric top.
 Rotational symmetry number  1.
 Rotational temperature (Kelvin)      0.95460
 Rotational constant (GHZ):          19.890577
    2 imaginary frequencies ignored.
 Zero-point vibrational energy       6262.9 (Joules/Mol)
                                    1.49687 (Kcal/Mol)
 Warning -- explicit consideration of   2 degrees of freedom as
           vibrations may cause significant error
 Vibrational temperatures:    753.26   753.26
          (Kelvin)

 Zero-point correction=                           0.002385 (Hartree/Particle)
 Thermal correction to Energy=                    0.005160
 Thermal correction to Enthalpy=                  0.006105
 Thermal correction to Gibbs Free Energy=        -0.018151
 Sum of electronic and zero-point Energies=           -100.776847
 Sum of electronic and thermal Energies=              -100.774072
 Sum of electronic and thermal Enthalpies=            -100.773127
 Sum of electronic and thermal Free Energies=         -100.797383

                     E (Thermal)             CV                S
                      KCal/Mol        Cal/Mol-Kelvin    Cal/Mol-Kelvin
 Total                    3.238              7.364             51.051
 Electronic               0.000              0.000              1.377
 Translational            0.889              2.981             35.068
 Rotational               0.592              1.987             13.402
 Vibrational              1.757              2.396              1.204
 Vibration     1          0.878              1.198              0.602
 Vibration     2          0.878              1.198              0.602

 Normal termination of Gaussian 16 at Fri Aug 22 17:53:53 2025.
