 Gaussian 16, Revision C.01,
 Gaussian 16:  ES64L-G16RevC.01  3-Jul-2019

 -----------------------------------------
 # sp b3lyp/6-311g** Force nosymm scf=(qc)
 -----------------------------------------

 -------------------
 Title Card Required
 -------------------
 Symbolic Z-matrix:
 Charge =  0 Multiplicity = 2

                          Input orientation:
 ---------------------------------------------------------------------
 Center     Atomic      Atomic             Coordinates (Angstroms)
 Number     Number       Type             X           Y           Z
 ---------------------------------------------------------------------
      1          1           0        0.000000    0.000000    0.000000
      2          1           0       -3.150000    0.000000    0.000000
      3          9           0        3.450000    0.000000    0.000000
 ---------------------------------------------------------------------

 SCF Done:  E(UB3LYP) =  -100.759724723     a.u. after   35 cycles

 Alpha  occ. eigenvalues --  -24.75308  -1.21276  -0.54430  -0.45700  -0.45700
 Alpha  occ. eigenvalues --   -0.32423
 Alpha virt. eigenvalues --   -0.07762   0.24696   0.36253   0.87771   0.91529
 Alpha virt. eigenvalues --    0.91529   1.01951   1.25100   1.25100   1.25578
 Alpha virt. eigenvalues --    1.44180   1.44276   1.44276   2.15505   2.40049

  Beta  occ. eigenvalues --  -24.72199  -1.12346  -0.42585  -0.42585  -0.32919
  Beta virt. eigenvalues --   -0.25445  -0.07159   0.24475   0.37210   0.93017
  Beta virt. eigenvalues --    0.93017   0.96881   1.05948   1.24526   1.24526
  Beta virt. eigenvalues --    1.24971   1.45075   1.45246   1.45246   2.15816

 Mulliken charges and spin densities:
               1          2
     1  H    0.012548  -0.980520
     2  H    0.000497   0.994905
     3  F   -0.013045   0.985615
 Sum of Mulliken charges =  -0.00000   1.00000

 Dipole moment (field-independent basis, Debye):
    X=             -0.2389    Y=              0.0000    Z=              0.0000  Tot=              0.2389
 Quadrupole moment (field-independent basis, Debye-Ang):
   XX=             -7.4204   YY=             -7.6287   ZZ=             -7.6287
   XY=              0.0000   XZ=              0.0000   YZ=             -0.0000

  Exact polarizability:      26.479       0.000       2.031       0.000      -0.000       2.031
 Approx polarizability:      21.130       0.000       1.932       0.000       0.000       1.932

 ******    2 imaginary frequencies (negative Signs) ******

                      1                      2                      3
                      A                      A                      A
 Frequencies --   -316.7582              -129.2636               107.6374
 Red. masses --      1.0151                 1.0998                 1.0169
 Frc consts  --      0.0600                 0.0108                 0.0069
 IR Inten    --     10.1576                 3.5368                 0.1352

                      4
                      A
 Frequencies --    107.6374
 Red. masses --      1.0169
 Frc consts  --      0.0069
 IR Inten    --      0.1352

 - Thermochemistry -
 -------------------
 Temperature   298.150 Kelvin.  Pressure   1.00000 Atm.
 Atom     1 has atomic number  1 and mass   1.00783

 Molecular mass:    21.01405 amu.
 Principal axes and moments of inertia in atomic units:
                           1         2         3
     Eigenvalues --     0.00000 182.17628 182.17628
           X            1.00000  -0.00000   0.00000
           Y            0.00000   1.00000   0.00000
           Z            0.00000   0.00000   1.00000
 This molecule is a prolate symmetric top.
 Rotational symmetry number  1.
 Rotational temperature (Kelvin)      0.47544
 Rotational constant (GHZ):           9.906565
    2 imaginary frequencies ignored.
 Zero-point vibrational energy       1287.6 (Joules/Mol)
                                    0.30775 (Kcal/Mol)
 Warning -- explicit consideration of   2 degrees of freedom as
           vibrations may cause significant error
 Vibrational temperatures:    154.87   154.87
          (Kelvin)

 Zero-point correction=                           0.000490 (Hartree/Particle)
 Thermal correction to Energy=                    0.004291
 Thermal correction to Enthalpy=                  0.005235
 Thermal correction to Gibbs Free Energy=        -0.022253
 Sum of electronic and zero-point Energies=           -100.759234
 Sum of electronic and thermal Energies=              -100.755434
 Sum of electronic and thermal Enthalpies=            -100.754489
 Sum of electronic and thermal Free Energies=         -100.781978

                     E (Thermal)             CV                S
                      KCal/Mol        Cal/Mol-Kelvin    Cal/Mol-Kelvin
 Total                    2.693              8.854             57.855
 Electronic               0.000              0.000              1.377
 Translational            0.889              2.981             35.068
 Rotational               0.592              1.987             14.787
 Vibrational              1.211              3.886              6.622
 Vibration     1          0.606              1.943              3.311
 Vibration     2          0.606              1.943              3.311

 Normal termination of Gaussian 16 at Fri Aug 22 21:42:46 2025.
