 Gaussian 16, Revision C.01,
 Gaussian 16:  ES64L-G16RevC.01  3-Jul-2019

 -----------------------------------------
 # sp b3lyp/6-311g** Force nosymm scf=(qc)
 -----------------------------------------

 -------------------
 Title Card Required
 -------------------
 Symbolic Z-matrix:
 Charge =  0 Multiplicity = 2

                          Input orientation:
 ---------------------------------------------------------------------
 Center     Atomic      Atomic             Coordinates (Angstroms)
 Number     Number       Type             X           Y           Z
 ---------------------------------------------------------------------
      1          1           0        0.000000    0.000000    0.000000
      2          1           0       -2.900000    0.000000    0.000000
      3          9           0        2.500000    0.000000    0.000000
 ---------------------------------------------------------------------

 SCF Done:  E(UB3LYP) =  -100.768624810     a.u. after   23 cycles

 Alpha  occ. eigenvalues --  -24.71747  -1.17959  -0.50847  -0.42714  -0.42714
 Alpha  occ. eigenvalues --   -0.33289
 Alpha virt. eigenvalues --   -0.11046   0.24250   0.34169   0.89877   0.93615
 Alpha virt. eigenvalues --    0.93615   1.06475   1.24266   1.24266   1.25482
 Alpha virt. eigenvalues --    1.39799   1.39799   1.43939   2.15108   2.34784

  Beta  occ. eigenvalues --  -24.68905  -1.09871  -0.39881  -0.39881  -0.35353
  Beta virt. eigenvalues --   -0.23357  -0.08164   0.24913   0.36330   0.94978
  Beta virt. eigenvalues --    0.94978   0.96506   1.09016   1.22158   1.22158
  Beta virt. eigenvalues --    1.29830   1.44060   1.44060   1.44310   2.14059

 Mulliken charges and spin densities:
               1          2
     1  H    0.085744  -0.888193
     2  H    0.004107   0.990252
     3  F   -0.089851   0.897941
 Sum of Mulliken charges =   0.00000   1.00000

 Dipole moment (field-independent basis, Debye):
    X=             -1.1997    Y=              0.0000    Z=              0.0000  Tot=              1.1997
 Quadrupole moment (field-independent basis, Debye-Ang):
   XX=             -9.1104   YY=             -7.5872   ZZ=             -7.5872
   XY=              0.0000   XZ=              0.0000   YZ=             -0.0000

  Exact polarizability:      35.575       0.000       2.021       0.000      -0.000       2.021
 Approx polarizability:      41.851       0.000       1.919       0.000       0.000       1.919

 ******    2 imaginary frequencies (negative Signs) ******

                      1                      2                      3
                      A                      A                      A
 Frequencies --   -668.7211              -238.5668               263.3876
 Red. masses --      1.0408                 1.0712                 1.0198
 Frc consts  --      0.2742                 0.0359                 0.0417
 IR Inten    --     73.6973                 5.0803                 6.6203

                      4
                      A
 Frequencies --    263.3876
 Red. masses --      1.0198
 Frc consts  --      0.0417
 IR Inten    --      6.6203

 - Thermochemistry -
 -------------------
 Temperature   298.150 Kelvin.  Pressure   1.00000 Atm.
 Atom     1 has atomic number  1 and mass   1.00783

 Molecular mass:    21.01405 amu.
 Principal axes and moments of inertia in atomic units:
                           1         2         3
     Eigenvalues --     0.00000 116.66849 116.66849
           X            1.00000  -0.00000   0.00000
           Y            0.00000   1.00000   0.00000
           Z            0.00000   0.00000   1.00000
 This molecule is a prolate symmetric top.
 Rotational symmetry number  1.
 Rotational temperature (Kelvin)      0.74239
 Rotational constant (GHZ):          15.468968
    2 imaginary frequencies ignored.
 Zero-point vibrational energy       3150.8 (Joules/Mol)
                                    0.75306 (Kcal/Mol)
 Warning -- explicit consideration of   2 degrees of freedom as
           vibrations may cause significant error
 Vibrational temperatures:    378.96   378.96
          (Kelvin)

 Zero-point correction=                           0.001200 (Hartree/Particle)
 Thermal correction to Energy=                    0.004496
 Thermal correction to Enthalpy=                  0.005441
 Thermal correction to Gibbs Free Energy=        -0.020038
 Sum of electronic and zero-point Energies=           -100.767425
 Sum of electronic and thermal Energies=              -100.764128
 Sum of electronic and thermal Enthalpies=            -100.763184
 Sum of electronic and thermal Free Energies=         -100.788663

                     E (Thermal)             CV                S
                      KCal/Mol        Cal/Mol-Kelvin    Cal/Mol-Kelvin
 Total                    2.822              8.448             53.625
 Electronic               0.000              0.000              1.377
 Translational            0.889              2.981             35.068
 Rotational               0.592              1.987             13.901
 Vibrational              1.340              3.480              3.278
 Vibration     1          0.670              1.740              1.639
 Vibration     2          0.670              1.740              1.639

 Normal termination of Gaussian 16 at Fri Aug 22 17:45:40 2025.
