 Gaussian 16, Revision C.01,
 Gaussian 16:  ES64L-G16RevC.01  3-Jul-2019

 -----------------------------------------
 # sp b3lyp/6-311g** Force nosymm scf=(qc)
 -----------------------------------------

 -------------------
 Title Card Required
 -------------------
 Symbolic Z-matrix:
 Charge =  0 Multiplicity = 2

                          Input orientation:
 ---------------------------------------------------------------------
 Center     Atomic      Atomic             Coordinates (Angstroms)
 Number     Number       Type             X           Y           Z
 ---------------------------------------------------------------------
      1          1           0        0.000000    0.000000    0.000000
      2          1           0       -1.350000    0.000000    0.000000
      3          9           0        1.500000    0.000000    0.000000
 ---------------------------------------------------------------------

 SCF Done:  E(UB3LYP) =  -100.888259659     a.u. after   14 cycles

 Alpha  occ. eigenvalues --  -24.65909  -1.12792  -0.48732  -0.39001  -0.38142
 Alpha  occ. eigenvalues --   -0.38142
 Alpha virt. eigenvalues --   -0.04377   0.20416   0.29901   0.92635   0.92635
 Alpha virt. eigenvalues --    0.98914   1.04165   1.12449   1.12449   1.45222
 Alpha virt. eigenvalues --    1.45222   1.51848   1.95310   2.21539   2.47059

  Beta  occ. eigenvalues --  -24.64211  -1.08216  -0.41930  -0.36510  -0.36510
  Beta virt. eigenvalues --   -0.22470  -0.01132   0.23186   0.31175   0.92958
  Beta virt. eigenvalues --    0.92958   1.04111   1.07199   1.17715   1.17715
  Beta virt. eigenvalues --    1.47139   1.47139   1.56181   1.99512   2.25519

 Mulliken charges and spin densities:
               1          2
     1  H    0.216874  -0.192189
     2  H    0.071549   0.669012
     3  F   -0.288423   0.523177
 Sum of Mulliken charges =   0.00000   1.00000

 Dipole moment (field-independent basis, Debye):
    X=             -2.5876    Y=              0.0000    Z=             -0.0000  Tot=              2.5876
 Quadrupole moment (field-independent basis, Debye-Ang):
   XX=             -7.9576   YY=             -7.1931   ZZ=             -7.1931
   XY=              0.0000   XZ=             -0.0000   YZ=             -0.0000

  Exact polarizability:      34.796      -0.000       2.332       0.000      -0.000       2.332
 Approx polarizability:      52.268      -0.000       2.284       0.000       0.000       2.284

 ******    2 imaginary frequencies (negative Signs) ******

                      1                      2                      3
                      A                      A                      A
 Frequencies --  -2681.8114              -253.8055              1140.8584
 Red. masses --      1.0222                 1.0916                 1.0167
 Frc consts  --      4.3316                 0.0414                 0.7797
 IR Inten    --    620.5600                12.4986                18.4867

                      4
                      A
 Frequencies --   1140.8584
 Red. masses --      1.0167
 Frc consts  --      0.7797
 IR Inten    --     18.4867

 - Thermochemistry -
 -------------------
 Temperature   298.150 Kelvin.  Pressure   1.00000 Atm.
 Atom     1 has atomic number  1 and mass   1.00783

 Molecular mass:    21.01405 amu.
 Principal axes and moments of inertia in atomic units:
                           1         2         3
     Eigenvalues --     0.00000  34.06456  34.06456
           X            1.00000  -0.00000   0.00000
           Y            0.00000   1.00000   0.00000
           Z            0.00000   0.00000   1.00000
 This molecule is a prolate symmetric top.
 Rotational symmetry number  1.
 Rotational temperature (Kelvin)      2.54264
 Rotational constant (GHZ):          52.980021
    2 imaginary frequencies ignored.
 Zero-point vibrational energy      13647.7 (Joules/Mol)
                                    3.26188 (Kcal/Mol)
 Vibrational temperatures:   1641.44  1641.44
          (Kelvin)

 Zero-point correction=                           0.005198 (Hartree/Particle)
 Thermal correction to Energy=                    0.007601
 Thermal correction to Enthalpy=                  0.008545
 Thermal correction to Gibbs Free Energy=        -0.014264
 Sum of electronic and zero-point Energies=           -100.883062
 Sum of electronic and thermal Energies=              -100.880659
 Sum of electronic and thermal Enthalpies=            -100.879714
 Sum of electronic and thermal Free Energies=         -100.902524

                     E (Thermal)             CV                S
                      KCal/Mol        Cal/Mol-Kelvin    Cal/Mol-Kelvin
 Total                    4.770              5.462             48.006
 Electronic               0.000              0.000              1.377
 Translational            0.889              2.981             35.068
 Rotational               0.592              1.987             11.455
 Vibrational              3.289              0.494              0.105

 Normal termination of Gaussian 16 at Fri Aug 22 16:24:55 2025.
