 Gaussian 16, Revision C.01,
 Gaussian 16:  ES64L-G16RevC.01  3-Jul-2019

 -----------------------------------------
 # sp b3lyp/6-311g** Force nosymm scf=(qc)
 -----------------------------------------

 -------------------
 Title Card Required
 -------------------
 Symbolic Z-matrix:
 Charge =  0 Multiplicity = 2

                          Input orientation:
 ---------------------------------------------------------------------
 Center     Atomic      Atomic             Coordinates (Angstroms)
 Number     Number       Type             X           Y           Z
 ---------------------------------------------------------------------
      1          1           0        0.000000    0.000000    0.000000
      2          1           0       -0.750000    0.000000    0.000000
      3          9           0        2.250000    0.000000    0.000000
 ---------------------------------------------------------------------

 SCF Done:  E(UB3LYP) =  -100.934133192     a.u. after    5 cycles

 Alpha  occ. eigenvalues --  -24.75657  -1.21616  -0.55083  -0.46015  -0.46015
 Alpha  occ. eigenvalues --   -0.44137
 Alpha virt. eigenvalues --    0.06528   0.20182   0.46593   0.90004   0.90950
 Alpha virt. eigenvalues --    0.90950   1.07542   1.07542   1.13769   1.56516
 Alpha virt. eigenvalues --    1.81372   1.81372   1.96374   2.39335   3.27037

  Beta  occ. eigenvalues --  -24.72562  -1.12747  -0.44191  -0.42919  -0.42919
  Beta virt. eigenvalues --   -0.26024   0.07142   0.20600   0.46849   0.92394
  Beta virt. eigenvalues --    0.92394   0.98259   1.07847   1.07847   1.17798
  Beta virt. eigenvalues --    1.57145   1.81536   1.81536   1.96637   2.39681

 Mulliken charges and spin densities:
               1          2
     1  H   -0.010695  -0.014823
     2  H    0.023353   0.038636
     3  F   -0.012658   0.976186
 Sum of Mulliken charges =   0.00000   1.00000

 Dipole moment (field-independent basis, Debye):
    X=             -0.2228    Y=             -0.0000    Z=             -0.0000  Tot=              0.2228
 Quadrupole moment (field-independent basis, Debye-Ang):
   XX=             -5.7498   YY=             -6.9357   ZZ=             -6.9357
   XY=              0.0000   XZ=             -0.0000   YZ=              0.0000

  Exact polarizability:      14.896      -0.000       1.991       0.000       0.000       1.991
 Approx polarizability:      16.015       0.000       2.095       0.000      -0.000       2.095

 ******    1 imaginary frequencies (negative Signs) ******

                      1                      2                      3
                      A                      A                      A
 Frequencies --   -150.5747               737.1330               737.1330
 Red. masses --      1.1085                 1.0098                 1.0098
 Frc consts  --      0.0148                 0.3233                 0.3233
 IR Inten    --      9.6165                 1.9510                 1.9510

                      4
                      A
 Frequencies --   4299.6559
 Red. masses --      1.0078
 Frc consts  --     10.9775
 IR Inten    --     94.3208

 - Thermochemistry -
 -------------------
 Temperature   298.150 Kelvin.  Pressure   1.00000 Atm.
 Atom     1 has atomic number  1 and mass   1.00783

 Molecular mass:    21.01405 amu.
 Principal axes and moments of inertia in atomic units:
                           1         2         3
     Eigenvalues --     0.00000  45.85358  45.85358
           X            1.00000  -0.00000   0.00000
           Y            0.00000   1.00000   0.00000
           Z            0.00000   0.00000   1.00000
 This molecule is a prolate symmetric top.
 Rotational symmetry number  1.
 Rotational temperature (Kelvin)      1.88892
 Rotational constant (GHZ):          39.358786
    1 imaginary frequencies ignored.
 Zero-point vibrational energy      34535.7 (Joules/Mol)
                                    8.25424 (Kcal/Mol)
 Vibrational temperatures:   1060.57  1060.57  6186.25
          (Kelvin)

 Zero-point correction=                           0.013154 (Hartree/Particle)
 Thermal correction to Energy=                    0.015712
 Thermal correction to Enthalpy=                  0.016656
 Thermal correction to Gibbs Free Energy=        -0.006636
 Sum of electronic and zero-point Energies=           -100.920979
 Sum of electronic and thermal Energies=              -100.918422
 Sum of electronic and thermal Enthalpies=            -100.917477
 Sum of electronic and thermal Free Energies=         -100.940769

                     E (Thermal)             CV                S
                      KCal/Mol        Cal/Mol-Kelvin    Cal/Mol-Kelvin
 Total                    9.859              6.488             49.021
 Electronic               0.000              0.000              1.377
 Translational            0.889              2.981             35.068
 Rotational               0.592              1.987             12.046
 Vibrational              8.378              1.520              0.530

 Normal termination of Gaussian 16 at Fri Aug 22 17:15:17 2025.
