 Gaussian 16, Revision C.01,
 Gaussian 16:  ES64L-G16RevC.01  3-Jul-2019

 -----------------------------------------
 # sp b3lyp/6-311g** Force nosymm scf=(qc)
 -----------------------------------------

 -------------------
 Title Card Required
 -------------------
 Symbolic Z-matrix:
 Charge =  0 Multiplicity = 2

                          Input orientation:
 ---------------------------------------------------------------------
 Center     Atomic      Atomic             Coordinates (Angstroms)
 Number     Number       Type             X           Y           Z
 ---------------------------------------------------------------------
      1          1           0        0.000000    0.000000    0.000000
      2          1           0       -0.900000    0.000000    0.000000
      3          9           0        1.400000    0.000000    0.000000
 ---------------------------------------------------------------------

 SCF Done:  E(UB3LYP) =  -100.937178626     a.u. after    7 cycles

 Alpha  occ. eigenvalues --  -24.68806  -1.16361  -0.54892  -0.40958  -0.40958
 Alpha  occ. eigenvalues --   -0.40508
 Alpha virt. eigenvalues --    0.06818   0.19656   0.38080   0.89059   0.89059
 Alpha virt. eigenvalues --    0.98134   1.07633   1.07633   1.28513   1.65742
 Alpha virt. eigenvalues --    1.69970   1.69970   2.18342   2.35208   2.60149

  Beta  occ. eigenvalues --  -24.66564  -1.10319  -0.46482  -0.38807  -0.38807
  Beta virt. eigenvalues --   -0.22786   0.08912   0.21047   0.40892   0.90176
  Beta virt. eigenvalues --    0.90176   1.03324   1.10897   1.10897   1.32422
  Beta virt. eigenvalues --    1.69401   1.72025   1.72025   2.19845   2.39681

 Mulliken charges and spin densities:
               1          2
     1  H    0.182658  -0.072163
     2  H    0.034258   0.402029
     3  F   -0.216916   0.670134
 Sum of Mulliken charges =  -0.00000   1.00000

 Dipole moment (field-independent basis, Debye):
    X=             -1.6732    Y=             -0.0000    Z=             -0.0000  Tot=              1.6732
 Quadrupole moment (field-independent basis, Debye-Ang):
   XX=             -7.3025   YY=             -6.8798   ZZ=             -6.8798
   XY=             -0.0000   XZ=             -0.0000   YZ=              0.0000

  Exact polarizability:      23.646      -0.000       2.406       0.000      -0.000       2.406
 Approx polarizability:      32.892      -0.000       2.415       0.000      -0.000       2.415

 ******    1 imaginary frequencies (negative Signs) ******

                      1                      2                      3
                      A                      A                      A
 Frequencies --  -1300.6529              1005.5819              1005.5819
 Red. masses --      1.0815                 1.0135                 1.0135
 Frc consts  --      1.0779                 0.6038                 0.6038
 IR Inten    --    450.7665                 5.4846                 5.4846

                      4
                      A
 Frequencies --   1829.5220
 Red. masses --      1.0313
 Frc consts  --      2.0338
 IR Inten    --    470.3765

 - Thermochemistry -
 -------------------
 Temperature   298.150 Kelvin.  Pressure   1.00000 Atm.
 Atom     1 has atomic number  1 and mass   1.00783

 Molecular mass:    21.01405 amu.
 Principal axes and moments of inertia in atomic units:
                           1         2         3
     Eigenvalues --     0.00000  23.72982  23.72982
           X            1.00000  -0.00000   0.00000
           Y            0.00000   1.00000   0.00000
           Z            0.00000   0.00000   1.00000
 This molecule is a prolate symmetric top.
 Rotational symmetry number  1.
 Rotational temperature (Kelvin)      3.65000
 Rotational constant (GHZ):          76.053715
    1 imaginary frequencies ignored.
 Zero-point vibrational energy      22972.4 (Joules/Mol)
                                    5.49054 (Kcal/Mol)
 Vibrational temperatures:   1446.81  1446.81  2632.27
          (Kelvin)

 Zero-point correction=                           0.008750 (Hartree/Particle)
 Thermal correction to Energy=                    0.011184
 Thermal correction to Enthalpy=                  0.012128
 Thermal correction to Gibbs Free Energy=        -0.010378
 Sum of electronic and zero-point Energies=           -100.928429
 Sum of electronic and thermal Energies=              -100.925995
 Sum of electronic and thermal Enthalpies=            -100.925051
 Sum of electronic and thermal Free Energies=         -100.947557

                     E (Thermal)             CV                S
                      KCal/Mol        Cal/Mol-Kelvin    Cal/Mol-Kelvin
 Total                    7.018              5.733             47.368
 Electronic               0.000              0.000              1.377
 Translational            0.889              2.981             35.068
 Rotational               0.592              1.987             10.737
 Vibrational              5.537              0.765              0.186

 Normal termination of Gaussian 16 at Fri Aug 22 16:19:16 2025.
