 Gaussian 16, Revision C.01,
 Gaussian 16:  ES64L-G16RevC.01  3-Jul-2019

 -----------------------------------------
 # sp b3lyp/6-311g** Force nosymm scf=(qc)
 -----------------------------------------

 -------------------
 Title Card Required
 -------------------
 Symbolic Z-matrix:
 Charge =  0 Multiplicity = 2

                          Input orientation:
 ---------------------------------------------------------------------
 Center     Atomic      Atomic             Coordinates (Angstroms)
 Number     Number       Type             X           Y           Z
 ---------------------------------------------------------------------
      1          1           0        0.000000    0.000000    0.000000
      2          1           0       -3.050000    0.000000    0.000000
      3          9           0        3.550000    0.000000    0.000000
 ---------------------------------------------------------------------

 SCF Done:  E(UB3LYP) =  -100.759768487     a.u. after   33 cycles

 Alpha  occ. eigenvalues --  -24.75479  -1.21435  -0.54602  -0.45845  -0.45845
 Alpha  occ. eigenvalues --   -0.32416
 Alpha virt. eigenvalues --   -0.07870   0.24890   0.36155   0.87458   0.91422
 Alpha virt. eigenvalues --    0.91422   1.01688   1.25116   1.25116   1.25744
 Alpha virt. eigenvalues --    1.44060   1.44131   1.44131   2.15671   2.39707

  Beta  occ. eigenvalues --  -24.72360  -1.12470  -0.42718  -0.42718  -0.32812
  Beta virt. eigenvalues --   -0.25534  -0.07378   0.24671   0.36930   0.92913
  Beta virt. eigenvalues --    0.92913   0.96638   1.05725   1.24659   1.24659
  Beta virt. eigenvalues --    1.25253   1.44825   1.44914   1.44914   2.15932

 Mulliken charges and spin densities:
               1          2
     1  H    0.009319  -0.982472
     2  H    0.000528   0.993369
     3  F   -0.009847   0.989103
 Sum of Mulliken charges =   0.00000   1.00000

 Dipole moment (field-independent basis, Debye):
    X=             -0.1875    Y=              0.0000    Z=              0.0000  Tot=              0.1875
 Quadrupole moment (field-independent basis, Debye-Ang):
   XX=             -7.2558   YY=             -7.6330   ZZ=             -7.6330
   XY=             -0.0000   XZ=              0.0000   YZ=              0.0000

  Exact polarizability:      24.473      -0.000       2.034       0.000      -0.000       2.034
 Approx polarizability:      18.765      -0.000       1.932       0.000      -0.000       1.932

 ******    2 imaginary frequencies (negative Signs) ******

                      1                      2                      3
                      A                      A                      A
 Frequencies --   -338.8100              -124.3544               114.4040
 Red. masses --      1.0111                 1.1045                 1.0162
 Frc consts  --      0.0684                 0.0101                 0.0078
 IR Inten    --      6.4364                 3.3936                 0.0695

                      4
                      A
 Frequencies --    114.4040
 Red. masses --      1.0162
 Frc consts  --      0.0078
 IR Inten    --      0.0695

 - Thermochemistry -
 -------------------
 Temperature   298.150 Kelvin.  Pressure   1.00000 Atm.
 Atom     1 has atomic number  1 and mass   1.00783

 Molecular mass:    21.01405 amu.
 Principal axes and moments of inertia in atomic units:
                           1         2         3
     Eigenvalues --     0.00000 184.34692 184.34692
           X            1.00000  -0.00000   0.00000
           Y            0.00000   1.00000   0.00000
           Z            0.00000   0.00000   1.00000
 This molecule is a prolate symmetric top.
 Rotational symmetry number  1.
 Rotational temperature (Kelvin)      0.46984
 Rotational constant (GHZ):           9.789918
    2 imaginary frequencies ignored.
 Zero-point vibrational energy       1368.6 (Joules/Mol)
                                    0.32710 (Kcal/Mol)
 Warning -- explicit consideration of   2 degrees of freedom as
           vibrations may cause significant error
 Vibrational temperatures:    164.60   164.60
          (Kelvin)

 Zero-point correction=                           0.000521 (Hartree/Particle)
 Thermal correction to Energy=                    0.004297
 Thermal correction to Enthalpy=                  0.005241
 Thermal correction to Gibbs Free Energy=        -0.022147
 Sum of electronic and zero-point Energies=           -100.759247
 Sum of electronic and thermal Energies=              -100.755472
 Sum of electronic and thermal Enthalpies=            -100.754528
 Sum of electronic and thermal Free Energies=         -100.781915

                     E (Thermal)             CV                S
                      KCal/Mol        Cal/Mol-Kelvin    Cal/Mol-Kelvin
 Total                    2.696              8.843             57.642
 Electronic               0.000              0.000              1.377
 Translational            0.889              2.981             35.068
 Rotational               0.592              1.987             14.811
 Vibrational              1.215              3.875              6.386
 Vibration     1          0.607              1.937              3.193
 Vibration     2          0.607              1.937              3.193

 Normal termination of Gaussian 16 at Fri Aug 22 22:40:43 2025.
