 Gaussian 16, Revision C.01,
 Gaussian 16:  ES64L-G16RevC.01  3-Jul-2019

 -----------------------------------------
 # sp b3lyp/6-311g** Force nosymm scf=(qc)
 -----------------------------------------

 -------------------
 Title Card Required
 -------------------
 Symbolic Z-matrix:
 Charge =  0 Multiplicity = 2

                          Input orientation:
 ---------------------------------------------------------------------
 Center     Atomic      Atomic             Coordinates (Angstroms)
 Number     Number       Type             X           Y           Z
 ---------------------------------------------------------------------
      1          1           0        0.000000    0.000000    0.000000
      2          1           0       -2.900000    0.000000    0.000000
      3          9           0        3.750000    0.000000    0.000000
 ---------------------------------------------------------------------

 SCF Done:  E(UB3LYP) =  -100.759997143     a.u. after   29 cycles

 Alpha  occ. eigenvalues --  -24.75726  -1.21664  -0.54850  -0.46054  -0.46054
 Alpha  occ. eigenvalues --   -0.32405
 Alpha virt. eigenvalues --   -0.08067   0.25192   0.35982   0.86953   0.91267
 Alpha virt. eigenvalues --    0.91267   1.01318   1.25143   1.25143   1.26048
 Alpha virt. eigenvalues --    1.43822   1.43822   1.43942   2.15902   2.39149

  Beta  occ. eigenvalues --  -24.72591  -1.12651  -0.42911  -0.42911  -0.32660
  Beta virt. eigenvalues --   -0.25661  -0.07742   0.24999   0.36461   0.92762
  Beta virt. eigenvalues --    0.92762   0.96244   1.05410   1.24857   1.24857
  Beta virt. eigenvalues --    1.25733   1.44322   1.44322   1.44441   2.16048

 Mulliken charges and spin densities:
               1          2
     1  H    0.004807  -0.984129
     2  H    0.000517   0.990072
     3  F   -0.005324   0.994057
 Sum of Mulliken charges =   0.00000   1.00000

 Dipole moment (field-independent basis, Debye):
    X=             -0.1100    Y=              0.0000    Z=              0.0000  Tot=              0.1100
 Quadrupole moment (field-independent basis, Debye-Ang):
   XX=             -6.9926   YY=             -7.6402   ZZ=             -7.6402
   XY=              0.0000   XZ=             -0.0000   YZ=             -0.0000

  Exact polarizability:      19.990       0.000       2.026       0.000      -0.000       2.026
 Approx polarizability:      14.769       0.000       1.933      -0.000       0.000       1.933

 ******    2 imaginary frequencies (negative Signs) ******

                      1                      2                      3
                      A                      A                      A
 Frequencies --   -387.7055              -100.6129               137.8246
 Red. masses --      1.0084                 1.1079                 1.0151
 Frc consts  --      0.0893                 0.0066                 0.0114
 IR Inten    --      2.2726                 1.9334                 0.0201

                      4
                      A
 Frequencies --    137.8246
 Red. masses --      1.0151
 Frc consts  --      0.0114
 IR Inten    --      0.0201

 - Thermochemistry -
 -------------------
 Temperature   298.150 Kelvin.  Pressure   1.00000 Atm.
 Atom     1 has atomic number  1 and mass   1.00783

 Molecular mass:    21.01405 amu.
 Principal axes and moments of inertia in atomic units:
                           1         2         3
     Eigenvalues --     0.00000 191.09905 191.09905
           X            1.00000  -0.00000   0.00000
           Y            0.00000   1.00000   0.00000
           Z            0.00000   0.00000   1.00000
 This molecule is a prolate symmetric top.
 Rotational symmetry number  1.
 Rotational temperature (Kelvin)      0.45324
 Rotational constant (GHZ):           9.444009
    2 imaginary frequencies ignored.
 Zero-point vibrational energy       1648.7 (Joules/Mol)
                                    0.39406 (Kcal/Mol)
 Warning -- explicit consideration of   2 degrees of freedom as
           vibrations may cause significant error
 Vibrational temperatures:    198.30   198.30
          (Kelvin)

 Zero-point correction=                           0.000628 (Hartree/Particle)
 Thermal correction to Energy=                    0.004318
 Thermal correction to Enthalpy=                  0.005262
 Thermal correction to Gibbs Free Energy=        -0.021818
 Sum of electronic and zero-point Energies=           -100.759369
 Sum of electronic and thermal Energies=              -100.755679
 Sum of electronic and thermal Enthalpies=            -100.754735
 Sum of electronic and thermal Free Energies=         -100.781815

                     E (Thermal)             CV                S
                      KCal/Mol        Cal/Mol-Kelvin    Cal/Mol-Kelvin
 Total                    2.710              8.799             56.995
 Electronic               0.000              0.000              1.377
 Translational            0.889              2.981             35.068
 Rotational               0.592              1.987             14.882
 Vibrational              1.228              3.831              5.668
 Vibration     1          0.614              1.916              2.834
 Vibration     2          0.614              1.916              2.834

 Normal termination of Gaussian 16 at Sat Aug 23 00:26:47 2025.
