 Gaussian 16, Revision C.01,
 Gaussian 16:  ES64L-G16RevC.01  3-Jul-2019

 -----------------------------------------
 # sp b3lyp/6-311g** Force nosymm scf=(qc)
 -----------------------------------------

 -------------------
 Title Card Required
 -------------------
 Symbolic Z-matrix:
 Charge =  0 Multiplicity = 2

                          Input orientation:
 ---------------------------------------------------------------------
 Center     Atomic      Atomic             Coordinates (Angstroms)
 Number     Number       Type             X           Y           Z
 ---------------------------------------------------------------------
      1          1           0        0.000000    0.000000    0.000000
      2          1           0       -3.950000    0.000000    0.000000
      3          9           0        2.400000    0.000000    0.000000
 ---------------------------------------------------------------------

 SCF Done:  E(UB3LYP) =  -100.769435327     a.u. after   16 cycles

 Alpha  occ. eigenvalues --  -24.68316  -1.09455  -0.39407  -0.39407  -0.35789
 Alpha  occ. eigenvalues --   -0.32777
 Alpha virt. eigenvalues --   -0.22911   0.21161   0.27398   0.94361   0.95246
 Alpha virt. eigenvalues --    0.95246   1.08330   1.21813   1.21813   1.24692
 Alpha virt. eigenvalues --    1.24698   1.24698   1.33056   2.10279   2.16171

  Beta  occ. eigenvalues --  -24.71097  -1.17349  -0.50188  -0.42174  -0.42174
  Beta virt. eigenvalues --   -0.11095  -0.04316   0.32397   0.40220   0.89173
  Beta virt. eigenvalues --    0.93942   0.93942   1.06207   1.39562   1.39562
  Beta virt. eigenvalues --    1.46127   1.48358   1.48358   1.48430   2.34861

 Mulliken charges and spin densities:
               1          2
     1  H    0.106559   0.877939
     2  H    0.000276   0.999729
     3  F   -0.106835  -0.877668
 Sum of Mulliken charges =   0.00000   1.00000

 Dipole moment (field-independent basis, Debye):
    X=             -1.3035    Y=             -0.0000    Z=             -0.0000  Tot=              1.3035
 Quadrupole moment (field-independent basis, Debye-Ang):
   XX=             -9.5648   YY=             -7.5488   ZZ=             -7.5488
   XY=             -0.0000   XZ=             -0.0000   YZ=             -0.0000

  Exact polarizability:      29.202      -0.000       2.030      -0.000       0.000       2.030
 Approx polarizability:      38.824      -0.000       1.922      -0.000       0.000       1.922

 ******    1 imaginary frequencies (negative Signs) ******

                      1                      2                      3
                      A                      A                      A
 Frequencies --   -674.4449                47.7168               272.5273
 Red. masses --      1.0590                 1.0526                 1.0249
 Frc consts  --      0.2838                 0.0014                 0.0449
 IR Inten    --     87.5458                 0.0116                11.0988

                      4
                      A
 Frequencies --    272.5273
 Red. masses --      1.0249
 Frc consts  --      0.0449
 IR Inten    --     11.0988

 - Thermochemistry -
 -------------------
 Temperature   298.150 Kelvin.  Pressure   1.00000 Atm.
 Atom     1 has atomic number  1 and mass   1.00783

 Molecular mass:    21.01405 amu.
 Principal axes and moments of inertia in atomic units:
                           1         2         3
     Eigenvalues --     0.00000 152.63609 152.63609
           X            1.00000  -0.00000   0.00000
           Y            0.00000   1.00000   0.00000
           Z            0.00000   0.00000   1.00000
 This molecule is a prolate symmetric top.
 Rotational symmetry number  1.
 Rotational temperature (Kelvin)      0.56745
 Rotational constant (GHZ):          11.823817
    1 imaginary frequencies ignored.
 Zero-point vibrational energy       3545.6 (Joules/Mol)
                                    0.84741 (Kcal/Mol)
 Warning -- explicit consideration of   3 degrees of freedom as
           vibrations may cause significant error
 Vibrational temperatures:     68.65   392.11   392.11
          (Kelvin)

 Zero-point correction=                           0.001350 (Hartree/Particle)
 Thermal correction to Energy=                    0.005462
 Thermal correction to Enthalpy=                  0.006406
 Thermal correction to Gibbs Free Energy=        -0.021603
 Sum of electronic and zero-point Energies=           -100.768085
 Sum of electronic and thermal Energies=              -100.763974
 Sum of electronic and thermal Enthalpies=            -100.763029
 Sum of electronic and thermal Free Energies=         -100.791039

                     E (Thermal)             CV                S
                      KCal/Mol        Cal/Mol-Kelvin    Cal/Mol-Kelvin
 Total                    3.427             10.394             58.951
 Electronic               0.000              0.000              1.377
 Translational            0.889              2.981             35.068
 Rotational               0.592              1.987             14.435
 Vibrational              1.946              5.426              8.070
 Vibration     1          0.595              1.978              4.910
 Vibration     2          0.676              1.724              1.580
 Vibration     3          0.676              1.724              1.580

 Normal termination of Gaussian 16 at Fri Aug 22 17:33:57 2025.
