 Gaussian 16, Revision C.01,
 Gaussian 16:  ES64L-G16RevC.01  3-Jul-2019

 -----------------------------------------
 # sp b3lyp/6-311g** Force nosymm scf=(qc)
 -----------------------------------------

 -------------------
 Title Card Required
 -------------------
 Symbolic Z-matrix:
 Charge =  0 Multiplicity = 2

                          Input orientation:
 ---------------------------------------------------------------------
 Center     Atomic      Atomic             Coordinates (Angstroms)
 Number     Number       Type             X           Y           Z
 ---------------------------------------------------------------------
      1          1           0        0.000000    0.000000    0.000000
      2          1           0       -3.600000    0.000000    0.000000
      3          9           0        1.000000    0.000000    0.000000
 ---------------------------------------------------------------------

 SCF Done:  E(UB3LYP) =  -100.966137037     a.u. after    6 cycles

 Alpha  occ. eigenvalues --  -24.64189  -1.16063  -0.51658  -0.38808  -0.38808
 Alpha  occ. eigenvalues --   -0.33620
 Alpha virt. eigenvalues --    0.00565   0.23755   0.34635   0.94033   0.94033
 Alpha virt. eigenvalues --    0.98567   1.23791   1.23893   1.23893   1.29323
 Alpha virt. eigenvalues --    1.35919   1.35919   1.90076   2.14120   2.33842

  Beta  occ. eigenvalues --  -24.64188  -1.16059  -0.51654  -0.38807  -0.38807
  Beta virt. eigenvalues --   -0.05681   0.01109   0.33333   0.39581   0.94033
  Beta virt. eigenvalues --    0.94033   0.98569   1.29199   1.35918   1.35918
  Beta virt. eigenvalues --    1.50053   1.50366   1.50366   1.90114   2.33602

 Mulliken charges and spin densities:
               1          2
     1  H    0.319985   0.000442
     2  H    0.000804   0.999073
     3  F   -0.320788   0.000485
 Sum of Mulliken charges =   0.00000   1.00000

 Dipole moment (field-independent basis, Debye):
    X=             -2.0344    Y=              0.0000    Z=              0.0000  Tot=              2.0344
 Quadrupole moment (field-independent basis, Debye-Ang):
   XX=             -8.2355   YY=             -6.9621   ZZ=             -6.9621
   XY=              0.0000   XZ=              0.0000   YZ=              0.0000

  Exact polarizability:       6.603       0.000       2.398       0.000      -0.000       2.398
 Approx polarizability:       8.132       0.000       2.370      -0.000      -0.000       2.370

 ******    1 imaginary frequencies (negative Signs) ******

                      1                      2                      3
                      A                      A                      A
 Frequencies --    -44.3885               984.7786               984.7786
 Red. masses --      1.0532                 1.0374                 1.0374
 Frc consts  --      0.0012                 0.5927                 0.5927
 IR Inten    --      0.0392               169.4034               169.4034

                      4
                      A
 Frequencies --   3026.9923
 Red. masses --      1.0583
 Frc consts  --      5.7134
 IR Inten    --     88.6051

 - Thermochemistry -
 -------------------
 Temperature   298.150 Kelvin.  Pressure   1.00000 Atm.
 Atom     1 has atomic number  1 and mass   1.00783

 Molecular mass:    21.01405 amu.
 Principal axes and moments of inertia in atomic units:
                           1         2         3
     Eigenvalues --     0.00000  74.34108  74.34108
           X            1.00000  -0.00000   0.00000
           Y            0.00000   1.00000   0.00000
           Z            0.00000   0.00000   1.00000
 This molecule is a prolate symmetric top.
 Rotational symmetry number  1.
 Rotational temperature (Kelvin)      1.16509
 Rotational constant (GHZ):          24.276501
    1 imaginary frequencies ignored.
 Zero-point vibrational energy      29886.0 (Joules/Mol)
                                    7.14293 (Kcal/Mol)
 Vibrational temperatures:   1416.88  1416.88  4355.17
          (Kelvin)

 Zero-point correction=                           0.011383 (Hartree/Particle)
 Thermal correction to Energy=                    0.013822
 Thermal correction to Enthalpy=                  0.014766
 Thermal correction to Gibbs Free Energy=        -0.008825
 Sum of electronic and zero-point Energies=           -100.954754
 Sum of electronic and thermal Energies=              -100.952315
 Sum of electronic and thermal Enthalpies=            -100.951371
 Sum of electronic and thermal Free Energies=         -100.974962

                     E (Thermal)             CV                S
                      KCal/Mol        Cal/Mol-Kelvin    Cal/Mol-Kelvin
 Total                    8.673              5.757             49.650
 Electronic               0.000              0.000              1.377
 Translational            0.889              2.981             35.068
 Rotational               0.592              1.987             13.006
 Vibrational              7.192              0.789              0.199

 Normal termination of Gaussian 16 at Fri Aug 22 16:01:35 2025.
