 Gaussian 16, Revision C.01,
 Gaussian 16:  ES64L-G16RevC.01  3-Jul-2019

 -----------------------------------------
 # sp b3lyp/6-311g** Force nosymm scf=(qc)
 -----------------------------------------

 -------------------
 Title Card Required
 -------------------
 Symbolic Z-matrix:
 Charge =  0 Multiplicity = 2

                          Input orientation:
 ---------------------------------------------------------------------
 Center     Atomic      Atomic             Coordinates (Angstroms)
 Number     Number       Type             X           Y           Z
 ---------------------------------------------------------------------
      1          1           0        0.000000    0.000000    0.000000
      2          1           0       -0.600000    0.000000    0.000000
      3          9           0        3.350000    0.000000    0.000000
 ---------------------------------------------------------------------

 SCF Done:  E(UB3LYP) =  -100.914910260     a.u. after   57 cycles

 Alpha  occ. eigenvalues --  -24.76412  -1.22247  -0.55446  -0.46824  -0.46598
 Alpha  occ. eigenvalues --   -0.46349
 Alpha virt. eigenvalues --    0.08534   0.18922   0.51726   0.85984   0.90858
 Alpha virt. eigenvalues --    0.93564   1.03351   1.10263   1.10267   1.60889
 Alpha virt. eigenvalues --    1.82902   1.92809   1.92814   2.37233   3.64789

  Beta  occ. eigenvalues --  -24.73252  -1.13165  -0.46553  -0.43450  -0.43431
  Beta virt. eigenvalues --   -0.26078   0.08566   0.18939   0.51818   0.92358
  Beta virt. eigenvalues --    0.95206   0.95445   1.07212   1.10262   1.10267
  Beta virt. eigenvalues --    1.60901   1.82939   1.92809   1.92814   2.37235

 Mulliken charges and spin densities:
               1          2
     1  H   -0.004369  -0.000873
     2  H   -0.001688   0.000138
     3  F    0.006057   1.000735
 Sum of Mulliken charges =   0.00000   1.00000

 Dipole moment (field-independent basis, Debye):
    X=              0.0617    Y=             -0.0000    Z=              0.0000  Tot=              0.0617
 Quadrupole moment (field-independent basis, Debye-Ang):
   XX=             -6.0893   YY=             -6.3097   ZZ=             -6.3100
   XY=             -0.0000   XZ=              0.0000   YZ=              0.4320

  Exact polarizability:       6.599      -0.000       2.101      -0.000       0.232       2.100
 Approx polarizability:       7.148      -0.000       2.241      -0.000       0.290       2.241

 ******    2 imaginary frequencies (negative Signs) ******

                      1                      2                      3
                      A                      A                      A
 Frequencies --  -2759.8826             -2759.7167                16.8312
 Red. masses --      1.0085                 1.0085                 1.1085
 Frc consts  --      4.5259                 4.5254                 0.0002
 IR Inten    --      0.0111                 0.0109                 0.1558

                      4
                      A
 Frequencies --   7042.3835
 Red. masses --      1.0078
 Frc consts  --     29.4493
 IR Inten    --      0.0981

 - Thermochemistry -
 -------------------
 Temperature   298.150 Kelvin.  Pressure   1.00000 Atm.
 Atom     1 has atomic number  1 and mass   1.00783

 Molecular mass:    21.01405 amu.
 Principal axes and moments of inertia in atomic units:
                           1         2         3
     Eigenvalues --     0.00000  87.34518  87.34518
           X            1.00000  -0.00000   0.00000
           Y            0.00000   1.00000   0.00000
           Z            0.00000   0.00000   1.00000
 This molecule is a prolate symmetric top.
 Rotational symmetry number  1.
 Rotational temperature (Kelvin)      0.99163
 Rotational constant (GHZ):          20.662172
    2 imaginary frequencies ignored.
 Zero-point vibrational energy      42223.5 (Joules/Mol)
                                   10.09165 (Kcal/Mol)
 Warning -- explicit consideration of   1 degrees of freedom as
           vibrations may cause significant error
 Vibrational temperatures:     24.22 10132.42
          (Kelvin)

 Zero-point correction=                           0.016082 (Hartree/Particle)
 Thermal correction to Energy=                    0.019349
 Thermal correction to Enthalpy=                  0.020293
 Thermal correction to Gibbs Free Energy=        -0.006670
 Sum of electronic and zero-point Energies=           -100.898828
 Sum of electronic and thermal Energies=              -100.895561
 Sum of electronic and thermal Enthalpies=            -100.894617
 Sum of electronic and thermal Free Energies=         -100.921580

                     E (Thermal)             CV                S
                      KCal/Mol        Cal/Mol-Kelvin    Cal/Mol-Kelvin
 Total                   12.142              6.954             56.748
 Electronic               0.000              0.000              1.377
 Translational            0.889              2.981             35.068
 Rotational               0.592              1.987             13.326
 Vibrational             10.660              1.986              6.977
 Vibration     1          0.593              1.986              6.977

 Normal termination of Gaussian 16 at Fri Aug 22 20:51:34 2025.
