 Gaussian 16, Revision C.01,
 Gaussian 16:  ES64L-G16RevC.01  3-Jul-2019

 -----------------------------------------
 # sp b3lyp/6-311g** Force nosymm scf=(qc)
 -----------------------------------------

 -------------------
 Title Card Required
 -------------------
 Symbolic Z-matrix:
 Charge =  0 Multiplicity = 2

                          Input orientation:
 ---------------------------------------------------------------------
 Center     Atomic      Atomic             Coordinates (Angstroms)
 Number     Number       Type             X           Y           Z
 ---------------------------------------------------------------------
      1          1           0        0.000000    0.000000    0.000000
      2          1           0       -3.250000    0.000000    0.000000
      3          9           0        1.650000    0.000000    0.000000
 ---------------------------------------------------------------------

 SCF Done:  E(UB3LYP) =  -100.825015025     a.u. after   14 cycles

 Alpha  occ. eigenvalues --  -24.64022  -1.07856  -0.40781  -0.35950  -0.35950
 Alpha  occ. eigenvalues --   -0.34145
 Alpha virt. eigenvalues --   -0.17708   0.19759   0.27231   0.94124   0.94124
 Alpha virt. eigenvalues --    0.99043   1.07489   1.23336   1.23336   1.23530
 Alpha virt. eigenvalues --    1.26402   1.26402   1.71077   2.13076   2.14047

  Beta  occ. eigenvalues --  -24.65182  -1.10993  -0.43668  -0.37069  -0.37069
  Beta virt. eigenvalues --   -0.15741  -0.06305   0.25231   0.38423   0.94450
  Beta virt. eigenvalues --    0.94450   0.98473   1.06708   1.32545   1.32545
  Beta virt. eigenvalues --    1.45505   1.45957   1.45957   1.74087   2.22173

 Mulliken charges and spin densities:
               1          2
     1  H    0.311807   0.369485
     2  H    0.003606   0.996456
     3  F   -0.315413  -0.365941
 Sum of Mulliken charges =   0.00000   1.00000

 Dipole moment (field-independent basis, Debye):
    X=             -2.5955    Y=              0.0000    Z=              0.0000  Tot=              2.5955
 Quadrupole moment (field-independent basis, Debye-Ang):
   XX=            -10.1453   YY=             -7.3856   ZZ=             -7.3856
   XY=             -0.0000   XZ=              0.0000   YZ=             -0.0000

  Exact polarizability:      22.322       0.000       2.134       0.000      -0.000       2.134
 Approx polarizability:      36.972       0.000       2.041       0.000       0.000       2.041

 ******    2 imaginary frequencies (negative Signs) ******

                      1                      2                      3
                      A                      A                      A
 Frequencies --  -1830.6392               -69.1933               839.0137
 Red. masses --      1.0589                 1.0527                 1.0278
 Frc consts  --      2.0908                 0.0030                 0.4263
 IR Inten    --     88.2803                 1.2979                89.9989

                      4
                      A
 Frequencies --    839.0137
 Red. masses --      1.0278
 Frc consts  --      0.4263
 IR Inten    --     89.9989

 - Thermochemistry -
 -------------------
 Temperature   298.150 Kelvin.  Pressure   1.00000 Atm.
 Atom     1 has atomic number  1 and mass   1.00783

 Molecular mass:    21.01405 amu.
 Principal axes and moments of inertia in atomic units:
                           1         2         3
     Eigenvalues --     0.00000  88.80523  88.80523
           X            1.00000  -0.00000   0.00000
           Y            0.00000   1.00000   0.00000
           Z            0.00000   0.00000   1.00000
 This molecule is a prolate symmetric top.
 Rotational symmetry number  1.
 Rotational temperature (Kelvin)      0.97532
 Rotational constant (GHZ):          20.322466
    2 imaginary frequencies ignored.
 Zero-point vibrational energy      10036.8 (Joules/Mol)
                                    2.39886 (Kcal/Mol)
 Vibrational temperatures:   1207.15  1207.15
          (Kelvin)

 Zero-point correction=                           0.003823 (Hartree/Particle)
 Thermal correction to Energy=                    0.006319
 Thermal correction to Enthalpy=                  0.007263
 Thermal correction to Gibbs Free Energy=        -0.016570
 Sum of electronic and zero-point Energies=           -100.821192
 Sum of electronic and thermal Energies=              -100.818696
 Sum of electronic and thermal Enthalpies=            -100.817752
 Sum of electronic and thermal Free Energies=         -100.841585

                     E (Thermal)             CV                S
                      KCal/Mol        Cal/Mol-Kelvin    Cal/Mol-Kelvin
 Total                    3.965              6.145             50.160
 Electronic               0.000              0.000              1.377
 Translational            0.889              2.981             35.068
 Rotational               0.592              1.987             13.359
 Vibrational              2.484              1.177              0.356

 Normal termination of Gaussian 16 at Fri Aug 22 16:35:28 2025.
