 Gaussian 16, Revision C.01,
 Gaussian 16:  ES64L-G16RevC.01  3-Jul-2019

 -----------------------------------------
 # sp b3lyp/6-311g** Force nosymm scf=(qc)
 -----------------------------------------

 -------------------
 Title Card Required
 -------------------
 Symbolic Z-matrix:
 Charge =  0 Multiplicity = 2

                          Input orientation:
 ---------------------------------------------------------------------
 Center     Atomic      Atomic             Coordinates (Angstroms)
 Number     Number       Type             X           Y           Z
 ---------------------------------------------------------------------
      1          1           0        0.000000    0.000000    0.000000
      2          1           0       -3.300000    0.000000    0.000000
      3          9           0        1.750000    0.000000    0.000000
 ---------------------------------------------------------------------

 SCF Done:  E(UB3LYP) =  -100.805753738     a.u. after   10 cycles

 Alpha  occ. eigenvalues --  -24.64133  -1.08648  -0.40445  -0.35864  -0.35864
 Alpha  occ. eigenvalues --   -0.34307
 Alpha virt. eigenvalues --   -0.19604   0.19922   0.27532   0.94705   0.95314
 Alpha virt. eigenvalues --    0.95314   1.07707   1.23189   1.23189   1.23345
 Alpha virt. eigenvalues --    1.26785   1.26785   1.68273   2.13308   2.15746

  Beta  occ. eigenvalues --  -24.64151  -1.08698  -0.40448  -0.35881  -0.35881
  Beta virt. eigenvalues --   -0.19701  -0.07396   0.22966   0.37679   0.94787
  Beta virt. eigenvalues --    0.95327   0.95327   1.07727   1.26961   1.26961
  Beta virt. eigenvalues --    1.44843   1.45335   1.45335   1.68426   2.15767

 Mulliken charges and spin densities:
               1          2
     1  H    0.317852   0.010518
     2  H    0.004709   0.995122
     3  F   -0.322562  -0.005640
 Sum of Mulliken charges =  -0.00000   1.00000

 Dipole moment (field-independent basis, Debye):
    X=             -2.8659    Y=              0.0000    Z=             -0.0000  Tot=              2.8659
 Quadrupole moment (field-independent basis, Debye-Ang):
   XX=            -10.7065   YY=             -7.4413   ZZ=             -7.4413
   XY=             -0.0000   XZ=             -0.0000   YZ=              0.0000

  Exact polarizability:      23.469       0.000       2.085      -0.000      -0.000       2.085
 Approx polarizability:      54.544      -0.000       1.996      -0.000      -0.000       1.996

 ******    2 imaginary frequencies (negative Signs) ******

                      1                      2                      3
                      A                      A                      A
 Frequencies --  -1182.9289              -123.8627               828.0168
 Red. masses --      1.0565                 1.0550                 1.0271
 Frc consts  --      0.8711                 0.0095                 0.4149
 IR Inten    --     50.8211                 1.2632                95.3784

                      4
                      A
 Frequencies --    828.0168
 Red. masses --      1.0271
 Frc consts  --      0.4149
 IR Inten    --     95.3784

 - Thermochemistry -
 -------------------
 Temperature   298.150 Kelvin.  Pressure   1.00000 Atm.
 Atom     1 has atomic number  1 and mass   1.00783

 Molecular mass:    21.01405 amu.
 Principal axes and moments of inertia in atomic units:
                           1         2         3
     Eigenvalues --     0.00000  94.82434  94.82434
           X            1.00000  -0.00000   0.00000
           Y            0.00000   1.00000   0.00000
           Z            0.00000   0.00000   1.00000
 This molecule is a prolate symmetric top.
 Rotational symmetry number  1.
 Rotational temperature (Kelvin)      0.91341
 Rotational constant (GHZ):          19.032469
    2 imaginary frequencies ignored.
 Zero-point vibrational energy       9905.3 (Joules/Mol)
                                    2.36742 (Kcal/Mol)
 Vibrational temperatures:   1191.33  1191.33
          (Kelvin)

 Zero-point correction=                           0.003773 (Hartree/Particle)
 Thermal correction to Energy=                    0.006275
 Thermal correction to Enthalpy=                  0.007219
 Thermal correction to Gibbs Free Energy=        -0.016683
 Sum of electronic and zero-point Energies=           -100.801981
 Sum of electronic and thermal Energies=              -100.799479
 Sum of electronic and thermal Enthalpies=            -100.798535
 Sum of electronic and thermal Free Energies=         -100.822437

                     E (Thermal)             CV                S
                      KCal/Mol        Cal/Mol-Kelvin    Cal/Mol-Kelvin
 Total                    3.937              6.179             50.306
 Electronic               0.000              0.000              1.377
 Translational            0.889              2.981             35.068
 Rotational               0.592              1.987             13.489
 Vibrational              2.456              1.211              0.371

 Normal termination of Gaussian 16 at Fri Aug 22 16:41:37 2025.
