 Gaussian 16, Revision C.01,
 Gaussian 16:  ES64L-G16RevC.01  3-Jul-2019

 -----------------------------------------
 # sp b3lyp/6-311g** Force nosymm scf=(qc)
 -----------------------------------------

 -------------------
 Title Card Required
 -------------------
 Symbolic Z-matrix:
 Charge =  0 Multiplicity = 2

                          Input orientation:
 ---------------------------------------------------------------------
 Center     Atomic      Atomic             Coordinates (Angstroms)
 Number     Number       Type             X           Y           Z
 ---------------------------------------------------------------------
      1          1           0        0.000000    0.000000    0.000000
      2          1           0       -1.550000    0.000000    0.000000
      3          9           0        1.300000    0.000000    0.000000
 ---------------------------------------------------------------------

 SCF Done:  E(UB3LYP) =  -100.911027628     a.u. after    8 cycles

 Alpha  occ. eigenvalues --  -24.63582  -1.11085  -0.48127  -0.37829  -0.36546
 Alpha  occ. eigenvalues --   -0.36546
 Alpha virt. eigenvalues --   -0.02737   0.20944   0.28776   0.93521   0.93521
 Alpha virt. eigenvalues --    1.01916   1.04068   1.15799   1.15799   1.39641
 Alpha virt. eigenvalues --    1.39641   1.52641   1.82158   2.19929   2.38935

  Beta  occ. eigenvalues --  -24.62892  -1.09305  -0.44539  -0.35904  -0.35904
  Beta virt. eigenvalues --   -0.19509   0.00902   0.25017   0.31413   0.93606
  Beta virt. eigenvalues --    0.93606   1.03736   1.10645   1.25352   1.25352
  Beta virt. eigenvalues --    1.43016   1.43016   1.56276   1.88465   2.26660

 Mulliken charges and spin densities:
               1          2
     1  H    0.300320  -0.077178
     2  H    0.059904   0.868716
     3  F   -0.360224   0.208463
 Sum of Mulliken charges =   0.00000   1.00000

 Dipole moment (field-independent basis, Debye):
    X=             -2.8567    Y=              0.0000    Z=             -0.0000  Tot=              2.8567
 Quadrupole moment (field-independent basis, Debye-Ang):
   XX=             -8.1382   YY=             -7.0825   ZZ=             -7.0825
   XY=              0.0000   XZ=             -0.0000   YZ=              0.0000

  Exact polarizability:      23.733      -0.000       2.387      -0.000      -0.000       2.387
 Approx polarizability:      31.324       0.000       2.348       0.000      -0.000       2.348

 ******    1 imaginary frequencies (negative Signs) ******

                      1                      2                      3
                      A                      A                      A
 Frequencies --  -1986.9407               262.9404              1109.3700
 Red. masses --      1.0222                 1.0916                 1.0202
 Frc consts  --      2.3777                 0.0445                 0.7398
 IR Inten    --     20.8984                19.0848                59.4645

                      4
                      A
 Frequencies --   1109.3700
 Red. masses --      1.0202
 Frc consts  --      0.7398
 IR Inten    --     59.4645

 - Thermochemistry -
 -------------------
 Temperature   298.150 Kelvin.  Pressure   1.00000 Atm.
 Atom     1 has atomic number  1 and mass   1.00783

 Molecular mass:    21.01405 amu.
 Principal axes and moments of inertia in atomic units:
                           1         2         3
     Eigenvalues --     0.00000  32.34255  32.34255
           X            1.00000  -0.00000   0.00000
           Y            0.00000   1.00000   0.00000
           Z            0.00000   0.00000   1.00000
 This molecule is a prolate symmetric top.
 Rotational symmetry number  1.
 Rotational temperature (Kelvin)      2.67802
 Rotational constant (GHZ):          55.800834
    1 imaginary frequencies ignored.
 Zero-point vibrational energy      14843.7 (Joules/Mol)
                                    3.54774 (Kcal/Mol)
 Warning -- explicit consideration of   1 degrees of freedom as
           vibrations may cause significant error
 Vibrational temperatures:    378.31  1596.14  1596.14
          (Kelvin)

 Zero-point correction=                           0.005654 (Hartree/Particle)
 Thermal correction to Energy=                    0.008531
 Thermal correction to Enthalpy=                  0.009475
 Thermal correction to Gibbs Free Energy=        -0.014072
 Sum of electronic and zero-point Energies=           -100.905374
 Sum of electronic and thermal Energies=              -100.902497
 Sum of electronic and thermal Enthalpies=            -100.901553
 Sum of electronic and thermal Free Energies=         -100.925100

                     E (Thermal)             CV                S
                      KCal/Mol        Cal/Mol-Kelvin    Cal/Mol-Kelvin
 Total                    5.353              7.253             49.560
 Electronic               0.000              0.000              1.377
 Translational            0.889              2.981             35.068
 Rotational               0.592              1.987             11.352
 Vibrational              3.872              2.285              1.762
 Vibration     1          0.670              1.741              1.642

 Normal termination of Gaussian 16 at Fri Aug 22 16:14:43 2025.
