 Gaussian 16, Revision C.01,
 Gaussian 16:  ES64L-G16RevC.01  3-Jul-2019

 -----------------------------------------
 # sp b3lyp/6-311g** Force nosymm scf=(qc)
 -----------------------------------------

 -------------------
 Title Card Required
 -------------------
 Symbolic Z-matrix:
 Charge =  0 Multiplicity = 2

                          Input orientation:
 ---------------------------------------------------------------------
 Center     Atomic      Atomic             Coordinates (Angstroms)
 Number     Number       Type             X           Y           Z
 ---------------------------------------------------------------------
      1          1           0        0.000000    0.000000    0.000000
      2          1           0       -3.200000    0.000000    0.000000
      3          9           0        3.550000    0.000000    0.000000
 ---------------------------------------------------------------------

 SCF Done:  E(UB3LYP) =  -100.759440005     a.u. after   32 cycles

 Alpha  occ. eigenvalues --  -24.75473  -1.21429  -0.54596  -0.45839  -0.45839
 Alpha  occ. eigenvalues --   -0.32379
 Alpha virt. eigenvalues --   -0.07525   0.24658   0.36558   0.87456   0.91427
 Alpha virt. eigenvalues --    0.91427   1.01692   1.25139   1.25139   1.25548
 Alpha virt. eigenvalues --    1.44460   1.44619   1.44619   2.15463   2.40231

  Beta  occ. eigenvalues --  -24.72354  -1.12465  -0.42713  -0.42713  -0.32794
  Beta virt. eigenvalues --   -0.25529  -0.07034   0.24437   0.37355   0.92917
  Beta virt. eigenvalues --    0.92917   0.96632   1.05724   1.24664   1.24664
  Beta virt. eigenvalues --    1.25044   1.45211   1.45406   1.45406   2.15688

 Mulliken charges and spin densities:
               1          2
     1  H    0.009580  -0.984523
     2  H    0.000359   0.995497
     3  F   -0.009938   0.989027
 Sum of Mulliken charges =  -0.00000   1.00000

 Dipole moment (field-independent basis, Debye):
    X=             -0.1870    Y=             -0.0000    Z=             -0.0000  Tot=              0.1870
 Quadrupole moment (field-independent basis, Debye-Ang):
   XX=             -7.2855   YY=             -7.6284   ZZ=             -7.6284
   XY=             -0.0000   XZ=             -0.0000   YZ=              0.0000

  Exact polarizability:      23.530      -0.000       2.035      -0.000      -0.000       2.035
 Approx polarizability:      18.147      -0.000       1.933      -0.000      -0.000       1.933

 ******    2 imaginary frequencies (negative Signs) ******

                      1                      2                      3
                      A                      A                      A
 Frequencies --   -293.7348              -118.4599                96.1711
 Red. masses --      1.0143                 1.1008                 1.0167
 Frc consts  --      0.0516                 0.0091                 0.0055
 IR Inten    --      7.1471                 2.6612                 0.0756

                      4
                      A
 Frequencies --     96.1711
 Red. masses --      1.0167
 Frc consts  --      0.0055
 IR Inten    --      0.0756

 - Thermochemistry -
 -------------------
 Temperature   298.150 Kelvin.  Pressure   1.00000 Atm.
 Atom     1 has atomic number  1 and mass   1.00783

 Molecular mass:    21.01405 amu.
 Principal axes and moments of inertia in atomic units:
                           1         2         3
     Eigenvalues --     0.00000 191.02446 191.02446
           X            1.00000  -0.00000   0.00000
           Y            0.00000   1.00000   0.00000
           Z            0.00000   0.00000   1.00000
 This molecule is a prolate symmetric top.
 Rotational symmetry number  1.
 Rotational temperature (Kelvin)      0.45342
 Rotational constant (GHZ):           9.447697
    2 imaginary frequencies ignored.
 Zero-point vibrational energy       1150.5 (Joules/Mol)
                                    0.27497 (Kcal/Mol)
 Warning -- explicit consideration of   2 degrees of freedom as
           vibrations may cause significant error
 Vibrational temperatures:    138.37   138.37
          (Kelvin)

 Zero-point correction=                           0.000438 (Hartree/Particle)
 Thermal correction to Energy=                    0.004283
 Thermal correction to Enthalpy=                  0.005227
 Thermal correction to Gibbs Free Energy=        -0.022515
 Sum of electronic and zero-point Energies=           -100.759002
 Sum of electronic and thermal Energies=              -100.755157
 Sum of electronic and thermal Enthalpies=            -100.754213
 Sum of electronic and thermal Free Energies=         -100.781955

                     E (Thermal)             CV                S
                      KCal/Mol        Cal/Mol-Kelvin    Cal/Mol-Kelvin
 Total                    2.687              8.872             58.388
 Electronic               0.000              0.000              1.377
 Translational            0.889              2.981             35.068
 Rotational               0.592              1.987             14.881
 Vibrational              1.206              3.904              7.061
 Vibration     1          0.603              1.952              3.530
 Vibration     2          0.603              1.952              3.530

 Normal termination of Gaussian 16 at Fri Aug 22 22:40:57 2025.
