 Gaussian 16, Revision C.01,
 Gaussian 16:  ES64L-G16RevC.01  3-Jul-2019

 -----------------------------------------
 # sp b3lyp/6-311g** Force nosymm scf=(qc)
 -----------------------------------------

 -------------------
 Title Card Required
 -------------------
 Symbolic Z-matrix:
 Charge =  0 Multiplicity = 2

                          Input orientation:
 ---------------------------------------------------------------------
 Center     Atomic      Atomic             Coordinates (Angstroms)
 Number     Number       Type             X           Y           Z
 ---------------------------------------------------------------------
      1          1           0        0.000000    0.000000    0.000000
      2          1           0       -1.650000    0.000000    0.000000
      3          9           0        1.050000    0.000000    0.000000
 ---------------------------------------------------------------------

 SCF Done:  E(UB3LYP) =  -100.960198298     a.u. after    6 cycles

 Alpha  occ. eigenvalues --  -24.63526  -1.14459  -0.51274  -0.37882  -0.37882
 Alpha  occ. eigenvalues --   -0.37070
 Alpha virt. eigenvalues --    0.04786   0.21943   0.32120   0.94198   0.94198
 Alpha virt. eigenvalues --    0.99517   1.12420   1.18014   1.18014   1.38541
 Alpha virt. eigenvalues --    1.38541   1.52369   1.90042   2.30503   2.34432

  Beta  occ. eigenvalues --  -24.63297  -1.13886  -0.49823  -0.37678  -0.37678
  Beta virt. eigenvalues --   -0.15466   0.07523   0.28058   0.35157   0.94279
  Beta virt. eigenvalues --    0.94279   1.00083   1.21495   1.30062   1.30062
  Beta virt. eigenvalues --    1.43359   1.43359   1.55827   1.99200   2.33965

 Mulliken charges and spin densities:
               1          2
     1  H    0.304117  -0.002747
     2  H    0.032976   0.939663
     3  F   -0.337093   0.063084
 Sum of Mulliken charges =   0.00000   1.00000

 Dipole moment (field-independent basis, Debye):
    X=             -2.3966    Y=              0.0000    Z=              0.0000  Tot=              2.3966
 Quadrupole moment (field-independent basis, Debye-Ang):
   XX=             -7.7614   YY=             -6.9080   ZZ=             -6.9080
   XY=              0.0000   XZ=              0.0000   YZ=             -0.0000

  Exact polarizability:      13.544      -0.000       2.479      -0.000       0.000       2.479
 Approx polarizability:      15.159      -0.000       2.465       0.000       0.000       2.465

 ******    1 imaginary frequencies (negative Signs) ******

                      1                      2                      3
                      A                      A                      A
 Frequencies --   -184.0939              1033.3754              1033.3754
 Red. masses --      1.0449                 1.0242                 1.0242
 Frc consts  --      0.0209                 0.6444                 0.6444
 IR Inten    --      5.3078               104.5350               104.5350

                      4
                      A
 Frequencies --   2239.5284
 Red. masses --      1.0669
 Frc consts  --      3.1526
 IR Inten    --    217.7012

 - Thermochemistry -
 -------------------
 Temperature   298.150 Kelvin.  Pressure   1.00000 Atm.
 Atom     1 has atomic number  1 and mass   1.00783

 Molecular mass:    21.01405 amu.
 Principal axes and moments of inertia in atomic units:
                           1         2         3
     Eigenvalues --     0.00000  27.77739  27.77739
           X            1.00000  -0.00000   0.00000
           Y            0.00000   1.00000   0.00000
           Z            0.00000   0.00000   1.00000
 This molecule is a prolate symmetric top.
 Rotational symmetry number  1.
 Rotational temperature (Kelvin)      3.11814
 Rotational constant (GHZ):          64.971580
    1 imaginary frequencies ignored.
 Zero-point vibrational energy      25757.3 (Joules/Mol)
                                    6.15614 (Kcal/Mol)
 Vibrational temperatures:   1486.80  1486.80  3222.18
          (Kelvin)

 Zero-point correction=                           0.009810 (Hartree/Particle)
 Thermal correction to Energy=                    0.012236
 Thermal correction to Enthalpy=                  0.013180
 Thermal correction to Gibbs Free Energy=        -0.009464
 Sum of electronic and zero-point Energies=           -100.950388
 Sum of electronic and thermal Energies=              -100.947962
 Sum of electronic and thermal Enthalpies=            -100.947018
 Sum of electronic and thermal Free Energies=         -100.969663

                     E (Thermal)             CV                S
                      KCal/Mol        Cal/Mol-Kelvin    Cal/Mol-Kelvin
 Total                    7.678              5.657             47.659
 Electronic               0.000              0.000              1.377
 Translational            0.889              2.981             35.068
 Rotational               0.592              1.987             11.050
 Vibrational              6.197              0.689              0.164

 Normal termination of Gaussian 16 at Fri Aug 22 16:02:41 2025.
