 Gaussian 16, Revision C.01,
 Gaussian 16:  ES64L-G16RevC.01  3-Jul-2019

 -----------------------------------------
 # sp b3lyp/6-311g** Force nosymm scf=(qc)
 -----------------------------------------

 -------------------
 Title Card Required
 -------------------
 Symbolic Z-matrix:
 Charge =  0 Multiplicity = 2

                          Input orientation:
 ---------------------------------------------------------------------
 Center     Atomic      Atomic             Coordinates (Angstroms)
 Number     Number       Type             X           Y           Z
 ---------------------------------------------------------------------
      1          1           0        0.000000    0.000000    0.000000
      2          1           0       -3.100000    0.000000    0.000000
      3          9           0        1.100000    0.000000    0.000000
 ---------------------------------------------------------------------

 SCF Done:  E(UB3LYP) =  -100.948538063     a.u. after    6 cycles

 Alpha  occ. eigenvalues --  -24.64262  -1.13840  -0.49593  -0.38072  -0.38072
 Alpha  occ. eigenvalues --   -0.34191
 Alpha virt. eigenvalues --   -0.02301   0.23941   0.30989   0.93599   0.93599
 Alpha virt. eigenvalues --    0.99623   1.23147   1.23336   1.23336   1.29901
 Alpha virt. eigenvalues --    1.35250   1.35250   1.79949   2.14228   2.32082

  Beta  occ. eigenvalues --  -24.64255  -1.13821  -0.49569  -0.38066  -0.38066
  Beta virt. eigenvalues --   -0.07906  -0.00983   0.30052   0.38278   0.93599
  Beta virt. eigenvalues --    0.93599   0.99636   1.29278   1.35239   1.35239
  Beta virt. eigenvalues --    1.47278   1.47278   1.48068   1.80059   2.32052

 Mulliken charges and spin densities:
               1          2
     1  H    0.338953   0.000781
     2  H    0.002599   0.996865
     3  F   -0.341551   0.002354
 Sum of Mulliken charges =   0.00000   1.00000

 Dipole moment (field-independent basis, Debye):
    X=             -2.1947    Y=              0.0000    Z=              0.0000  Tot=              2.1947
 Quadrupole moment (field-independent basis, Debye-Ang):
   XX=             -8.4578   YY=             -7.0482   ZZ=             -7.0482
   XY=              0.0000   XZ=              0.0000   YZ=              0.0000

  Exact polarizability:       8.740      -0.000       2.370       0.000      -0.000       2.370
 Approx polarizability:      11.124      -0.000       2.336      -0.000      -0.000       2.336

 ******    1 imaginary frequencies (negative Signs) ******

                      1                      2                      3
                      A                      A                      A
 Frequencies --    -81.3145              1177.6799              1177.6799
 Red. masses --      1.0529                 1.0336                 1.0336
 Frc consts  --      0.0041                 0.8446                 0.8446
 IR Inten    --      0.2899               153.3929               153.3929

                      4
                      A
 Frequencies --   1935.7019
 Red. masses --      1.0586
 Frc consts  --      2.3371
 IR Inten    --     87.3380

 - Thermochemistry -
 -------------------
 Temperature   298.150 Kelvin.  Pressure   1.00000 Atm.
 Atom     1 has atomic number  1 and mass   1.00783

 Molecular mass:    21.01405 amu.
 Principal axes and moments of inertia in atomic units:
                           1         2         3
     Eigenvalues --     0.00000  62.99278  62.99278
           X            1.00000  -0.00000   0.00000
           Y            0.00000   1.00000   0.00000
           Z            0.00000   0.00000   1.00000
 This molecule is a prolate symmetric top.
 Rotational symmetry number  1.
 Rotational temperature (Kelvin)      1.37498
 Rotational constant (GHZ):          28.649968
    1 imaginary frequencies ignored.
 Zero-point vibrational energy      25666.2 (Joules/Mol)
                                    6.13438 (Kcal/Mol)
 Vibrational temperatures:   1694.42  1694.42  2785.04
          (Kelvin)

 Zero-point correction=                           0.009776 (Hartree/Particle)
 Thermal correction to Energy=                    0.012174
 Thermal correction to Enthalpy=                  0.013118
 Thermal correction to Gibbs Free Energy=        -0.010266
 Sum of electronic and zero-point Energies=           -100.938762
 Sum of electronic and thermal Energies=              -100.936364
 Sum of electronic and thermal Enthalpies=            -100.935420
 Sum of electronic and thermal Free Energies=         -100.958804

                     E (Thermal)             CV                S
                      KCal/Mol        Cal/Mol-Kelvin    Cal/Mol-Kelvin
 Total                    7.639              5.423             49.215
 Electronic               0.000              0.000              1.377
 Translational            0.889              2.981             35.068
 Rotational               0.592              1.987             12.677
 Vibrational              6.158              0.455              0.092

 Normal termination of Gaussian 16 at Fri Aug 22 16:06:03 2025.
