 Gaussian 16, Revision C.01,
 Gaussian 16:  ES64L-G16RevC.01  3-Jul-2019

 -----------------------------------------
 # sp b3lyp/6-311g** Force nosymm scf=(qc)
 -----------------------------------------

 -------------------
 Title Card Required
 -------------------
 Symbolic Z-matrix:
 Charge =  0 Multiplicity = 2

                          Input orientation:
 ---------------------------------------------------------------------
 Center     Atomic      Atomic             Coordinates (Angstroms)
 Number     Number       Type             X           Y           Z
 ---------------------------------------------------------------------
      1          1           0        0.000000    0.000000    0.000000
      2          1           0       -2.750000    0.000000    0.000000
      3          9           0        2.000000    0.000000    0.000000
 ---------------------------------------------------------------------

 SCF Done:  E(UB3LYP) =  -100.788954020     a.u. after   14 cycles

 Alpha  occ. eigenvalues --  -24.68177  -1.14494  -0.47161  -0.39708  -0.39708
 Alpha  occ. eigenvalues --   -0.34332
 Alpha virt. eigenvalues --   -0.13783   0.23494   0.31207   0.89480   0.94906
 Alpha virt. eigenvalues --    0.94906   1.06115   1.23249   1.23249   1.24834
 Alpha virt. eigenvalues --    1.35225   1.35225   1.60448   2.14240   2.29408

  Beta  occ. eigenvalues --  -24.65807  -1.07869  -0.37830  -0.37372  -0.37372
  Beta virt. eigenvalues --   -0.20785  -0.08972   0.24127   0.35773   0.91332
  Beta virt. eigenvalues --    0.95552   0.95552   1.08520   1.22158   1.22158
  Beta virt. eigenvalues --    1.42958   1.42971   1.42971   1.54167   2.13094

 Mulliken charges and spin densities:
               1          2
     1  H    0.182904  -0.729577
     2  H    0.010190   0.984169
     3  F   -0.193094   0.745408
 Sum of Mulliken charges =  -0.00000   1.00000

 Dipole moment (field-independent basis, Debye):
    X=             -2.0434    Y=              0.0000    Z=              0.0000  Tot=              2.0434
 Quadrupole moment (field-independent basis, Debye-Ang):
   XX=             -9.6497   YY=             -7.5095   ZZ=             -7.5095
   XY=             -0.0000   XZ=              0.0000   YZ=             -0.0000

  Exact polarizability:      32.799      -0.000       2.059       0.000       0.000       2.059
 Approx polarizability:      42.081       0.000       1.949      -0.000      -0.000       1.949

 ******    2 imaginary frequencies (negative Signs) ******

                      1                      2                      3
                      A                      A                      A
 Frequencies --  -1166.8325              -295.9508               489.9651
 Red. masses --      1.0504                 1.0612                 1.0222
 Frc consts  --      0.8426                 0.0548                 0.1446
 IR Inten    --    107.1760                 6.3074                29.0922

                      4
                      A
 Frequencies --    489.9651
 Red. masses --      1.0222
 Frc consts  --      0.1446
 IR Inten    --     29.0922

 - Thermochemistry -
 -------------------
 Temperature   298.150 Kelvin.  Pressure   1.00000 Atm.
 Atom     1 has atomic number  1 and mass   1.00783

 Molecular mass:    21.01405 amu.
 Principal axes and moments of inertia in atomic units:
                           1         2         3
     Eigenvalues --     0.00000  87.73426  87.73426
           X            1.00000  -0.00000   0.00000
           Y            0.00000   1.00000   0.00000
           Z            0.00000   0.00000   1.00000
 This molecule is a prolate symmetric top.
 Rotational symmetry number  1.
 Rotational temperature (Kelvin)      0.98723
 Rotational constant (GHZ):          20.570541
    2 imaginary frequencies ignored.
 Zero-point vibrational energy       5861.3 (Joules/Mol)
                                    1.40088 (Kcal/Mol)
 Warning -- explicit consideration of   2 degrees of freedom as
           vibrations may cause significant error
 Vibrational temperatures:    704.95   704.95
          (Kelvin)

 Zero-point correction=                           0.002232 (Hartree/Particle)
 Thermal correction to Energy=                    0.005056
 Thermal correction to Enthalpy=                  0.006000
 Thermal correction to Gibbs Free Energy=        -0.018302
 Sum of electronic and zero-point Energies=           -100.786722
 Sum of electronic and thermal Energies=              -100.783898
 Sum of electronic and thermal Enthalpies=            -100.782954
 Sum of electronic and thermal Free Energies=         -100.807256

                     E (Thermal)             CV                S
                      KCal/Mol        Cal/Mol-Kelvin    Cal/Mol-Kelvin
 Total                    3.173              7.513             51.148
 Electronic               0.000              0.000              1.377
 Translational            0.889              2.981             35.068
 Rotational               0.592              1.987             13.335
 Vibrational              1.692              2.545              1.367
 Vibration     1          0.846              1.272              0.684
 Vibration     2          0.846              1.272              0.684

 Normal termination of Gaussian 16 at Fri Aug 22 16:57:08 2025.
