 Gaussian 16, Revision C.01,
 Gaussian 16:  ES64L-G16RevC.01  3-Jul-2019

 -----------------------------------------
 # sp b3lyp/6-311g** Force nosymm scf=(qc)
 -----------------------------------------

 -------------------
 Title Card Required
 -------------------
 Symbolic Z-matrix:
 Charge =  0 Multiplicity = 2

                          Input orientation:
 ---------------------------------------------------------------------
 Center     Atomic      Atomic             Coordinates (Angstroms)
 Number     Number       Type             X           Y           Z
 ---------------------------------------------------------------------
      1          1           0        0.000000    0.000000    0.000000
      2          1           0       -3.550000    0.000000    0.000000
      3          9           0        1.450000    0.000000    0.000000
 ---------------------------------------------------------------------

 SCF Done:  E(UB3LYP) =  -100.865807885     a.u. after    8 cycles

 Alpha  occ. eigenvalues --  -24.64360  -1.09954  -0.43874  -0.36557  -0.36557
 Alpha  occ. eigenvalues --   -0.33924
 Alpha virt. eigenvalues --   -0.13226   0.20520   0.27757   0.93278   0.93278
 Alpha virt. eigenvalues --    1.03520   1.12171   1.23589   1.23589   1.23609
 Alpha virt. eigenvalues --    1.31910   1.31910   1.72380   2.13338   2.19908

  Beta  occ. eigenvalues --  -24.64344  -1.09912  -0.43834  -0.36543  -0.36543
  Beta virt. eigenvalues --   -0.13511  -0.06454   0.23560   0.38273   0.93273
  Beta virt. eigenvalues --    0.93273   1.03562   1.12200   1.31843   1.31843
  Beta virt. eigenvalues --    1.45970   1.46419   1.46419   1.72384   2.19255

 Mulliken charges and spin densities:
               1          2
     1  H    0.353033  -0.003430
     2  H    0.001565   0.998337
     3  F   -0.354599   0.005093
 Sum of Mulliken charges =   0.00000   1.00000

 Dipole moment (field-independent basis, Debye):
    X=             -2.5652    Y=             -0.0000    Z=              0.0000  Tot=              2.5652
 Quadrupole moment (field-independent basis, Debye-Ang):
   XX=             -9.7209   YY=             -7.2936   ZZ=             -7.2936
   XY=              0.0000   XZ=              0.0000   YZ=             -0.0000

  Exact polarizability:      14.292       0.000       2.210      -0.000      -0.000       2.210
 Approx polarizability:      25.513       0.000       2.139       0.000       0.000       2.139

 ******    2 imaginary frequencies (negative Signs) ******

                      1                      2                      3
                      A                      A                      A
 Frequencies --  -1100.2832               -71.8913              1055.0954
 Red. masses --      1.0576                 1.0540                 1.0313
 Frc consts  --      0.7544                 0.0032                 0.6764
 IR Inten    --     47.0821                 0.1413               122.1071

                      4
                      A
 Frequencies --   1055.0954
 Red. masses --      1.0313
 Frc consts  --      0.6764
 IR Inten    --    122.1071

 - Thermochemistry -
 -------------------
 Temperature   298.150 Kelvin.  Pressure   1.00000 Atm.
 Atom     1 has atomic number  1 and mass   1.00783

 Molecular mass:    21.01405 amu.
 Principal axes and moments of inertia in atomic units:
                           1         2         3
     Eigenvalues --     0.00000  90.36125  90.36125
           X            1.00000  -0.00000   0.00000
           Y            0.00000   1.00000   0.00000
           Z            0.00000   0.00000   1.00000
 This molecule is a prolate symmetric top.
 Rotational symmetry number  1.
 Rotational temperature (Kelvin)      0.95853
 Rotational constant (GHZ):          19.972513
    2 imaginary frequencies ignored.
 Zero-point vibrational energy      12621.7 (Joules/Mol)
                                    3.01667 (Kcal/Mol)
 Vibrational temperatures:   1518.05  1518.05
          (Kelvin)

 Zero-point correction=                           0.004807 (Hartree/Particle)
 Thermal correction to Energy=                    0.007227
 Thermal correction to Enthalpy=                  0.008171
 Thermal correction to Gibbs Free Energy=        -0.015580
 Sum of electronic and zero-point Energies=           -100.861001
 Sum of electronic and thermal Energies=              -100.858581
 Sum of electronic and thermal Enthalpies=            -100.857636
 Sum of electronic and thermal Free Energies=         -100.881388

                     E (Thermal)             CV                S
                      KCal/Mol        Cal/Mol-Kelvin    Cal/Mol-Kelvin
 Total                    4.535              5.609             49.989
 Electronic               0.000              0.000              1.377
 Translational            0.889              2.981             35.068
 Rotational               0.592              1.987             13.394
 Vibrational              3.054              0.641              0.150

 Normal termination of Gaussian 16 at Fri Aug 22 16:23:54 2025.
