 Gaussian 16, Revision C.01,
 Gaussian 16:  ES64L-G16RevC.01  3-Jul-2019

 -----------------------------------------
 # sp b3lyp/6-311g** Force nosymm scf=(qc)
 -----------------------------------------

 -------------------
 Title Card Required
 -------------------
 Symbolic Z-matrix:
 Charge =  0 Multiplicity = 2

                          Input orientation:
 ---------------------------------------------------------------------
 Center     Atomic      Atomic             Coordinates (Angstroms)
 Number     Number       Type             X           Y           Z
 ---------------------------------------------------------------------
      1          1           0        0.000000    0.000000    0.000000
      2          1           0       -1.000000    0.000000    0.000000
      3          9           0        2.900000    0.000000    0.000000
 ---------------------------------------------------------------------

 SCF Done:  E(UB3LYP) =  -100.906806304     a.u. after    8 cycles

 Alpha  occ. eigenvalues --  -24.76111  -1.22013  -0.55248  -0.46386  -0.46386
 Alpha  occ. eigenvalues --   -0.39350
 Alpha virt. eigenvalues --    0.00101   0.21226   0.38630   0.89760   0.90981
 Alpha virt. eigenvalues --    0.90981   1.05662   1.08738   1.08738   1.37112
 Alpha virt. eigenvalues --    1.65387   1.65387   2.23037   2.36496   2.58639

  Beta  occ. eigenvalues --  -24.72977  -1.13000  -0.43244  -0.43244  -0.39309
  Beta virt. eigenvalues --   -0.26159   0.00314   0.21382   0.39029   0.92468
  Beta virt. eigenvalues --    0.92468   0.98419   1.08804   1.08804   1.10002
  Beta virt. eigenvalues --    1.37187   1.65439   1.65439   2.23175   2.36578

 Mulliken charges and spin densities:
               1          2
     1  H   -0.010117  -0.006315
     2  H    0.011528   0.013299
     3  F   -0.001411   0.993017
 Sum of Mulliken charges =  -0.00000   1.00000

 Dipole moment (field-independent basis, Debye):
    X=             -0.0844    Y=              0.0000    Z=             -0.0000  Tot=              0.0844
 Quadrupole moment (field-independent basis, Debye-Ang):
   XX=             -5.5699   YY=             -7.2697   ZZ=             -7.2697
   XY=              0.0000   XZ=             -0.0000   YZ=             -0.0000

  Exact polarizability:      16.763       0.000       2.062       0.000       0.000       2.062
 Approx polarizability:      20.085       0.000       2.115       0.000       0.000       2.115

 ******    1 imaginary frequencies (negative Signs) ******

                      1                      2                      3
                      A                      A                      A
 Frequencies --   -103.4767              1530.8786              1530.8786
 Red. masses --      1.1085                 1.0100                 1.0100
 Frc consts  --      0.0070                 1.3946                 1.3946
 IR Inten    --      1.4477                 0.1197                 0.1197

                      4
                      A
 Frequencies --   1774.0783
 Red. masses --      1.0078
 Frc consts  --      1.8689
 IR Inten    --     15.9376

 - Thermochemistry -
 -------------------
 Temperature   298.150 Kelvin.  Pressure   1.00000 Atm.
 Atom     1 has atomic number  1 and mass   1.00783

 Molecular mass:    21.01405 amu.
 Principal axes and moments of inertia in atomic units:
                           1         2         3
     Eigenvalues --     0.00000  77.02724  77.02724
           X            1.00000  -0.00000   0.00000
           Y            0.00000   1.00000   0.00000
           Z            0.00000   0.00000   1.00000
 This molecule is a prolate symmetric top.
 Rotational symmetry number  1.
 Rotational temperature (Kelvin)      1.12446
 Rotational constant (GHZ):          23.429909
    1 imaginary frequencies ignored.
 Zero-point vibrational energy      28924.7 (Joules/Mol)
                                    6.91317 (Kcal/Mol)
 Vibrational temperatures:   2202.59  2202.59  2552.50
          (Kelvin)

 Zero-point correction=                           0.011017 (Hartree/Particle)
 Thermal correction to Energy=                    0.013387
 Thermal correction to Enthalpy=                  0.014332
 Thermal correction to Gibbs Free Energy=        -0.009209
 Sum of electronic and zero-point Energies=           -100.895789
 Sum of electronic and thermal Energies=              -100.893419
 Sum of electronic and thermal Enthalpies=            -100.892475
 Sum of electronic and thermal Free Energies=         -100.916016

                     E (Thermal)             CV                S
                      KCal/Mol        Cal/Mol-Kelvin    Cal/Mol-Kelvin
 Total                    8.401              5.130             49.546
 Electronic               0.000              0.000              1.377
 Translational            0.889              2.981             35.068
 Rotational               0.592              1.987             13.076
 Vibrational              6.920              0.162              0.024

 Normal termination of Gaussian 16 at Fri Aug 22 18:58:11 2025.
