 Gaussian 16, Revision C.01,
 Gaussian 16:  ES64L-G16RevC.01  3-Jul-2019

 -----------------------------------------
 # sp b3lyp/6-311g** Force nosymm scf=(qc)
 -----------------------------------------

 -------------------
 Title Card Required
 -------------------
 Symbolic Z-matrix:
 Charge =  0 Multiplicity = 2

                          Input orientation:
 ---------------------------------------------------------------------
 Center     Atomic      Atomic             Coordinates (Angstroms)
 Number     Number       Type             X           Y           Z
 ---------------------------------------------------------------------
      1          1           0        0.000000    0.000000    0.000000
      2          1           0       -1.050000    0.000000    0.000000
      3          9           0        1.000000    0.000000    0.000000
 ---------------------------------------------------------------------

 SCF Done:  E(UB3LYP) =  -100.961312175     a.u. after    6 cycles

 Alpha  occ. eigenvalues --  -24.64646  -1.17347  -0.57323  -0.39400  -0.39400
 Alpha  occ. eigenvalues --   -0.36611
 Alpha virt. eigenvalues --    0.12149   0.18884   0.42711   0.90626   0.90626
 Alpha virt. eigenvalues --    0.97621   1.08355   1.08355   1.39983   1.58934
 Alpha virt. eigenvalues --    1.58934   1.62593   2.19078   2.30122   2.88098

  Beta  occ. eigenvalues --  -24.63790  -1.15189  -0.52173  -0.38635  -0.38635
  Beta virt. eigenvalues --   -0.18436   0.14158   0.21966   0.48006   0.92041
  Beta virt. eigenvalues --    0.92041   0.99396   1.14439   1.14439   1.43415
  Beta virt. eigenvalues --    1.63794   1.63794   1.69756   2.20987   2.42166

 Mulliken charges and spin densities:
               1          2
     1  H    0.280214  -0.020832
     2  H    0.021564   0.798919
     3  F   -0.301778   0.221913
 Sum of Mulliken charges =   0.00000   1.00000

 Dipole moment (field-independent basis, Debye):
    X=             -2.0216    Y=             -0.0000    Z=              0.0000  Tot=              2.0216
 Quadrupole moment (field-independent basis, Debye-Ang):
   XX=             -7.6444   YY=             -6.7066   ZZ=             -6.7066
   XY=             -0.0000   XZ=              0.0000   YZ=              0.0000

  Exact polarizability:      14.804      -0.000       2.573       0.000       0.000       2.573
 Approx polarizability:      17.309       0.000       2.595      -0.000       0.000       2.595

 ******    2 imaginary frequencies (negative Signs) ******

                      1                      2                      3
                      A                      A                      A
 Frequencies --   -132.7310              -132.7310              1127.5030
 Red. masses --      1.0185                 1.0185                 1.0292
 Frc consts  --      0.0106                 0.0106                 0.7709
 IR Inten    --     61.1404                61.1404                52.4317

                      4
                      A
 Frequencies --   2295.8059
 Red. masses --      1.0837
 Frc consts  --      3.3654
 IR Inten    --     26.4306

 - Thermochemistry -
 -------------------
 Temperature   298.150 Kelvin.  Pressure   1.00000 Atm.
 Atom     1 has atomic number  1 and mass   1.00783

 Molecular mass:    21.01405 amu.
 Principal axes and moments of inertia in atomic units:
                           1         2         3
     Eigenvalues --     0.00000  17.11817  17.11817
           X            1.00000  -0.00000   0.00000
           Y            0.00000   1.00000   0.00000
           Z            0.00000   0.00000   1.00000
 This molecule is a prolate symmetric top.
 Rotational symmetry number  1.
 Rotational temperature (Kelvin)      5.05977
 Rotational constant (GHZ):         105.428420
    2 imaginary frequencies ignored.
 Zero-point vibrational energy      20475.9 (Joules/Mol)
                                    4.89387 (Kcal/Mol)
 Vibrational temperatures:   1622.23  3303.15
          (Kelvin)

 Zero-point correction=                           0.007799 (Hartree/Particle)
 Thermal correction to Energy=                    0.010182
 Thermal correction to Enthalpy=                  0.011126
 Thermal correction to Gibbs Free Energy=        -0.011010
 Sum of electronic and zero-point Energies=           -100.953513
 Sum of electronic and thermal Energies=              -100.951130
 Sum of electronic and thermal Enthalpies=            -100.950186
 Sum of electronic and thermal Free Energies=         -100.972322

                     E (Thermal)             CV                S
                      KCal/Mol        Cal/Mol-Kelvin    Cal/Mol-Kelvin
 Total                    6.389              5.229             46.589
 Electronic               0.000              0.000              1.377
 Translational            0.889              2.981             35.068
 Rotational               0.592              1.987             10.088
 Vibrational              4.908              0.261              0.056

 Normal termination of Gaussian 16 at Fri Aug 22 15:59:53 2025.
