 Gaussian 16, Revision C.01,
 Gaussian 16:  ES64L-G16RevC.01  3-Jul-2019

 -----------------------------------------
 # sp b3lyp/6-311g** Force nosymm scf=(qc)
 -----------------------------------------

 -------------------
 Title Card Required
 -------------------
 Symbolic Z-matrix:
 Charge =  0 Multiplicity = 2

                          Input orientation:
 ---------------------------------------------------------------------
 Center     Atomic      Atomic             Coordinates (Angstroms)
 Number     Number       Type             X           Y           Z
 ---------------------------------------------------------------------
      1          1           0        0.000000    0.000000    0.000000
      2          1           0       -3.450000    0.000000    0.000000
      3          9           0        1.050000    0.000000    0.000000
 ---------------------------------------------------------------------

 SCF Done:  E(UB3LYP) =  -100.958286350     a.u. after    6 cycles

 Alpha  occ. eigenvalues --  -24.64245  -1.14874  -0.50609  -0.38432  -0.38432
 Alpha  occ. eigenvalues --   -0.33782
 Alpha virt. eigenvalues --   -0.00883   0.23632   0.32733   0.93811   0.93811
 Alpha virt. eigenvalues --    0.99063   1.23630   1.23734   1.23734   1.29375
 Alpha virt. eigenvalues --    1.35530   1.35530   1.84587   2.14121   2.33013

  Beta  occ. eigenvalues --  -24.64242  -1.14867  -0.50602  -0.38430  -0.38430
  Beta virt. eigenvalues --   -0.06339  -0.00104   0.31388   0.39184   0.93811
  Beta virt. eigenvalues --    0.93811   0.99067   1.29204   1.35527   1.35527
  Beta virt. eigenvalues --    1.49500   1.49500   1.49526   1.84615   2.32815

 Mulliken charges and spin densities:
               1          2
     1  H    0.330706   0.000516
     2  H    0.001166   0.998641
     3  F   -0.331872   0.000842
 Sum of Mulliken charges =   0.00000   1.00000

 Dipole moment (field-independent basis, Debye):
    X=             -2.1080    Y=             -0.0000    Z=              0.0000  Tot=              2.1080
 Quadrupole moment (field-independent basis, Debye-Ang):
   XX=             -8.3724   YY=             -7.0062   ZZ=             -7.0062
   XY=             -0.0000   XZ=              0.0000   YZ=              0.0000

  Exact polarizability:       7.407       0.000       2.383       0.000      -0.000       2.383
 Approx polarizability:       9.341       0.000       2.352       0.000      -0.000       2.352

 ******    1 imaginary frequencies (negative Signs) ******

                      1                      2                      3
                      A                      A                      A
 Frequencies --    -52.8861              1120.5746              1120.5746
 Red. masses --      1.0532                 1.0360                 1.0360
 Frc consts  --      0.0017                 0.7665                 0.7665
 IR Inten    --      0.0741               162.4548               162.4548

                      4
                      A
 Frequencies --   2452.0119
 Red. masses --      1.0584
 Frc consts  --      3.7492
 IR Inten    --     84.8129

 - Thermochemistry -
 -------------------
 Temperature   298.150 Kelvin.  Pressure   1.00000 Atm.
 Atom     1 has atomic number  1 and mass   1.00783

 Molecular mass:    21.01405 amu.
 Principal axes and moments of inertia in atomic units:
                           1         2         3
     Eigenvalues --     0.00000  71.53111  71.53111
           X            1.00000  -0.00000   0.00000
           Y            0.00000   1.00000   0.00000
           Z            0.00000   0.00000   1.00000
 This molecule is a prolate symmetric top.
 Rotational symmetry number  1.
 Rotational temperature (Kelvin)      1.21086
 Rotational constant (GHZ):          25.230160
    1 imaginary frequencies ignored.
 Zero-point vibrational energy      28071.3 (Joules/Mol)
                                    6.70921 (Kcal/Mol)
 Vibrational temperatures:   1612.26  1612.26  3527.90
          (Kelvin)

 Zero-point correction=                           0.010692 (Hartree/Particle)
 Thermal correction to Energy=                    0.013098
 Thermal correction to Enthalpy=                  0.014043
 Thermal correction to Gibbs Free Energy=        -0.009472
 Sum of electronic and zero-point Energies=           -100.947595
 Sum of electronic and thermal Energies=              -100.945188
 Sum of electronic and thermal Enthalpies=            -100.944244
 Sum of electronic and thermal Free Energies=         -100.967758

                     E (Thermal)             CV                S
                      KCal/Mol        Cal/Mol-Kelvin    Cal/Mol-Kelvin
 Total                    8.219              5.496             49.490
 Electronic               0.000              0.000              1.377
 Translational            0.889              2.981             35.068
 Rotational               0.592              1.987             12.929
 Vibrational              6.738              0.528              0.115

 Normal termination of Gaussian 16 at Fri Aug 22 16:03:54 2025.
