 Gaussian 16, Revision C.01,
 Gaussian 16:  ES64L-G16RevC.01  3-Jul-2019

 -----------------------------------------
 # sp b3lyp/6-311g** Force nosymm scf=(qc)
 -----------------------------------------

 -------------------
 Title Card Required
 -------------------
 Symbolic Z-matrix:
 Charge =  0 Multiplicity = 2

                          Input orientation:
 ---------------------------------------------------------------------
 Center     Atomic      Atomic             Coordinates (Angstroms)
 Number     Number       Type             X           Y           Z
 ---------------------------------------------------------------------
      1          1           0        0.000000    0.000000    0.000000
      2          1           0       -3.600000    0.000000    0.000000
      3          9           0        1.700000    0.000000    0.000000
 ---------------------------------------------------------------------

 SCF Done:  E(UB3LYP) =  -100.814506829     a.u. after   10 cycles

 Alpha  occ. eigenvalues --  -24.64233  -1.08848  -0.40960  -0.35999  -0.35999
 Alpha  occ. eigenvalues --   -0.33951
 Alpha virt. eigenvalues --   -0.18788   0.19808   0.27340   0.94865   0.94865
 Alpha virt. eigenvalues --    0.96465   1.07336   1.23555   1.23555   1.23563
 Alpha virt. eigenvalues --    1.27607   1.27607   1.70202   2.12657   2.16555

  Beta  occ. eigenvalues --  -24.64246  -1.08883  -0.40976  -0.36012  -0.36012
  Beta virt. eigenvalues --   -0.18844  -0.06779   0.22636   0.38078   0.94873
  Beta virt. eigenvalues --    0.94873   0.96498   1.07340   1.27710   1.27710
  Beta virt. eigenvalues --    1.45630   1.46075   1.46075   1.70280   2.15643

 Mulliken charges and spin densities:
               1          2
     1  H    0.326169   0.006006
     2  H    0.001996   0.997925
     3  F   -0.328166  -0.003931
 Sum of Mulliken charges =  -0.00000   1.00000

 Dipole moment (field-independent basis, Debye):
    X=             -2.7830    Y=             -0.0000    Z=              0.0000  Tot=              2.7830
 Quadrupole moment (field-independent basis, Debye-Ang):
   XX=            -10.6382   YY=             -7.4187   ZZ=             -7.4187
   XY=             -0.0000   XZ=              0.0000   YZ=             -0.0000

  Exact polarizability:      20.169       0.000       2.103      -0.000      -0.000       2.103
 Approx polarizability:      46.891      -0.000       2.015      -0.000       0.000       2.015

 ******    2 imaginary frequencies (negative Signs) ******

                      1                      2                      3
                      A                      A                      A
 Frequencies --  -1184.8018               -83.3181               867.6254
 Red. masses --      1.0575                 1.0540                 1.0290
 Frc consts  --      0.8747                 0.0043                 0.4564
 IR Inten    --     36.5463                 0.3119               101.9174

                      4
                      A
 Frequencies --    867.6254
 Red. masses --      1.0290
 Frc consts  --      0.4564
 IR Inten    --    101.9174

 - Thermochemistry -
 -------------------
 Temperature   298.150 Kelvin.  Pressure   1.00000 Atm.
 Atom     1 has atomic number  1 and mass   1.00783

 Molecular mass:    21.01405 amu.
 Principal axes and moments of inertia in atomic units:
                           1         2         3
     Eigenvalues --     0.00000 103.03955 103.03955
           X            1.00000  -0.00000   0.00000
           Y            0.00000   1.00000   0.00000
           Z            0.00000   0.00000   1.00000
 This molecule is a prolate symmetric top.
 Rotational symmetry number  1.
 Rotational temperature (Kelvin)      0.84059
 Rotational constant (GHZ):          17.515035
    2 imaginary frequencies ignored.
 Zero-point vibrational energy      10379.1 (Joules/Mol)
                                    2.48067 (Kcal/Mol)
 Vibrational temperatures:   1248.32  1248.32
          (Kelvin)

 Zero-point correction=                           0.003953 (Hartree/Particle)
 Thermal correction to Energy=                    0.006436
 Thermal correction to Enthalpy=                  0.007380
 Thermal correction to Gibbs Free Energy=        -0.016575
 Sum of electronic and zero-point Energies=           -100.810554
 Sum of electronic and thermal Energies=              -100.808071
 Sum of electronic and thermal Enthalpies=            -100.807127
 Sum of electronic and thermal Free Energies=         -100.831082

                     E (Thermal)             CV                S
                      KCal/Mol        Cal/Mol-Kelvin    Cal/Mol-Kelvin
 Total                    4.038              6.059             50.418
 Electronic               0.000              0.000              1.377
 Translational            0.889              2.981             35.068
 Rotational               0.592              1.987             13.655
 Vibrational              2.557              1.091              0.318

 Normal termination of Gaussian 16 at Fri Aug 22 16:38:50 2025.
