 Gaussian 16, Revision C.01,
 Gaussian 16:  ES64L-G16RevC.01  3-Jul-2019

 -----------------------------------------
 # sp b3lyp/6-311g** Force nosymm scf=(qc)
 -----------------------------------------

 -------------------
 Title Card Required
 -------------------
 Symbolic Z-matrix:
 Charge =  0 Multiplicity = 2

                          Input orientation:
 ---------------------------------------------------------------------
 Center     Atomic      Atomic             Coordinates (Angstroms)
 Number     Number       Type             X           Y           Z
 ---------------------------------------------------------------------
      1          1           0        0.000000    0.000000    0.000000
      2          1           0       -3.900000    0.000000    0.000000
      3          9           0        1.900000    0.000000    0.000000
 ---------------------------------------------------------------------

 SCF Done:  E(UB3LYP) =  -100.794686848     a.u. after   13 cycles

 Alpha  occ. eigenvalues --  -24.67442  -1.13719  -0.46343  -0.39086  -0.39086
 Alpha  occ. eigenvalues --   -0.33303
 Alpha virt. eigenvalues --   -0.14456   0.22137   0.30454   0.90281   0.94860
 Alpha virt. eigenvalues --    0.94860   1.05592   1.24191   1.24202   1.24202
 Alpha virt. eigenvalues --    1.34500   1.34500   1.65259   2.13540   2.27796

  Beta  occ. eigenvalues --  -24.65265  -1.07674  -0.38620  -0.36950  -0.36950
  Beta virt. eigenvalues --   -0.20046  -0.06380   0.22044   0.38012   0.91106
  Beta virt. eigenvalues --    0.95186   0.95186   1.07997   1.22627   1.22627
  Beta virt. eigenvalues --    1.46250   1.46508   1.46508   1.59164   2.11634

 Mulliken charges and spin densities:
               1          2
     1  H    0.223053  -0.683600
     2  H    0.000642   0.999127
     3  F   -0.223695   0.684473
 Sum of Mulliken charges =   0.00000   1.00000

 Dipole moment (field-independent basis, Debye):
    X=             -2.0976    Y=             -0.0000    Z=              0.0000  Tot=              2.0976
 Quadrupole moment (field-independent basis, Debye-Ang):
   XX=            -10.1849   YY=             -7.4627   ZZ=             -7.4627
   XY=             -0.0000   XZ=              0.0000   YZ=              0.0000

  Exact polarizability:      23.661      -0.000       2.078       0.000       0.000       2.078
 Approx polarizability:      36.014      -0.000       1.963       0.000      -0.000       1.963

 ******    2 imaginary frequencies (negative Signs) ******

                      1                      2                      3
                      A                      A                      A
 Frequencies --  -1305.2419               -72.7265               562.0681
 Red. masses --      1.0579                 1.0536                 1.0285
 Frc consts  --      1.0619                 0.0033                 0.1914
 IR Inten    --    131.1369                 0.0515                47.2205

                      4
                      A
 Frequencies --    562.0681
 Red. masses --      1.0285
 Frc consts  --      0.1914
 IR Inten    --     47.2205

 - Thermochemistry -
 -------------------
 Temperature   298.150 Kelvin.  Pressure   1.00000 Atm.
 Atom     1 has atomic number  1 and mass   1.00783

 Molecular mass:    21.01405 amu.
 Principal axes and moments of inertia in atomic units:
                           1         2         3
     Eigenvalues --     0.00000 123.82920 123.82920
           X            1.00000  -0.00000   0.00000
           Y            0.00000   1.00000   0.00000
           Z            0.00000   0.00000   1.00000
 This molecule is a prolate symmetric top.
 Rotational symmetry number  1.
 Rotational temperature (Kelvin)      0.69946
 Rotational constant (GHZ):          14.574439
    2 imaginary frequencies ignored.
 Zero-point vibrational energy       6723.8 (Joules/Mol)
                                    1.60703 (Kcal/Mol)
 Warning -- explicit consideration of   2 degrees of freedom as
           vibrations may cause significant error
 Vibrational temperatures:    808.69   808.69
          (Kelvin)

 Zero-point correction=                           0.002561 (Hartree/Particle)
 Thermal correction to Energy=                    0.005286
 Thermal correction to Enthalpy=                  0.006230
 Thermal correction to Gibbs Free Energy=        -0.018242
 Sum of electronic and zero-point Energies=           -100.792126
 Sum of electronic and thermal Energies=              -100.789401
 Sum of electronic and thermal Enthalpies=            -100.788457
 Sum of electronic and thermal Free Energies=         -100.812929

                     E (Thermal)             CV                S
                      KCal/Mol        Cal/Mol-Kelvin    Cal/Mol-Kelvin
 Total                    3.317              7.195             51.505
 Electronic               0.000              0.000              1.377
 Translational            0.889              2.981             35.068
 Rotational               0.592              1.987             14.020
 Vibrational              1.836              2.227              1.039
 Vibration     1          0.918              1.113              0.520
 Vibration     2          0.918              1.113              0.520

 Normal termination of Gaussian 16 at Fri Aug 22 16:51:36 2025.
