 Gaussian 16, Revision C.01,
 Gaussian 16:  ES64L-G16RevC.01  3-Jul-2019

 -----------------------------------------
 # sp b3lyp/6-311g** Force nosymm scf=(qc)
 -----------------------------------------

 -------------------
 Title Card Required
 -------------------
 Symbolic Z-matrix:
 Charge =  0 Multiplicity = 2

                          Input orientation:
 ---------------------------------------------------------------------
 Center     Atomic      Atomic             Coordinates (Angstroms)
 Number     Number       Type             X           Y           Z
 ---------------------------------------------------------------------
      1          1           0        0.000000    0.000000    0.000000
      2          1           0       -2.000000    0.000000    0.000000
      3          9           0        2.300000    0.000000    0.000000
 ---------------------------------------------------------------------

 SCF Done:  E(UB3LYP) =  -100.787027401     a.u. after   18 cycles

 Alpha  occ. eigenvalues --  -24.70539  -1.16804  -0.49636  -0.41684  -0.41684
 Alpha  occ. eigenvalues --   -0.35422
 Alpha virt. eigenvalues --   -0.13136   0.24483   0.31842   0.88768   0.94226
 Alpha virt. eigenvalues --    0.94226   1.05356   1.22503   1.22503   1.24322
 Alpha virt. eigenvalues --    1.34547   1.34547   1.51077   2.10978   2.33534

  Beta  occ. eigenvalues --  -24.67816  -1.09091  -0.38978  -0.38978  -0.35924
  Beta virt. eigenvalues --   -0.22818  -0.11721   0.26579   0.31875   0.93885
  Beta virt. eigenvalues --    0.95470   0.95470   1.08396   1.22548   1.22548
  Beta virt. eigenvalues --    1.30145   1.36686   1.36686   1.50404   2.11533

 Mulliken charges and spin densities:
               1          2
     1  H    0.082638  -0.732067
     2  H    0.035380   0.873498
     3  F   -0.118018   0.858569
 Sum of Mulliken charges =   0.00000   1.00000

 Dipole moment (field-independent basis, Debye):
    X=             -1.7108    Y=              0.0000    Z=              0.0000  Tot=              1.7108
 Quadrupole moment (field-independent basis, Debye-Ang):
   XX=             -8.4270   YY=             -7.6254   ZZ=             -7.6254
   XY=             -0.0000   XZ=             -0.0000   YZ=             -0.0000

  Exact polarizability:      56.173      -0.000       2.021       0.000       0.000       2.021
 Approx polarizability:      63.288       0.000       1.936       0.000      -0.000       1.936

 ******    2 imaginary frequencies (negative Signs) ******

                      1                      2                      3
                      A                      A                      A
 Frequencies --  -1428.8525              -465.0273               583.4553
 Red. masses --      1.0112                 1.1045                 1.0163
 Frc consts  --      1.2164                 0.1407                 0.2038
 IR Inten    --     91.8973                50.8902                 3.9349

                      4
                      A
 Frequencies --    583.4553
 Red. masses --      1.0163
 Frc consts  --      0.2038
 IR Inten    --      3.9349

 - Thermochemistry -
 -------------------
 Temperature   298.150 Kelvin.  Pressure   1.00000 Atm.
 Atom     1 has atomic number  1 and mass   1.00783

 Molecular mass:    21.01405 amu.
 Principal axes and moments of inertia in atomic units:
                           1         2         3
     Eigenvalues --     0.00000  78.06567  78.06567
           X            1.00000  -0.00000   0.00000
           Y            0.00000   1.00000   0.00000
           Z            0.00000   0.00000   1.00000
 This molecule is a prolate symmetric top.
 Rotational symmetry number  1.
 Rotational temperature (Kelvin)      1.10950
 Rotational constant (GHZ):          23.118245
    2 imaginary frequencies ignored.
 Zero-point vibrational energy       6979.7 (Joules/Mol)
                                    1.66818 (Kcal/Mol)
 Warning -- explicit consideration of   2 degrees of freedom as
           vibrations may cause significant error
 Vibrational temperatures:    839.46   839.46
          (Kelvin)

 Zero-point correction=                           0.002658 (Hartree/Particle)
 Thermal correction to Energy=                    0.005357
 Thermal correction to Enthalpy=                  0.006302
 Thermal correction to Gibbs Free Energy=        -0.017696
 Sum of electronic and zero-point Energies=           -100.784369
 Sum of electronic and thermal Energies=              -100.781670
 Sum of electronic and thermal Enthalpies=            -100.780726
 Sum of electronic and thermal Free Energies=         -100.804723

                     E (Thermal)             CV                S
                      KCal/Mol        Cal/Mol-Kelvin    Cal/Mol-Kelvin
 Total                    3.362              7.102             50.506
 Electronic               0.000              0.000              1.377
 Translational            0.889              2.981             35.068
 Rotational               0.592              1.987             13.103
 Vibrational              1.881              2.134              0.958
 Vibration     1          0.940              1.067              0.479
 Vibration     2          0.940              1.067              0.479

 Normal termination of Gaussian 16 at Fri Aug 22 17:21:53 2025.
