 Gaussian 16, Revision C.01,
 Gaussian 16:  ES64L-G16RevC.01  3-Jul-2019

 -----------------------------------------
 # sp b3lyp/6-311g** Force nosymm scf=(qc)
 -----------------------------------------

 -------------------
 Title Card Required
 -------------------
 Symbolic Z-matrix:
 Charge =  0 Multiplicity = 2

                          Input orientation:
 ---------------------------------------------------------------------
 Center     Atomic      Atomic             Coordinates (Angstroms)
 Number     Number       Type             X           Y           Z
 ---------------------------------------------------------------------
      1          1           0        0.000000    0.000000    0.000000
      2          1           0       -3.100000    0.000000    0.000000
      3          9           0        3.150000    0.000000    0.000000
 ---------------------------------------------------------------------

 SCF Done:  E(UB3LYP) =  -100.760814632     a.u. after   23 cycles

 Alpha  occ. eigenvalues --  -24.74592  -1.20614  -0.53712  -0.45099  -0.45099
 Alpha  occ. eigenvalues --   -0.32577
 Alpha virt. eigenvalues --   -0.08432   0.24617   0.35587   0.88887   0.91969
 Alpha virt. eigenvalues --    0.91969   1.03121   1.24952   1.24952   1.25533
 Alpha virt. eigenvalues --    1.43342   1.43342   1.43521   2.15450   2.39628

  Beta  occ. eigenvalues --  -24.71530  -1.11831  -0.42033  -0.42033  -0.33420
  Beta virt. eigenvalues --   -0.25062  -0.07340   0.24491   0.37028   0.93442
  Beta virt. eigenvalues --    0.93442   0.97768   1.06990   1.23968   1.23968
  Beta virt. eigenvalues --    1.24557   1.44906   1.45048   1.45048   2.15920

 Mulliken charges and spin densities:
               1          2
     1  H    0.025913  -0.964691
     2  H    0.000981   0.994285
     3  F   -0.026894   0.970406
 Sum of Mulliken charges =  -0.00000   1.00000

 Dipole moment (field-independent basis, Debye):
    X=             -0.4498    Y=             -0.0000    Z=             -0.0000  Tot=              0.4498
 Quadrupole moment (field-independent basis, Debye-Ang):
   XX=             -7.9320   YY=             -7.6241   ZZ=             -7.6241
   XY=             -0.0000   XZ=             -0.0000   YZ=             -0.0000

  Exact polarizability:      32.710      -0.000       2.025      -0.000      -0.000       2.025
 Approx polarizability:      29.951      -0.000       1.927      -0.000       0.000       1.927

 ******    2 imaginary frequencies (negative Signs) ******

                      1                      2                      3
                      A                      A                      A
 Frequencies --   -381.2128              -161.3563               137.1715
 Red. masses --      1.0240                 1.0896                 1.0178
 Frc consts  --      0.0877                 0.0167                 0.0113
 IR Inten    --     25.5272                 4.5452                 0.5966

                      4
                      A
 Frequencies --    137.1715
 Red. masses --      1.0178
 Frc consts  --      0.0113
 IR Inten    --      0.5966

 - Thermochemistry -
 -------------------
 Temperature   298.150 Kelvin.  Pressure   1.00000 Atm.
 Atom     1 has atomic number  1 and mass   1.00783

 Molecular mass:    21.01405 amu.
 Principal axes and moments of inertia in atomic units:
                           1         2         3
     Eigenvalues --     0.00000 161.04589 161.04589
           X            1.00000  -0.00000   0.00000
           Y            0.00000   1.00000   0.00000
           Z            0.00000   0.00000   1.00000
 This molecule is a prolate symmetric top.
 Rotational symmetry number  1.
 Rotational temperature (Kelvin)      0.53782
 Rotational constant (GHZ):          11.206379
    2 imaginary frequencies ignored.
 Zero-point vibrational energy       1640.9 (Joules/Mol)
                                    0.39219 (Kcal/Mol)
 Warning -- explicit consideration of   2 degrees of freedom as
           vibrations may cause significant error
 Vibrational temperatures:    197.36   197.36
          (Kelvin)

 Zero-point correction=                           0.000625 (Hartree/Particle)
 Thermal correction to Energy=                    0.004317
 Thermal correction to Enthalpy=                  0.005261
 Thermal correction to Gibbs Free Energy=        -0.021666
 Sum of electronic and zero-point Energies=           -100.760190
 Sum of electronic and thermal Energies=              -100.756497
 Sum of electronic and thermal Enthalpies=            -100.755553
 Sum of electronic and thermal Free Energies=         -100.782481

                     E (Thermal)             CV                S
                      KCal/Mol        Cal/Mol-Kelvin    Cal/Mol-Kelvin
 Total                    2.709              8.800             56.673
 Electronic               0.000              0.000              1.377
 Translational            0.889              2.981             35.068
 Rotational               0.592              1.987             14.542
 Vibrational              1.228              3.832              5.686
 Vibration     1          0.614              1.916              2.843
 Vibration     2          0.614              1.916              2.843

 Normal termination of Gaussian 16 at Fri Aug 22 20:11:19 2025.
