 Gaussian 16, Revision C.01,
 Gaussian 16:  ES64L-G16RevC.01  3-Jul-2019

 -----------------------------------------
 # sp b3lyp/6-311g** Force nosymm scf=(qc)
 -----------------------------------------

 -------------------
 Title Card Required
 -------------------
 Symbolic Z-matrix:
 Charge =  0 Multiplicity = 2

                          Input orientation:
 ---------------------------------------------------------------------
 Center     Atomic      Atomic             Coordinates (Angstroms)
 Number     Number       Type             X           Y           Z
 ---------------------------------------------------------------------
      1          1           0        0.000000    0.000000    0.000000
      2          1           0       -2.100000    0.000000    0.000000
      3          9           0        2.950000    0.000000    0.000000
 ---------------------------------------------------------------------

 SCF Done:  E(UB3LYP) =  -100.772884165     a.u. after   23 cycles

 Alpha  occ. eigenvalues --  -24.74090  -1.20144  -0.53207  -0.44675  -0.44675
 Alpha  occ. eigenvalues --   -0.33651
 Alpha virt. eigenvalues --   -0.11659   0.25471   0.32286   0.89795   0.92275
 Alpha virt. eigenvalues --    0.92275   1.04280   1.20536   1.24264   1.24264
 Alpha virt. eigenvalues --    1.37224   1.37224   1.46618   2.12672   2.35736

  Beta  occ. eigenvalues --  -24.71067  -1.11480  -0.41649  -0.41649  -0.33941
  Beta virt. eigenvalues --   -0.24831  -0.10856   0.25971   0.32954   0.93734
  Beta virt. eigenvalues --    0.93734   0.98481   1.08193   1.20343   1.23875
  Beta virt. eigenvalues --    1.23875   1.38503   1.38503   1.47637   2.13883

 Mulliken charges and spin densities:
               1          2
     1  H    0.023363  -0.857698
     2  H    0.013853   0.899800
     3  F   -0.037217   0.957898
 Sum of Mulliken charges =  -0.00000   1.00000

 Dipole moment (field-independent basis, Debye):
    X=             -0.7017    Y=              0.0000    Z=             -0.0000  Tot=              0.7017
 Quadrupole moment (field-independent basis, Debye-Ang):
   XX=             -7.5764   YY=             -7.6936   ZZ=             -7.6936
   XY=              0.0000   XZ=             -0.0000   YZ=             -0.0000

  Exact polarizability:      56.660      -0.000       2.006       0.000       0.000       2.006
 Approx polarizability:      51.345      -0.000       1.926       0.000      -0.000       1.926

 ******    2 imaginary frequencies (negative Signs) ******

                      1                      2                      3
                      A                      A                      A
 Frequencies --  -1198.0045              -254.8918               471.2096
 Red. masses --      1.0082                 1.1081                 1.0143
 Frc consts  --      0.8525                 0.0424                 0.1327
 IR Inten    --     32.6536                29.7846                 0.2762

                      4
                      A
 Frequencies --    471.2096
 Red. masses --      1.0143
 Frc consts  --      0.1327
 IR Inten    --      0.2762

 - Thermochemistry -
 -------------------
 Temperature   298.150 Kelvin.  Pressure   1.00000 Atm.
 Atom     1 has atomic number  1 and mass   1.00783

 Molecular mass:    21.01405 amu.
 Principal axes and moments of inertia in atomic units:
                           1         2         3
     Eigenvalues --     0.00000 112.05724 112.05724
           X            1.00000  -0.00000   0.00000
           Y            0.00000   1.00000   0.00000
           Z            0.00000   0.00000   1.00000
 This molecule is a prolate symmetric top.
 Rotational symmetry number  1.
 Rotational temperature (Kelvin)      0.77294
 Rotational constant (GHZ):          16.105529
    2 imaginary frequencies ignored.
 Zero-point vibrational energy       5636.9 (Joules/Mol)
                                    1.34726 (Kcal/Mol)
 Warning -- explicit consideration of   2 degrees of freedom as
           vibrations may cause significant error
 Vibrational temperatures:    677.97   677.97
          (Kelvin)

 Zero-point correction=                           0.002147 (Hartree/Particle)
 Thermal correction to Energy=                    0.005000
 Thermal correction to Enthalpy=                  0.005944
 Thermal correction to Gibbs Free Energy=        -0.018637
 Sum of electronic and zero-point Energies=           -100.770737
 Sum of electronic and thermal Energies=              -100.767884
 Sum of electronic and thermal Enthalpies=            -100.766940
 Sum of electronic and thermal Free Energies=         -100.791521

                     E (Thermal)             CV                S
                      KCal/Mol        Cal/Mol-Kelvin    Cal/Mol-Kelvin
 Total                    3.138              7.596             51.735
 Electronic               0.000              0.000              1.377
 Translational            0.889              2.981             35.068
 Rotational               0.592              1.987             13.821
 Vibrational              1.656              2.628              1.468
 Vibration     1          0.828              1.314              0.734
 Vibration     2          0.828              1.314              0.734

 Normal termination of Gaussian 16 at Fri Aug 22 19:17:26 2025.
