 Gaussian 16, Revision C.01,
 Gaussian 16:  ES64L-G16RevC.01  3-Jul-2019

 -----------------------------------------
 # sp b3lyp/6-311g** Force nosymm scf=(qc)
 -----------------------------------------

 -------------------
 Title Card Required
 -------------------
 Symbolic Z-matrix:
 Charge =  0 Multiplicity = 2

                          Input orientation:
 ---------------------------------------------------------------------
 Center     Atomic      Atomic             Coordinates (Angstroms)
 Number     Number       Type             X           Y           Z
 ---------------------------------------------------------------------
      1          1           0        0.000000    0.000000    0.000000
      2          1           0       -1.200000    0.000000    0.000000
      3          9           0        2.350000    0.000000    0.000000
 ---------------------------------------------------------------------

 SCF Done:  E(UB3LYP) =  -100.873772606     a.u. after   16 cycles

 Alpha  occ. eigenvalues --  -24.74447  -1.20501  -0.53736  -0.45012  -0.45012
 Alpha  occ. eigenvalues --   -0.38013
 Alpha virt. eigenvalues --   -0.04703   0.22370   0.34821   0.88842   0.91791
 Alpha virt. eigenvalues --    0.91791   1.08319   1.11195   1.11195   1.26153
 Alpha virt. eigenvalues --    1.52729   1.52729   2.06073   2.30103   2.54354

  Beta  occ. eigenvalues --  -24.71440  -1.11904  -0.42008  -0.42008  -0.37706
  Beta virt. eigenvalues --   -0.25593  -0.03881   0.22848   0.35303   0.93209
  Beta virt. eigenvalues --    0.93209   0.96653   1.11375   1.11717   1.11717
  Beta virt. eigenvalues --    1.28236   1.53152   1.53152   2.06714   2.30765

 Mulliken charges and spin densities:
               1          2
     1  H    0.005525  -0.060307
     2  H    0.033098   0.111430
     3  F   -0.038622   0.948877
 Sum of Mulliken charges =   0.00000   1.00000

 Dipole moment (field-independent basis, Debye):
    X=             -0.6421    Y=              0.0000    Z=             -0.0000  Tot=              0.6421
 Quadrupole moment (field-independent basis, Debye-Ang):
   XX=             -6.3054   YY=             -7.4485   ZZ=             -7.4485
   XY=              0.0000   XZ=             -0.0000   YZ=              0.0000

  Exact polarizability:      38.873       0.000       2.130      -0.000       0.000       2.130
 Approx polarizability:      50.462       0.000       2.127      -0.000      -0.000       2.127

 ******    2 imaginary frequencies (negative Signs) ******

                      1                      2                      3
                      A                      A                      A
 Frequencies --   -929.0185              -135.8332              1416.1152
 Red. masses --      1.0159                 1.0989                 1.0118
 Frc consts  --      0.5166                 0.0119                 1.1955
 IR Inten    --    471.6843                 0.0110                 0.0171

                      4
                      A
 Frequencies --   1416.1152
 Red. masses --      1.0118
 Frc consts  --      1.1955
 IR Inten    --      0.0171

 - Thermochemistry -
 -------------------
 Temperature   298.150 Kelvin.  Pressure   1.00000 Atm.
 Atom     1 has atomic number  1 and mass   1.00783

 Molecular mass:    21.01405 amu.
 Principal axes and moments of inertia in atomic units:
                           1         2         3
     Eigenvalues --     0.00000  59.22358  59.22358
           X            1.00000  -0.00000   0.00000
           Y            0.00000   1.00000   0.00000
           Z            0.00000   0.00000   1.00000
 This molecule is a prolate symmetric top.
 Rotational symmetry number  1.
 Rotational temperature (Kelvin)      1.46249
 Rotational constant (GHZ):          30.473354
    2 imaginary frequencies ignored.
 Zero-point vibrational energy      16940.5 (Joules/Mol)
                                    4.04888 (Kcal/Mol)
 Vibrational temperatures:   2037.47  2037.47
          (Kelvin)

 Zero-point correction=                           0.006452 (Hartree/Particle)
 Thermal correction to Energy=                    0.008827
 Thermal correction to Enthalpy=                  0.009771
 Thermal correction to Gibbs Free Energy=        -0.013526
 Sum of electronic and zero-point Energies=           -100.867320
 Sum of electronic and thermal Energies=              -100.864946
 Sum of electronic and thermal Enthalpies=            -100.864002
 Sum of electronic and thermal Free Energies=         -100.887299

                     E (Thermal)             CV                S
                      KCal/Mol        Cal/Mol-Kelvin    Cal/Mol-Kelvin
 Total                    5.539              5.168             49.033
 Electronic               0.000              0.000              1.377
 Translational            0.889              2.981             35.068
 Rotational               0.592              1.987             12.554
 Vibrational              4.058              0.200              0.034

 Normal termination of Gaussian 16 at Fri Aug 22 17:25:30 2025.
