 Gaussian 16, Revision C.01,
 Gaussian 16:  ES64L-G16RevC.01  3-Jul-2019

 -----------------------------------------
 # sp b3lyp/6-311g** Force nosymm scf=(qc)
 -----------------------------------------

 -------------------
 Title Card Required
 -------------------
 Symbolic Z-matrix:
 Charge =  0 Multiplicity = 2

                          Input orientation:
 ---------------------------------------------------------------------
 Center     Atomic      Atomic             Coordinates (Angstroms)
 Number     Number       Type             X           Y           Z
 ---------------------------------------------------------------------
      1          1           0        0.000000    0.000000    0.000000
      2          1           0       -3.150000    0.000000    0.000000
      3          9           0        1.050000    0.000000    0.000000
 ---------------------------------------------------------------------

 SCF Done:  E(UB3LYP) =  -100.958353708     a.u. after    6 cycles

 Alpha  occ. eigenvalues --  -24.64225  -1.14857  -0.50598  -0.38415  -0.38415
 Alpha  occ. eigenvalues --   -0.34084
 Alpha virt. eigenvalues --   -0.00754   0.24203   0.32499   0.93828   0.93828
 Alpha virt. eigenvalues --    0.99078   1.23207   1.23441   1.23441   1.30347
 Alpha virt. eigenvalues --    1.35551   1.35551   1.84835   2.14289   2.33207

  Beta  occ. eigenvalues --  -24.64220  -1.14844  -0.50581  -0.38410  -0.38410
  Beta virt. eigenvalues --   -0.07320   0.00378   0.31772   0.38579   0.93829
  Beta virt. eigenvalues --    0.93829   0.99084   1.29696   1.35544   1.35544
  Beta virt. eigenvalues --    1.48262   1.48262   1.48910   1.84918   2.33168

 Mulliken charges and spin densities:
               1          2
     1  H    0.329887   0.000891
     2  H    0.002174   0.997345
     3  F   -0.332061   0.001764
 Sum of Mulliken charges =   0.00000   1.00000

 Dipole moment (field-independent basis, Debye):
    X=             -2.1235    Y=             -0.0000    Z=              0.0000  Tot=              2.1235
 Quadrupole moment (field-independent basis, Debye-Ang):
   XX=             -8.3145   YY=             -7.0058   ZZ=             -7.0058
   XY=             -0.0000   XZ=              0.0000   YZ=             -0.0000

  Exact polarizability:       7.891       0.000       2.388      -0.000      -0.000       2.388
 Approx polarizability:       9.762      -0.000       2.357      -0.000       0.000       2.357

 ******    1 imaginary frequencies (negative Signs) ******

                      1                      2                      3
                      A                      A                      A
 Frequencies --    -71.2416              1115.8829              1115.8829
 Red. masses --      1.0531                 1.0346                 1.0346
 Frc consts  --      0.0031                 0.7590                 0.7590
 IR Inten    --      0.1979               159.7291               159.7291

                      4
                      A
 Frequencies --   2449.8955
 Red. masses --      1.0585
 Frc consts  --      3.7430
 IR Inten    --     90.8453

 - Thermochemistry -
 -------------------
 Temperature   298.150 Kelvin.  Pressure   1.00000 Atm.
 Atom     1 has atomic number  1 and mass   1.00783

 Molecular mass:    21.01405 amu.
 Principal axes and moments of inertia in atomic units:
                           1         2         3
     Eigenvalues --     0.00000  62.69694  62.69694
           X            1.00000  -0.00000   0.00000
           Y            0.00000   1.00000   0.00000
           Z            0.00000   0.00000   1.00000
 This molecule is a prolate symmetric top.
 Rotational symmetry number  1.
 Rotational temperature (Kelvin)      1.38147
 Rotational constant (GHZ):          28.785156
    1 imaginary frequencies ignored.
 Zero-point vibrational energy      28002.6 (Joules/Mol)
                                    6.69277 (Kcal/Mol)
 Vibrational temperatures:   1605.51  1605.51  3524.85
          (Kelvin)

 Zero-point correction=                           0.010666 (Hartree/Particle)
 Thermal correction to Energy=                    0.013073
 Thermal correction to Enthalpy=                  0.014017
 Thermal correction to Gibbs Free Energy=        -0.009373
 Sum of electronic and zero-point Energies=           -100.947688
 Sum of electronic and thermal Energies=              -100.945281
 Sum of electronic and thermal Enthalpies=            -100.944337
 Sum of electronic and thermal Free Energies=         -100.967727

                     E (Thermal)             CV                S
                      KCal/Mol        Cal/Mol-Kelvin    Cal/Mol-Kelvin
 Total                    8.203              5.503             49.230
 Electronic               0.000              0.000              1.377
 Translational            0.889              2.981             35.068
 Rotational               0.592              1.987             12.667
 Vibrational              6.722              0.535              0.117

 Normal termination of Gaussian 16 at Fri Aug 22 16:03:42 2025.
