 Gaussian 16, Revision C.01,
 Gaussian 16:  ES64L-G16RevC.01  3-Jul-2019

 -----------------------------------------
 # sp b3lyp/6-311g** Force nosymm scf=(qc)
 -----------------------------------------

 -------------------
 Title Card Required
 -------------------
 Symbolic Z-matrix:
 Charge =  0 Multiplicity = 2

                          Input orientation:
 ---------------------------------------------------------------------
 Center     Atomic      Atomic             Coordinates (Angstroms)
 Number     Number       Type             X           Y           Z
 ---------------------------------------------------------------------
      1          1           0        0.000000    0.000000    0.000000
      2          1           0       -2.300000    0.000000    0.000000
      3          9           0        2.850000    0.000000    0.000000
 ---------------------------------------------------------------------

 SCF Done:  E(UB3LYP) =  -100.768815826     a.u. after   21 cycles

 Alpha  occ. eigenvalues --  -24.73595  -1.19684  -0.52709  -0.44258  -0.44258
 Alpha  occ. eigenvalues --   -0.33517
 Alpha virt. eigenvalues --   -0.11407   0.25352   0.32925   0.90068   0.92575
 Alpha virt. eigenvalues --    0.92575   1.04915   1.24244   1.24244   1.25330
 Alpha virt. eigenvalues --    1.38146   1.38146   1.42340   2.14035   2.35107

  Beta  occ. eigenvalues --  -24.70605  -1.11126  -0.41267  -0.41267  -0.34169
  Beta virt. eigenvalues --   -0.24523  -0.10156   0.25901   0.33941   0.94023
  Beta virt. eigenvalues --    0.94023   0.98604   1.08770   1.23452   1.23452
  Beta virt. eigenvalues --    1.24673   1.40192   1.40192   1.44091   2.15089

 Mulliken charges and spin densities:
               1          2
     1  H    0.036176  -0.893683
     2  H    0.010997   0.946693
     3  F   -0.047173   0.946991
 Sum of Mulliken charges =  -0.00000   1.00000

 Dipole moment (field-independent basis, Debye):
    X=             -0.8098    Y=             -0.0000    Z=             -0.0000  Tot=              0.8098
 Quadrupole moment (field-independent basis, Debye-Ang):
   XX=             -8.0164   YY=             -7.6629   ZZ=             -7.6629
   XY=             -0.0000   XZ=             -0.0000   YZ=             -0.0000

  Exact polarizability:      50.914      -0.000       2.009      -0.000      -0.000       2.009
 Approx polarizability:      47.202      -0.000       1.921      -0.000       0.000       1.921

 ******    2 imaginary frequencies (negative Signs) ******

                      1                      2                      3
                      A                      A                      A
 Frequencies --   -923.9473              -279.0738               353.9047
 Red. masses --      1.0092                 1.1069                 1.0156
 Frc consts  --      0.5076                 0.0508                 0.0749
 IR Inten    --     28.6301                29.6551                 0.9057

                      4
                      A
 Frequencies --    353.9047
 Red. masses --      1.0156
 Frc consts  --      0.0749
 IR Inten    --      0.9057

 - Thermochemistry -
 -------------------
 Temperature   298.150 Kelvin.  Pressure   1.00000 Atm.
 Atom     1 has atomic number  1 and mass   1.00783

 Molecular mass:    21.01405 amu.
 Principal axes and moments of inertia in atomic units:
                           1         2         3
     Eigenvalues --     0.00000 113.64081 113.64081
           X            1.00000  -0.00000   0.00000
           Y            0.00000   1.00000   0.00000
           Z            0.00000   0.00000   1.00000
 This molecule is a prolate symmetric top.
 Rotational symmetry number  1.
 Rotational temperature (Kelvin)      0.76217
 Rotational constant (GHZ):          15.881101
    2 imaginary frequencies ignored.
 Zero-point vibrational energy       4233.6 (Joules/Mol)
                                    1.01186 (Kcal/Mol)
 Warning -- explicit consideration of   2 degrees of freedom as
           vibrations may cause significant error
 Vibrational temperatures:    509.19   509.19
          (Kelvin)

 Zero-point correction=                           0.001613 (Hartree/Particle)
 Thermal correction to Energy=                    0.004687
 Thermal correction to Enthalpy=                  0.005631
 Thermal correction to Gibbs Free Energy=        -0.019357
 Sum of electronic and zero-point Energies=           -100.767203
 Sum of electronic and thermal Energies=              -100.764129
 Sum of electronic and thermal Enthalpies=            -100.763185
 Sum of electronic and thermal Free Energies=         -100.788173

                     E (Thermal)             CV                S
                      KCal/Mol        Cal/Mol-Kelvin    Cal/Mol-Kelvin
 Total                    2.941              8.103             52.592
 Electronic               0.000              0.000              1.377
 Translational            0.889              2.981             35.068
 Rotational               0.592              1.987             13.849
 Vibrational              1.460              3.134              2.298
 Vibration     1          0.730              1.567              1.149
 Vibration     2          0.730              1.567              1.149

 Normal termination of Gaussian 16 at Fri Aug 22 18:53:40 2025.
