 Gaussian 16, Revision C.01,
 Gaussian 16:  ES64L-G16RevC.01  3-Jul-2019

 -----------------------------------------
 # sp b3lyp/6-311g** Force nosymm scf=(qc)
 -----------------------------------------

 -------------------
 Title Card Required
 -------------------
 Symbolic Z-matrix:
 Charge =  0 Multiplicity = 2

                          Input orientation:
 ---------------------------------------------------------------------
 Center     Atomic      Atomic             Coordinates (Angstroms)
 Number     Number       Type             X           Y           Z
 ---------------------------------------------------------------------
      1          1           0        0.000000    0.000000    0.000000
      2          1           0       -3.150000    0.000000    0.000000
      3          9           0        3.550000    0.000000    0.000000
 ---------------------------------------------------------------------

 SCF Done:  E(UB3LYP) =  -100.759536662     a.u. after   31 cycles

 Alpha  occ. eigenvalues --  -24.75475  -1.21431  -0.54598  -0.45841  -0.45841
 Alpha  occ. eigenvalues --   -0.32391
 Alpha virt. eigenvalues --   -0.07635   0.24733   0.36433   0.87457   0.91425
 Alpha virt. eigenvalues --    0.91425   1.01691   1.25132   1.25132   1.25606
 Alpha virt. eigenvalues --    1.44329   1.44467   1.44467   2.15534   2.40060

  Beta  occ. eigenvalues --  -24.72355  -1.12467  -0.42714  -0.42714  -0.32800
  Beta virt. eigenvalues --   -0.25531  -0.07144   0.24512   0.37223   0.92916
  Beta virt. eigenvalues --    0.92916   0.96634   1.05724   1.24662   1.24662
  Beta virt. eigenvalues --    1.25106   1.45085   1.45253   1.45253   2.15771

 Mulliken charges and spin densities:
               1          2
     1  H    0.009502  -0.983931
     2  H    0.000408   0.994881
     3  F   -0.009910   0.989050
 Sum of Mulliken charges =  -0.00000   1.00000

 Dipole moment (field-independent basis, Debye):
    X=             -0.1872    Y=             -0.0000    Z=             -0.0000  Tot=              0.1872
 Quadrupole moment (field-independent basis, Debye-Ang):
   XX=             -7.2764   YY=             -7.6298   ZZ=             -7.6298
   XY=             -0.0000   XZ=             -0.0000   YZ=              0.0000

  Exact polarizability:      23.813      -0.000       2.035      -0.000      -0.000       2.035
 Approx polarizability:      18.333      -0.000       1.933      -0.000      -0.000       1.933

 ******    2 imaginary frequencies (negative Signs) ******

                      1                      2                      3
                      A                      A                      A
 Frequencies --   -307.2701              -120.6473               101.7437
 Red. masses --      1.0131                 1.1023                 1.0166
 Frc consts  --      0.0564                 0.0095                 0.0062
 IR Inten    --      6.8973                 2.9141                 0.0737

                      4
                      A
 Frequencies --    101.7438
 Red. masses --      1.0166
 Frc consts  --      0.0062
 IR Inten    --      0.0737

 - Thermochemistry -
 -------------------
 Temperature   298.150 Kelvin.  Pressure   1.00000 Atm.
 Atom     1 has atomic number  1 and mass   1.00783

 Molecular mass:    21.01405 amu.
 Principal axes and moments of inertia in atomic units:
                           1         2         3
     Eigenvalues --     0.00000 188.78148 188.78148
           X            1.00000  -0.00000   0.00000
           Y            0.00000   1.00000   0.00000
           Z            0.00000   0.00000   1.00000
 This molecule is a prolate symmetric top.
 Rotational symmetry number  1.
 Rotational temperature (Kelvin)      0.45881
 Rotational constant (GHZ):           9.559948
    2 imaginary frequencies ignored.
 Zero-point vibrational energy       1217.1 (Joules/Mol)
                                    0.29090 (Kcal/Mol)
 Warning -- explicit consideration of   2 degrees of freedom as
           vibrations may cause significant error
 Vibrational temperatures:    146.39   146.39
          (Kelvin)

 Zero-point correction=                           0.000464 (Hartree/Particle)
 Thermal correction to Energy=                    0.004287
 Thermal correction to Enthalpy=                  0.005231
 Thermal correction to Gibbs Free Energy=        -0.022396
 Sum of electronic and zero-point Energies=           -100.759073
 Sum of electronic and thermal Energies=              -100.755250
 Sum of electronic and thermal Enthalpies=            -100.754306
 Sum of electronic and thermal Free Energies=         -100.781932

                     E (Thermal)             CV                S
                      KCal/Mol        Cal/Mol-Kelvin    Cal/Mol-Kelvin
 Total                    2.690              8.864             58.144
 Electronic               0.000              0.000              1.377
 Translational            0.889              2.981             35.068
 Rotational               0.592              1.987             14.858
 Vibrational              1.209              3.896              6.841
 Vibration     1          0.604              1.948              3.421
 Vibration     2          0.604              1.948              3.421

 Normal termination of Gaussian 16 at Fri Aug 22 22:40:52 2025.
