 Gaussian 16, Revision C.01,
 Gaussian 16:  ES64L-G16RevC.01  3-Jul-2019

 -----------------------------------------
 # sp b3lyp/6-311g** Force nosymm scf=(qc)
 -----------------------------------------

 -------------------
 Title Card Required
 -------------------
 Symbolic Z-matrix:
 Charge =  0 Multiplicity = 2

                          Input orientation:
 ---------------------------------------------------------------------
 Center     Atomic      Atomic             Coordinates (Angstroms)
 Number     Number       Type             X           Y           Z
 ---------------------------------------------------------------------
      1          1           0        0.000000    0.000000    0.000000
      2          1           0       -2.250000    0.000000    0.000000
      3          9           0        3.000000    0.000000    0.000000
 ---------------------------------------------------------------------

 SCF Done:  E(UB3LYP) =  -100.768626542     a.u. after   22 cycles

 Alpha  occ. eigenvalues --  -24.74213  -1.20259  -0.53330  -0.44778  -0.44778
 Alpha  occ. eigenvalues --   -0.33365
 Alpha virt. eigenvalues --   -0.11192   0.25514   0.32860   0.89583   0.92201
 Alpha virt. eigenvalues --    0.92201   1.03963   1.24371   1.24434   1.24434
 Alpha virt. eigenvalues --    1.38349   1.38349   1.43378   2.13867   2.35425

  Beta  occ. eigenvalues --  -24.71180  -1.11564  -0.41742  -0.41742  -0.33820
  Beta virt. eigenvalues --   -0.24880  -0.10246   0.25817   0.33793   0.93664
  Beta virt. eigenvalues --    0.93664   0.98353   1.07894   1.23770   1.23855
  Beta virt. eigenvalues --    1.23855   1.39873   1.39873   1.44745   2.15045

 Mulliken charges and spin densities:
               1          2
     1  H    0.024838  -0.898513
     2  H    0.009742   0.937360
     3  F   -0.034580   0.961153
 Sum of Mulliken charges =  -0.00000   1.00000

 Dipole moment (field-independent basis, Debye):
    X=             -0.6367    Y=              0.0000    Z=              0.0000  Tot=              0.6367
 Quadrupole moment (field-independent basis, Debye-Ang):
   XX=             -7.6892   YY=             -7.6775   ZZ=             -7.6775
   XY=             -0.0000   XZ=             -0.0000   YZ=              0.0000

  Exact polarizability:      51.389      -0.000       2.009      -0.000      -0.000       2.009
 Approx polarizability:      45.020      -0.000       1.923      -0.000       0.000       1.923

 ******    2 imaginary frequencies (negative Signs) ******

                      1                      2                      3
                      A                      A                      A
 Frequencies --   -974.5479              -242.7304               373.4195
 Red. masses --      1.0084                 1.1078                 1.0148
 Frc consts  --      0.5643                 0.0385                 0.0834
 IR Inten    --     23.5573                24.8495                 0.3883

                      4
                      A
 Frequencies --    373.4195
 Red. masses --      1.0148
 Frc consts  --      0.0834
 IR Inten    --      0.3883

 - Thermochemistry -
 -------------------
 Temperature   298.150 Kelvin.  Pressure   1.00000 Atm.
 Atom     1 has atomic number  1 and mass   1.00783

 Molecular mass:    21.01405 amu.
 Principal axes and moments of inertia in atomic units:
                           1         2         3
     Eigenvalues --     0.00000 119.84069 119.84069
           X            1.00000  -0.00000   0.00000
           Y            0.00000   1.00000   0.00000
           Z            0.00000   0.00000   1.00000
 This molecule is a prolate symmetric top.
 Rotational symmetry number  1.
 Rotational temperature (Kelvin)      0.72274
 Rotational constant (GHZ):          15.059503
    2 imaginary frequencies ignored.
 Zero-point vibrational energy       4467.1 (Joules/Mol)
                                    1.06766 (Kcal/Mol)
 Warning -- explicit consideration of   2 degrees of freedom as
           vibrations may cause significant error
 Vibrational temperatures:    537.27   537.27
          (Kelvin)

 Zero-point correction=                           0.001701 (Hartree/Particle)
 Thermal correction to Energy=                    0.004734
 Thermal correction to Enthalpy=                  0.005678
 Thermal correction to Gibbs Free Energy=        -0.019281
 Sum of electronic and zero-point Energies=           -100.766925
 Sum of electronic and thermal Energies=              -100.763892
 Sum of electronic and thermal Enthalpies=            -100.762948
 Sum of electronic and thermal Free Energies=         -100.787908

                     E (Thermal)             CV                S
                      KCal/Mol        Cal/Mol-Kelvin    Cal/Mol-Kelvin
 Total                    2.971              8.021             52.532
 Electronic               0.000              0.000              1.377
 Translational            0.889              2.981             35.068
 Rotational               0.592              1.987             13.955
 Vibrational              1.490              3.053              2.131
 Vibration     1          0.745              1.527              1.066
 Vibration     2          0.745              1.527              1.066

 Normal termination of Gaussian 16 at Fri Aug 22 19:31:46 2025.
