 Gaussian 16, Revision C.01,
 Gaussian 16:  ES64L-G16RevC.01  3-Jul-2019

 -----------------------------------------
 # sp b3lyp/6-311g** Force nosymm scf=(qc)
 -----------------------------------------

 -------------------
 Title Card Required
 -------------------
 Symbolic Z-matrix:
 Charge =  0 Multiplicity = 2

                          Input orientation:
 ---------------------------------------------------------------------
 Center     Atomic      Atomic             Coordinates (Angstroms)
 Number     Number       Type             X           Y           Z
 ---------------------------------------------------------------------
      1          1           0        0.000000    0.000000    0.000000
      2          1           0       -1.350000    0.000000    0.000000
      3          9           0        1.350000    0.000000    0.000000
 ---------------------------------------------------------------------

 SCF Done:  E(UB3LYP) =  -100.909467919     a.u. after   11 cycles

 Alpha  occ. eigenvalues --  -24.64578  -1.12027  -0.49524  -0.38337  -0.37319
 Alpha  occ. eigenvalues --   -0.37319
 Alpha virt. eigenvalues --   -0.01386   0.20072   0.29803   0.92607   0.92607
 Alpha virt. eigenvalues --    1.01395   1.07557   1.12245   1.12245   1.45537
 Alpha virt. eigenvalues --    1.45537   1.55329   1.94962   2.23393   2.44548

  Beta  occ. eigenvalues --  -24.63373  -1.08864  -0.43917  -0.36183  -0.36183
  Beta virt. eigenvalues --   -0.21450   0.02073   0.23275   0.31977   0.92921
  Beta virt. eigenvalues --    0.92921   1.04373   1.12936   1.18960   1.18960
  Beta virt. eigenvalues --    1.48392   1.48392   1.58735   2.01333   2.27994

 Mulliken charges and spin densities:
               1          2
     1  H    0.265585  -0.122919
     2  H    0.067162   0.757695
     3  F   -0.332747   0.365224
 Sum of Mulliken charges =   0.00000   1.00000

 Dipole moment (field-independent basis, Debye):
    X=             -2.7071    Y=              0.0000    Z=              0.0000  Tot=              2.7071
 Quadrupole moment (field-independent basis, Debye-Ang):
   XX=             -7.9989   YY=             -7.0749   ZZ=             -7.0749
   XY=              0.0000   XZ=              0.0000   YZ=              0.0000

  Exact polarizability:      28.001       0.000       2.403       0.000       0.000       2.403
 Approx polarizability:      39.362       0.000       2.366       0.000      -0.000       2.366

 ******    1 imaginary frequencies (negative Signs) ******

                      1                      2                      3
                      A                      A                      A
 Frequencies --  -2600.3458               342.3503              1126.6160
 Red. masses --      1.0228                 1.0909                 1.0179
 Frc consts  --      4.0749                 0.0753                 0.7612
 IR Inten    --    171.5468                25.5890                34.8631

                      4
                      A
 Frequencies --   1126.6160
 Red. masses --      1.0179
 Frc consts  --      0.7612
 IR Inten    --     34.8631

 - Thermochemistry -
 -------------------
 Temperature   298.150 Kelvin.  Pressure   1.00000 Atm.
 Atom     1 has atomic number  1 and mass   1.00783

 Molecular mass:    21.01405 amu.
 Principal axes and moments of inertia in atomic units:
                           1         2         3
     Eigenvalues --     0.00000  29.96478  29.96478
           X            1.00000  -0.00000   0.00000
           Y            0.00000   1.00000   0.00000
           Z            0.00000   0.00000   1.00000
 This molecule is a prolate symmetric top.
 Rotational symmetry number  1.
 Rotational temperature (Kelvin)      2.89052
 Rotational constant (GHZ):          60.228748
    1 imaginary frequencies ignored.
 Zero-point vibrational energy      15525.0 (Joules/Mol)
                                    3.71057 (Kcal/Mol)
 Warning -- explicit consideration of   1 degrees of freedom as
           vibrations may cause significant error
 Vibrational temperatures:    492.57  1620.95  1620.95
          (Kelvin)

 Zero-point correction=                           0.005913 (Hartree/Particle)
 Thermal correction to Energy=                    0.008688
 Thermal correction to Enthalpy=                  0.009633
 Thermal correction to Gibbs Free Energy=        -0.013629
 Sum of electronic and zero-point Energies=           -100.903555
 Sum of electronic and thermal Energies=              -100.900780
 Sum of electronic and thermal Enthalpies=            -100.899835
 Sum of electronic and thermal Free Energies=         -100.923097

                     E (Thermal)             CV                S
                      KCal/Mol        Cal/Mol-Kelvin    Cal/Mol-Kelvin
 Total                    5.452              7.075             48.959
 Electronic               0.000              0.000              1.377
 Translational            0.889              2.981             35.068
 Rotational               0.592              1.987             11.200
 Vibrational              3.971              2.107              1.313
 Vibration     1          0.721              1.591              1.201

 Normal termination of Gaussian 16 at Fri Aug 22 16:17:05 2025.
