 Gaussian 16, Revision C.01,
 Gaussian 16:  ES64L-G16RevC.01  3-Jul-2019

 -----------------------------------------
 # sp b3lyp/6-311g** Force nosymm scf=(qc)
 -----------------------------------------

 -------------------
 Title Card Required
 -------------------
 Symbolic Z-matrix:
 Charge =  0 Multiplicity = 2

                          Input orientation:
 ---------------------------------------------------------------------
 Center     Atomic      Atomic             Coordinates (Angstroms)
 Number     Number       Type             X           Y           Z
 ---------------------------------------------------------------------
      1          1           0        0.000000    0.000000    0.000000
      2          1           0       -3.300000    0.000000    0.000000
      3          9           0        3.900000    0.000000    0.000000
 ---------------------------------------------------------------------

 SCF Done:  E(UB3LYP) =  -100.758920576     a.u. after   33 cycles

 Alpha  occ. eigenvalues --  -24.75829  -1.21760  -0.54954  -0.46140  -0.46140
 Alpha  occ. eigenvalues --   -0.32293
 Alpha virt. eigenvalues --   -0.07043   0.24601   0.37280   0.86692   0.91202
 Alpha virt. eigenvalues --    0.91202   1.01158   1.25219   1.25219   1.25513
 Alpha virt. eigenvalues --    1.45099   1.45325   1.45325   2.15381   2.40597

  Beta  occ. eigenvalues --  -24.72687  -1.12725  -0.42990  -0.42990  -0.32512
  Beta virt. eigenvalues --   -0.25707  -0.06799   0.24435   0.37623   0.92700
  Beta virt. eigenvalues --    0.92700   0.96041   1.05273   1.24980   1.24980
  Beta virt. eigenvalues --    1.25259   1.45474   1.45693   1.45693   2.15400

 Mulliken charges and spin densities:
               1          2
     1  H    0.003225  -0.992716
     2  H    0.000137   0.996460
     3  F   -0.003362   0.996257
 Sum of Mulliken charges =   0.00000   1.00000

 Dipole moment (field-independent basis, Debye):
    X=             -0.0700    Y=             -0.0000    Z=              0.0000  Tot=              0.0700
 Quadrupole moment (field-independent basis, Debye-Ang):
   XX=             -6.9422   YY=             -7.6274   ZZ=             -7.6274
   XY=              0.0000   XZ=              0.0000   YZ=             -0.0000

  Exact polarizability:      13.639       0.000       2.032       0.000       0.000       2.032
 Approx polarizability:      10.134       0.000       1.936       0.000       0.000       1.936

 ******    2 imaginary frequencies (negative Signs) ******

                      1                      2                      3
                      A                      A                      A
 Frequencies --   -238.8332               -77.2160                82.0756
 Red. masses --      1.0094                 1.1066                 1.0160
 Frc consts  --      0.0339                 0.0039                 0.0040
 IR Inten    --      1.1939                 0.7961                 0.0096

                      4
                      A
 Frequencies --     82.0756
 Red. masses --      1.0160
 Frc consts  --      0.0040
 IR Inten    --      0.0096

 - Thermochemistry -
 -------------------
 Temperature   298.150 Kelvin.  Pressure   1.00000 Atm.
 Atom     1 has atomic number  1 and mass   1.00783

 Molecular mass:    21.01405 amu.
 Principal axes and moments of inertia in atomic units:
                           1         2         3
     Eigenvalues --     0.00000 220.04662 220.04662
           X            1.00000  -0.00000   0.00000
           Y            0.00000   1.00000   0.00000
           Z            0.00000   0.00000   1.00000
 This molecule is a prolate symmetric top.
 Rotational symmetry number  1.
 Rotational temperature (Kelvin)      0.39362
 Rotational constant (GHZ):           8.201631
    2 imaginary frequencies ignored.
 Zero-point vibrational energy        981.8 (Joules/Mol)
                                    0.23467 (Kcal/Mol)
 Warning -- explicit consideration of   2 degrees of freedom as
           vibrations may cause significant error
 Vibrational temperatures:    118.09   118.09
          (Kelvin)

 Zero-point correction=                           0.000374 (Hartree/Particle)
 Thermal correction to Energy=                    0.004273
 Thermal correction to Enthalpy=                  0.005218
 Thermal correction to Gibbs Free Energy=        -0.022952
 Sum of electronic and zero-point Energies=           -100.758547
 Sum of electronic and thermal Energies=              -100.754647
 Sum of electronic and thermal Enthalpies=            -100.753703
 Sum of electronic and thermal Free Energies=         -100.781873

                     E (Thermal)             CV                S
                      KCal/Mol        Cal/Mol-Kelvin    Cal/Mol-Kelvin
 Total                    2.682              8.891             59.289
 Electronic               0.000              0.000              1.377
 Translational            0.889              2.981             35.068
 Rotational               0.592              1.987             15.162
 Vibrational              1.200              3.923              7.681
 Vibration     1          0.600              1.961              3.841
 Vibration     2          0.600              1.961              3.841

 Normal termination of Gaussian 16 at Sat Aug 23 01:26:47 2025.
