 Gaussian 16, Revision C.01,
 Gaussian 16:  ES64L-G16RevC.01  3-Jul-2019

 -----------------------------------------
 # sp b3lyp/6-311g** Force nosymm scf=(qc)
 -----------------------------------------

 -------------------
 Title Card Required
 -------------------
 Symbolic Z-matrix:
 Charge =  0 Multiplicity = 2

                          Input orientation:
 ---------------------------------------------------------------------
 Center     Atomic      Atomic             Coordinates (Angstroms)
 Number     Number       Type             X           Y           Z
 ---------------------------------------------------------------------
      1          1           0        0.000000    0.000000    0.000000
      2          1           0       -1.950000    0.000000    0.000000
      3          9           0        2.250000    0.000000    0.000000
 ---------------------------------------------------------------------

 SCF Done:  E(UB3LYP) =  -100.790721771     a.u. after   16 cycles

 Alpha  occ. eigenvalues --  -24.70222  -1.16503  -0.49325  -0.41418  -0.41418
 Alpha  occ. eigenvalues --   -0.35720
 Alpha virt. eigenvalues --   -0.13169   0.24313   0.31653   0.88201   0.94351
 Alpha virt. eigenvalues --    0.94351   1.04869   1.22182   1.22182   1.24327
 Alpha virt. eigenvalues --    1.34301   1.34301   1.53619   2.11025   2.33953

  Beta  occ. eigenvalues --  -24.67536  -1.08904  -0.38751  -0.38751  -0.36118
  Beta virt. eigenvalues --   -0.22689  -0.11822   0.26553   0.31538   0.92814
  Beta virt. eigenvalues --    0.95547   0.95547   1.08112   1.22546   1.22546
  Beta virt. eigenvalues --    1.30423   1.36195   1.36195   1.52938   2.11655

 Mulliken charges and spin densities:
               1          2
     1  H    0.086989  -0.701349
     2  H    0.039454   0.854747
     3  F   -0.126444   0.846601
 Sum of Mulliken charges =  -0.00000   1.00000

 Dipole moment (field-independent basis, Debye):
    X=             -1.8033    Y=             -0.0000    Z=              0.0000  Tot=              1.8033
 Quadrupole moment (field-independent basis, Debye-Ang):
   XX=             -8.3968   YY=             -7.6188   ZZ=             -7.6188
   XY=             -0.0000   XZ=              0.0000   YZ=              0.0000

  Exact polarizability:      56.381      -0.000       2.027       0.000      -0.000       2.027
 Approx polarizability:      65.388       0.000       1.944      -0.000      -0.000       1.944

 ******    2 imaginary frequencies (negative Signs) ******

                      1                      2                      3
                      A                      A                      A
 Frequencies --  -1521.2227              -484.7180               626.6103
 Red. masses --      1.0113                 1.1044                 1.0163
 Frc consts  --      1.3788                 0.1529                 0.2351
 IR Inten    --    113.5620                50.3225                 4.1543

                      4
                      A
 Frequencies --    626.6103
 Red. masses --      1.0163
 Frc consts  --      0.2351
 IR Inten    --      4.1543

 - Thermochemistry -
 -------------------
 Temperature   298.150 Kelvin.  Pressure   1.00000 Atm.
 Atom     1 has atomic number  1 and mass   1.00783

 Molecular mass:    21.01405 amu.
 Principal axes and moments of inertia in atomic units:
                           1         2         3
     Eigenvalues --     0.00000  74.52561  74.52561
           X            1.00000  -0.00000   0.00000
           Y            0.00000   1.00000   0.00000
           Z            0.00000   0.00000   1.00000
 This molecule is a prolate symmetric top.
 Rotational symmetry number  1.
 Rotational temperature (Kelvin)      1.16220
 Rotational constant (GHZ):          24.216389
    2 imaginary frequencies ignored.
 Zero-point vibrational energy       7495.9 (Joules/Mol)
                                    1.79157 (Kcal/Mol)
 Vibrational temperatures:    901.55   901.55
          (Kelvin)

 Zero-point correction=                           0.002855 (Hartree/Particle)
 Thermal correction to Energy=                    0.005507
 Thermal correction to Enthalpy=                  0.006451
 Thermal correction to Gibbs Free Energy=        -0.017433
 Sum of electronic and zero-point Energies=           -100.787867
 Sum of electronic and thermal Energies=              -100.785214
 Sum of electronic and thermal Enthalpies=            -100.784270
 Sum of electronic and thermal Free Energies=         -100.808154

                     E (Thermal)             CV                S
                      KCal/Mol        Cal/Mol-Kelvin    Cal/Mol-Kelvin
 Total                    3.456              6.920             50.268
 Electronic               0.000              0.000              1.377
 Translational            0.889              2.981             35.068
 Rotational               0.592              1.987             13.011
 Vibrational              1.975              1.952              0.812

 Normal termination of Gaussian 16 at Fri Aug 22 17:16:24 2025.
