 Gaussian 16, Revision C.01,
 Gaussian 16:  ES64L-G16RevC.01  3-Jul-2019

 -----------------------------------------
 # sp b3lyp/6-311g** Force nosymm scf=(qc)
 -----------------------------------------

 -------------------
 Title Card Required
 -------------------
 Symbolic Z-matrix:
 Charge =  0 Multiplicity = 2

                          Input orientation:
 ---------------------------------------------------------------------
 Center     Atomic      Atomic             Coordinates (Angstroms)
 Number     Number       Type             X           Y           Z
 ---------------------------------------------------------------------
      1          1           0        0.000000    0.000000    0.000000
      2          1           0       -1.200000    0.000000    0.000000
      3          9           0        2.300000    0.000000    0.000000
 ---------------------------------------------------------------------

 SCF Done:  E(UB3LYP) =  -100.874184401     a.u. after   14 cycles

 Alpha  occ. eigenvalues --  -24.74198  -1.20275  -0.53521  -0.44809  -0.44809
 Alpha  occ. eigenvalues --   -0.38170
 Alpha virt. eigenvalues --   -0.04711   0.22312   0.34792   0.88633   0.91878
 Alpha virt. eigenvalues --    0.91878   1.08061   1.11052   1.11052   1.27562
 Alpha virt. eigenvalues --    1.52588   1.52588   2.05999   2.29891   2.54236

  Beta  occ. eigenvalues --  -24.71212  -1.11747  -0.41827  -0.41827  -0.37842
  Beta virt. eigenvalues --   -0.25505  -0.03799   0.22843   0.35268   0.93281
  Beta virt. eigenvalues --    0.93281   0.96287   1.11033   1.11651   1.11651
  Beta virt. eigenvalues --    1.29859   1.53065   1.53065   2.06731   2.30636

 Mulliken charges and spin densities:
               1          2
     1  H    0.008949  -0.067445
     2  H    0.035548   0.125718
     3  F   -0.044497   0.941727
 Sum of Mulliken charges =  -0.00000   1.00000

 Dipole moment (field-independent basis, Debye):
    X=             -0.7123    Y=             -0.0000    Z=             -0.0000  Tot=              0.7123
 Quadrupole moment (field-independent basis, Debye-Ang):
   XX=             -6.3857   YY=             -7.4414   ZZ=             -7.4414
   XY=             -0.0000   XZ=             -0.0000   YZ=             -0.0000

  Exact polarizability:      39.644      -0.000       2.129      -0.000       0.000       2.129
 Approx polarizability:      52.182       0.000       2.130       0.000       0.000       2.130

 ******    2 imaginary frequencies (negative Signs) ******

                      1                      2                      3
                      A                      A                      A
 Frequencies --   -985.2724              -135.2429              1414.9030
 Red. masses --      1.0163                 1.0984                 1.0120
 Frc consts  --      0.5813                 0.0118                 1.1936
 IR Inten    --    541.9408                 0.0058                 0.0200

                      4
                      A
 Frequencies --   1414.9030
 Red. masses --      1.0120
 Frc consts  --      1.1936
 IR Inten    --      0.0200

 - Thermochemistry -
 -------------------
 Temperature   298.150 Kelvin.  Pressure   1.00000 Atm.
 Atom     1 has atomic number  1 and mass   1.00783

 Molecular mass:    21.01405 amu.
 Principal axes and moments of inertia in atomic units:
                           1         2         3
     Eigenvalues --     0.00000  57.32011  57.32011
           X            1.00000  -0.00000   0.00000
           Y            0.00000   1.00000   0.00000
           Z            0.00000   0.00000   1.00000
 This molecule is a prolate symmetric top.
 Rotational symmetry number  1.
 Rotational temperature (Kelvin)      1.51106
 Rotational constant (GHZ):          31.485304
    2 imaginary frequencies ignored.
 Zero-point vibrational energy      16926.0 (Joules/Mol)
                                    4.04541 (Kcal/Mol)
 Vibrational temperatures:   2035.73  2035.73
          (Kelvin)

 Zero-point correction=                           0.006447 (Hartree/Particle)
 Thermal correction to Energy=                    0.008821
 Thermal correction to Enthalpy=                  0.009765
 Thermal correction to Gibbs Free Energy=        -0.013501
 Sum of electronic and zero-point Energies=           -100.867738
 Sum of electronic and thermal Energies=              -100.865363
 Sum of electronic and thermal Enthalpies=            -100.864419
 Sum of electronic and thermal Free Energies=         -100.887685

                     E (Thermal)             CV                S
                      KCal/Mol        Cal/Mol-Kelvin    Cal/Mol-Kelvin
 Total                    5.535              5.169             48.968
 Electronic               0.000              0.000              1.377
 Translational            0.889              2.981             35.068
 Rotational               0.592              1.987             12.489
 Vibrational              4.054              0.201              0.034

 Normal termination of Gaussian 16 at Fri Aug 22 17:21:04 2025.
