 Gaussian 16, Revision C.01,
 Gaussian 16:  ES64L-G16RevC.01  3-Jul-2019

 -----------------------------------------
 # sp b3lyp/6-311g** Force nosymm scf=(qc)
 -----------------------------------------

 -------------------
 Title Card Required
 -------------------
 Symbolic Z-matrix:
 Charge =  0 Multiplicity = 2

                          Input orientation:
 ---------------------------------------------------------------------
 Center     Atomic      Atomic             Coordinates (Angstroms)
 Number     Number       Type             X           Y           Z
 ---------------------------------------------------------------------
      1          1           0        0.000000    0.000000    0.000000
      2          1           0       -0.850000    0.000000    0.000000
      3          9           0        4.000000    0.000000    0.000000
 ---------------------------------------------------------------------

 SCF Done:  E(UB3LYP) =  -100.927581425     a.u. after  172 cycles

 Alpha  occ. eigenvalues --  -24.76172  -1.22072  -0.55276  -0.46448  -0.46432
 Alpha  occ. eigenvalues --   -0.41294
 Alpha virt. eigenvalues --    0.03666   0.20425   0.43275   0.86091   0.90968
 Alpha virt. eigenvalues --    0.91500   1.00981   1.08213   1.08214   1.48854
 Alpha virt. eigenvalues --    1.75550   1.75552   2.10895   2.37619   2.87577

  Beta  occ. eigenvalues --  -24.73017  -1.12998  -0.43287  -0.43269  -0.41292
  Beta virt. eigenvalues --   -0.25926   0.03669   0.20427   0.43291   0.92469
  Beta virt. eigenvalues --    0.92992   0.95557   1.05127   1.08213   1.08214
  Beta virt. eigenvalues --    1.48855   1.75550   1.75552   2.10899   2.37619

 Mulliken charges and spin densities:
               1          2
     1  H    0.000619  -0.000102
     2  H   -0.001643  -0.000008
     3  F    0.001024   1.000109
 Sum of Mulliken charges =   0.00000   1.00000

 Dipole moment (field-independent basis, Debye):
    X=              0.0183    Y=             -0.0000    Z=              0.0000  Tot=              0.0183
 Quadrupole moment (field-independent basis, Debye-Ang):
   XX=             -6.3340   YY=             -6.9090   ZZ=             -6.3951
   XY=             -0.0000   XZ=              0.0000   YZ=             -0.3477

  Exact polarizability:       9.448      -0.000       2.101       0.000      -0.188       2.379
 Approx polarizability:      11.501      -0.000       2.191       0.000      -0.234       2.537

 ******    1 imaginary frequencies (negative Signs) ******

                      1                      2                      3
                      A                      A                      A
 Frequencies --    -65.9812              1321.8620              1324.4710
 Red. masses --      1.1085                 1.0088                 1.0088
 Frc consts  --      0.0028                 1.0385                 1.0426
 IR Inten    --      0.0360                 0.0015                 0.0003

                      4
                      A
 Frequencies --   3135.7847
 Red. masses --      1.0078
 Frc consts  --      5.8389
 IR Inten    --      0.0268

 - Thermochemistry -
 -------------------
 Temperature   298.150 Kelvin.  Pressure   1.00000 Atm.
 Atom     1 has atomic number  1 and mass   1.00783

 Molecular mass:    21.01405 amu.
 Principal axes and moments of inertia in atomic units:
                           1         2         3
     Eigenvalues --     0.00000 128.72281 128.72281
           X            1.00000  -0.00000   0.00000
           Y            0.00000   1.00000   0.00000
           Z            0.00000   0.00000   1.00000
 This molecule is a prolate symmetric top.
 Rotational symmetry number  1.
 Rotational temperature (Kelvin)      0.67287
 Rotational constant (GHZ):          14.020368
    1 imaginary frequencies ignored.
 Zero-point vibrational energy      34584.7 (Joules/Mol)
                                    8.26595 (Kcal/Mol)
 Vibrational temperatures:   1901.86  1905.62  4511.69
          (Kelvin)

 Zero-point correction=                           0.013173 (Hartree/Particle)
 Thermal correction to Energy=                    0.015553
 Thermal correction to Enthalpy=                  0.016498
 Thermal correction to Gibbs Free Energy=        -0.007540
 Sum of electronic and zero-point Energies=           -100.914409
 Sum of electronic and thermal Energies=              -100.912028
 Sum of electronic and thermal Enthalpies=            -100.911084
 Sum of electronic and thermal Free Energies=         -100.935122

                     E (Thermal)             CV                S
                      KCal/Mol        Cal/Mol-Kelvin    Cal/Mol-Kelvin
 Total                    9.760              5.242             50.592
 Electronic               0.000              0.000              1.377
 Translational            0.889              2.981             35.068
 Rotational               0.592              1.987             14.097
 Vibrational              8.279              0.274              0.050

 Normal termination of Gaussian 16 at Sat Aug 23 01:44:57 2025.
