 Gaussian 16, Revision C.01,
 Gaussian 16:  ES64L-G16RevC.01  3-Jul-2019

 -----------------------------------------
 # sp b3lyp/6-311g** Force nosymm scf=(qc)
 -----------------------------------------

 -------------------
 Title Card Required
 -------------------
 Symbolic Z-matrix:
 Charge =  0 Multiplicity = 2

                          Input orientation:
 ---------------------------------------------------------------------
 Center     Atomic      Atomic             Coordinates (Angstroms)
 Number     Number       Type             X           Y           Z
 ---------------------------------------------------------------------
      1          1           0        0.000000    0.000000    0.000000
      2          1           0       -0.650000    0.000000    0.000000
      3          9           0        1.200000    0.000000    0.000000
 ---------------------------------------------------------------------

 SCF Done:  E(UB3LYP) =  -100.921297761     a.u. after    6 cycles

 Alpha  occ. eigenvalues --  -24.68743  -1.18198  -0.61603  -0.41704  -0.41704
 Alpha  occ. eigenvalues --   -0.39042
 Alpha virt. eigenvalues --    0.12256   0.18923   0.53400   0.87424   0.87424
 Alpha virt. eigenvalues --    0.95747   1.11016   1.11016   1.48239   1.63230
 Alpha virt. eigenvalues --    1.84704   1.84704   1.91326   2.41836   3.67517

  Beta  occ. eigenvalues --  -24.66504  -1.12383  -0.53206  -0.39609  -0.39609
  Beta virt. eigenvalues --   -0.20280   0.13779   0.19790   0.57432   0.88919
  Beta virt. eigenvalues --    0.88919   1.00494   1.14321   1.14321   1.51219
  Beta virt. eigenvalues --    1.68490   1.87317   1.87317   1.92339   2.47218

 Mulliken charges and spin densities:
               1          2
     1  H    0.240361  -0.021936
     2  H   -0.025471   0.394971
     3  F   -0.214890   0.626965
 Sum of Mulliken charges =   0.00000   1.00000

 Dipole moment (field-independent basis, Debye):
    X=             -1.3704    Y=              0.0000    Z=              0.0000  Tot=              1.3704
 Quadrupole moment (field-independent basis, Debye-Ang):
   XX=             -7.1796   YY=             -6.5504   ZZ=             -6.5504
   XY=              0.0000   XZ=              0.0000   YZ=              0.0000

  Exact polarizability:      15.206      -0.000       2.428      -0.000      -0.000       2.428
 Approx polarizability:      19.040      -0.000       2.479      -0.000      -0.000       2.479

 ******    2 imaginary frequencies (negative Signs) ******

                      1                      2                      3
                      A                      A                      A
 Frequencies --  -2451.9657             -2451.9657              1012.4292
 Red. masses --      1.0122                 1.0122                 1.1080
 Frc consts  --      3.5855                 3.5855                 0.6692
 IR Inten    --      6.7806                 6.7806                29.3101

                      4
                      A
 Frequencies --   5490.8496
 Red. masses --      1.0082
 Frc consts  --     17.9096
 IR Inten    --    440.5119

 - Thermochemistry -
 -------------------
 Temperature   298.150 Kelvin.  Pressure   1.00000 Atm.
 Atom     1 has atomic number  1 and mass   1.00783

 Molecular mass:    21.01405 amu.
 Principal axes and moments of inertia in atomic units:
                           1         2         3
     Eigenvalues --     0.00000  15.89450  15.89450
           X            1.00000  -0.00000   0.00000
           Y            0.00000   1.00000   0.00000
           Z            0.00000   0.00000   1.00000
 This molecule is a prolate symmetric top.
 Rotational symmetry number  1.
 Rotational temperature (Kelvin)      5.44930
 Rotational constant (GHZ):         113.544990
    2 imaginary frequencies ignored.
 Zero-point vibrational energy      38898.2 (Joules/Mol)
                                    9.29690 (Kcal/Mol)
 Vibrational temperatures:   1456.66  7900.11
          (Kelvin)

 Zero-point correction=                           0.014816 (Hartree/Particle)
 Thermal correction to Energy=                    0.017211
 Thermal correction to Enthalpy=                  0.018155
 Thermal correction to Gibbs Free Energy=        -0.003926
 Sum of electronic and zero-point Energies=           -100.906482
 Sum of electronic and thermal Energies=              -100.904087
 Sum of electronic and thermal Enthalpies=            -100.903142
 Sum of electronic and thermal Free Energies=         -100.925224

                     E (Thermal)             CV                S
                      KCal/Mol        Cal/Mol-Kelvin    Cal/Mol-Kelvin
 Total                   10.800              5.332             46.475
 Electronic               0.000              0.000              1.377
 Translational            0.889              2.981             35.068
 Rotational               0.592              1.987              9.940
 Vibrational              9.319              0.364              0.089

 Normal termination of Gaussian 16 at Fri Aug 22 16:09:11 2025.
