 Gaussian 16, Revision C.01,
 Gaussian 16:  ES64L-G16RevC.01  3-Jul-2019

 -----------------------------------------
 # sp b3lyp/6-311g** Force nosymm scf=(qc)
 -----------------------------------------

 -------------------
 Title Card Required
 -------------------
 Symbolic Z-matrix:
 Charge =  0 Multiplicity = 2

                          Input orientation:
 ---------------------------------------------------------------------
 Center     Atomic      Atomic             Coordinates (Angstroms)
 Number     Number       Type             X           Y           Z
 ---------------------------------------------------------------------
      1          1           0        0.000000    0.000000    0.000000
      2          1           0       -2.600000    0.000000    0.000000
      3          9           0        3.100000    0.000000    0.000000
 ---------------------------------------------------------------------

 SCF Done:  E(UB3LYP) =  -100.763331118     a.u. after   23 cycles

 Alpha  occ. eigenvalues --  -24.74483  -1.20511  -0.53601  -0.45006  -0.45006
 Alpha  occ. eigenvalues --   -0.32886
 Alpha virt. eigenvalues --   -0.09905   0.25336   0.33990   0.89131   0.92036
 Alpha virt. eigenvalues --    0.92036   1.03375   1.24730   1.24730   1.26447
 Alpha virt. eigenvalues --    1.40891   1.40891   1.42043   2.15678   2.37307

  Beta  occ. eigenvalues --  -24.71430  -1.11754  -0.41949  -0.41949  -0.33573
  Beta virt. eigenvalues --   -0.25010  -0.08838   0.25335   0.35267   0.93506
  Beta virt. eigenvalues --    0.93506   0.98003   1.07290   1.23905   1.23905
  Beta virt. eigenvalues --    1.25463   1.42610   1.42610   1.43683   2.16540

 Mulliken charges and spin densities:
               1          2
     1  H    0.025359  -0.945520
     2  H    0.003757   0.977858
     3  F   -0.029116   0.967662
 Sum of Mulliken charges =  -0.00000   1.00000

 Dipole moment (field-independent basis, Debye):
    X=             -0.5100    Y=              0.0000    Z=              0.0000  Tot=              0.5100
 Quadrupole moment (field-independent basis, Debye-Ang):
   XX=             -7.8183   YY=             -7.6481   ZZ=             -7.6481
   XY=              0.0000   XZ=              0.0000   YZ=             -0.0000

  Exact polarizability:      40.337       0.000       2.018       0.000       0.000       2.018
 Approx polarizability:      35.324       0.000       1.924       0.000      -0.000       1.924

 ******    2 imaginary frequencies (negative Signs) ******

                      1                      2                      3
                      A                      A                      A
 Frequencies --   -613.3944              -209.2821               227.4966
 Red. masses --      1.0102                 1.1057                 1.0160
 Frc consts  --      0.2239                 0.0285                 0.0310
 IR Inten    --     19.8560                14.7515                 0.5120

                      4
                      A
 Frequencies --    227.4966
 Red. masses --      1.0160
 Frc consts  --      0.0310
 IR Inten    --      0.5120

 - Thermochemistry -
 -------------------
 Temperature   298.150 Kelvin.  Pressure   1.00000 Atm.
 Atom     1 has atomic number  1 and mass   1.00783

 Molecular mass:    21.01405 amu.
 Principal axes and moments of inertia in atomic units:
                           1         2         3
     Eigenvalues --     0.00000 138.15158 138.15158
           X            1.00000  -0.00000   0.00000
           Y            0.00000   1.00000   0.00000
           Z            0.00000   0.00000   1.00000
 This molecule is a prolate symmetric top.
 Rotational symmetry number  1.
 Rotational temperature (Kelvin)      0.62695
 Rotational constant (GHZ):          13.063486
    2 imaginary frequencies ignored.
 Zero-point vibrational energy       2721.5 (Joules/Mol)
                                    0.65045 (Kcal/Mol)
 Warning -- explicit consideration of   2 degrees of freedom as
           vibrations may cause significant error
 Vibrational temperatures:    327.32   327.32
          (Kelvin)

 Zero-point correction=                           0.001037 (Hartree/Particle)
 Thermal correction to Energy=                    0.004435
 Thermal correction to Enthalpy=                  0.005379
 Thermal correction to Gibbs Free Energy=        -0.020506
 Sum of electronic and zero-point Energies=           -100.762295
 Sum of electronic and thermal Energies=              -100.758896
 Sum of electronic and thermal Enthalpies=            -100.757952
 Sum of electronic and thermal Free Energies=         -100.783837

                     E (Thermal)             CV                S
                      KCal/Mol        Cal/Mol-Kelvin    Cal/Mol-Kelvin
 Total                    2.783              8.566             54.480
 Electronic               0.000              0.000              1.377
 Translational            0.889              2.981             35.068
 Rotational               0.592              1.987             14.237
 Vibrational              1.302              3.598              3.797
 Vibration     1          0.651              1.799              1.899
 Vibration     2          0.651              1.799              1.899

 Normal termination of Gaussian 16 at Fri Aug 22 19:55:18 2025.
