 Gaussian 16, Revision C.01,
 Gaussian 16:  ES64L-G16RevC.01  3-Jul-2019

 -----------------------------------------
 # sp b3lyp/6-311g** Force nosymm scf=(qc)
 -----------------------------------------

 -------------------
 Title Card Required
 -------------------
 Symbolic Z-matrix:
 Charge =  0 Multiplicity = 2

                          Input orientation:
 ---------------------------------------------------------------------
 Center     Atomic      Atomic             Coordinates (Angstroms)
 Number     Number       Type             X           Y           Z
 ---------------------------------------------------------------------
      1          1           0        0.000000    0.000000    0.000000
      2          1           0       -1.400000    0.000000    0.000000
      3          9           0        1.950000    0.000000    0.000000
 ---------------------------------------------------------------------

 SCF Done:  E(UB3LYP) =  -100.849926764     a.u. after   15 cycles

 Alpha  occ. eigenvalues --  -24.70086  -1.16462  -0.49777  -0.41398  -0.41398
 Alpha  occ. eigenvalues --   -0.38463
 Alpha virt. eigenvalues --   -0.08772   0.22027   0.31482   0.86724   0.93352
 Alpha virt. eigenvalues --    0.93352   1.03523   1.14267   1.14267   1.33265
 Alpha virt. eigenvalues --    1.42310   1.42310   1.91106   2.22611   2.47669

  Beta  occ. eigenvalues --  -24.67499  -1.09190  -0.38839  -0.38839  -0.38070
  Beta virt. eigenvalues --   -0.23852  -0.06879   0.23800   0.31634   0.91380
  Beta virt. eigenvalues --    0.94361   0.94361   1.07379   1.16294   1.16294
  Beta virt. eigenvalues --    1.37429   1.43299   1.43299   1.93090   2.23731

 Mulliken charges and spin densities:
               1          2
     1  H    0.082188  -0.269064
     2  H    0.062992   0.457970
     3  F   -0.145179   0.811094
 Sum of Mulliken charges =   0.00000   1.00000

 Dipole moment (field-independent basis, Debye):
    X=             -1.8160    Y=              0.0000    Z=              0.0000  Tot=              1.8160
 Quadrupole moment (field-independent basis, Debye-Ang):
   XX=             -7.5026   YY=             -7.4726   ZZ=             -7.4726
   XY=              0.0000   XZ=              0.0000   YZ=              0.0000

  Exact polarizability:      48.744       0.000       2.151       0.000       0.000       2.151
 Approx polarizability:      75.572      -0.000       2.113      -0.000      -0.000       2.113

 ******    2 imaginary frequencies (negative Signs) ******

                      1                      2                      3
                      A                      A                      A
 Frequencies --  -2131.0212              -423.8291              1181.8992
 Red. masses --      1.0131                 1.1021                 1.0144
 Frc consts  --      2.7108                 0.1166                 0.8349
 IR Inten    --   1028.6722                 6.6819                 1.4056

                      4
                      A
 Frequencies --   1181.8992
 Red. masses --      1.0144
 Frc consts  --      0.8349
 IR Inten    --      1.4056

 - Thermochemistry -
 -------------------
 Temperature   298.150 Kelvin.  Pressure   1.00000 Atm.
 Atom     1 has atomic number  1 and mass   1.00783

 Molecular mass:    21.01405 amu.
 Principal axes and moments of inertia in atomic units:
                           1         2         3
     Eigenvalues --     0.00000  49.22658  49.22658
           X            1.00000  -0.00000   0.00000
           Y            0.00000   1.00000   0.00000
           Z            0.00000   0.00000   1.00000
 This molecule is a prolate symmetric top.
 Rotational symmetry number  1.
 Rotational temperature (Kelvin)      1.75950
 Rotational constant (GHZ):          36.661929
    2 imaginary frequencies ignored.
 Zero-point vibrational energy      14138.7 (Joules/Mol)
                                    3.37922 (Kcal/Mol)
 Vibrational temperatures:   1700.49  1700.49
          (Kelvin)

 Zero-point correction=                           0.005385 (Hartree/Particle)
 Thermal correction to Energy=                    0.007782
 Thermal correction to Enthalpy=                  0.008726
 Thermal correction to Gibbs Free Energy=        -0.014423
 Sum of electronic and zero-point Energies=           -100.844542
 Sum of electronic and thermal Energies=              -100.842145
 Sum of electronic and thermal Enthalpies=            -100.841201
 Sum of electronic and thermal Free Energies=         -100.864350

                     E (Thermal)             CV                S
                      KCal/Mol        Cal/Mol-Kelvin    Cal/Mol-Kelvin
 Total                    4.883              5.402             48.721
 Electronic               0.000              0.000              1.377
 Translational            0.889              2.981             35.068
 Rotational               0.592              1.987             12.187
 Vibrational              3.402              0.434              0.089

 Normal termination of Gaussian 16 at Fri Aug 22 16:52:45 2025.
