 Gaussian 16, Revision C.01,
 Gaussian 16:  ES64L-G16RevC.01  3-Jul-2019

 -----------------------------------------
 # sp b3lyp/6-311g** Force nosymm scf=(qc)
 -----------------------------------------

 -------------------
 Title Card Required
 -------------------
 Symbolic Z-matrix:
 Charge =  0 Multiplicity = 2

                          Input orientation:
 ---------------------------------------------------------------------
 Center     Atomic      Atomic             Coordinates (Angstroms)
 Number     Number       Type             X           Y           Z
 ---------------------------------------------------------------------
      1          1           0        0.000000    0.000000    0.000000
      2          1           0       -2.400000    0.000000    0.000000
      3          9           0        3.000000    0.000000    0.000000
 ---------------------------------------------------------------------

 SCF Done:  E(UB3LYP) =  -100.766052039     a.u. after   26 cycles

 Alpha  occ. eigenvalues --  -24.74174  -1.20223  -0.53291  -0.44745  -0.44745
 Alpha  occ. eigenvalues --   -0.33181
 Alpha virt. eigenvalues --   -0.10754   0.25443   0.33307   0.89552   0.92225
 Alpha virt. eigenvalues --    0.92225   1.03955   1.24519   1.24519   1.26128
 Alpha virt. eigenvalues --    1.39332   1.39332   1.41975   2.14922   2.35900

  Beta  occ. eigenvalues --  -24.71142  -1.11535  -0.41711  -0.41711  -0.33808
  Beta virt. eigenvalues --   -0.24846  -0.09646   0.25656   0.34457   0.93688
  Beta virt. eigenvalues --    0.93688   0.98324   1.07871   1.23752   1.23752
  Beta virt. eigenvalues --    1.25211   1.41128   1.41128   1.43681   2.15990

 Mulliken charges and spin densities:
               1          2
     1  H    0.028245  -0.920913
     2  H    0.007070   0.960373
     3  F   -0.035315   0.960540
 Sum of Mulliken charges =   0.00000   1.00000

 Dipole moment (field-independent basis, Debye):
    X=             -0.6245    Y=              0.0000    Z=              0.0000  Tot=              0.6245
 Quadrupole moment (field-independent basis, Debye-Ang):
   XX=             -7.8474   YY=             -7.6612   ZZ=             -7.6612
   XY=              0.0000   XZ=              0.0000   YZ=              0.0000

  Exact polarizability:      46.681       0.000       2.012       0.000       0.000       2.012
 Approx polarizability:      41.321       0.000       1.922       0.000      -0.000       1.922

 ******    2 imaginary frequencies (negative Signs) ******

                      1                      2                      3
                      A                      A                      A
 Frequencies --   -798.5368              -239.3827               301.1721
 Red. masses --      1.0091                 1.1070                 1.0155
 Frc consts  --      0.3791                 0.0374                 0.0543
 IR Inten    --     22.2252                21.6635                 0.5794

                      4
                      A
 Frequencies --    301.1721
 Red. masses --      1.0155
 Frc consts  --      0.0543
 IR Inten    --      0.5794

 - Thermochemistry -
 -------------------
 Temperature   298.150 Kelvin.  Pressure   1.00000 Atm.
 Atom     1 has atomic number  1 and mass   1.00783

 Molecular mass:    21.01405 amu.
 Principal axes and moments of inertia in atomic units:
                           1         2         3
     Eigenvalues --     0.00000 125.15902 125.15902
           X            1.00000  -0.00000   0.00000
           Y            0.00000   1.00000   0.00000
           Z            0.00000   0.00000   1.00000
 This molecule is a prolate symmetric top.
 Rotational symmetry number  1.
 Rotational temperature (Kelvin)      0.69203
 Rotational constant (GHZ):          14.419585
    2 imaginary frequencies ignored.
 Zero-point vibrational energy       3602.8 (Joules/Mol)
                                    0.86109 (Kcal/Mol)
 Warning -- explicit consideration of   2 degrees of freedom as
           vibrations may cause significant error
 Vibrational temperatures:    433.32   433.32
          (Kelvin)

 Zero-point correction=                           0.001372 (Hartree/Particle)
 Thermal correction to Energy=                    0.004570
 Thermal correction to Enthalpy=                  0.005514
 Thermal correction to Gibbs Free Energy=        -0.019814
 Sum of electronic and zero-point Energies=           -100.764680
 Sum of electronic and thermal Energies=              -100.761482
 Sum of electronic and thermal Enthalpies=            -100.760538
 Sum of electronic and thermal Free Energies=         -100.785866

                     E (Thermal)             CV                S
                      KCal/Mol        Cal/Mol-Kelvin    Cal/Mol-Kelvin
 Total                    2.868              8.311             53.307
 Electronic               0.000              0.000              1.377
 Translational            0.889              2.981             35.068
 Rotational               0.592              1.987             14.041
 Vibrational              1.387              3.343              2.821
 Vibration     1          0.693              1.671              1.410
 Vibration     2          0.693              1.671              1.410

 Normal termination of Gaussian 16 at Fri Aug 22 19:31:57 2025.
