 Gaussian 16, Revision C.01,
 Gaussian 16:  ES64L-G16RevC.01  3-Jul-2019

 -----------------------------------------
 # sp b3lyp/6-311g** Force nosymm scf=(qc)
 -----------------------------------------

 -------------------
 Title Card Required
 -------------------
 Symbolic Z-matrix:
 Charge =  0 Multiplicity = 2

                          Input orientation:
 ---------------------------------------------------------------------
 Center     Atomic      Atomic             Coordinates (Angstroms)
 Number     Number       Type             X           Y           Z
 ---------------------------------------------------------------------
      1          1           0        0.000000    0.000000    0.000000
      2          1           0       -2.850000    0.000000    0.000000
      3          9           0        1.950000    0.000000    0.000000
 ---------------------------------------------------------------------

 SCF Done:  E(UB3LYP) =  -100.792064487     a.u. after   13 cycles

 Alpha  occ. eigenvalues --  -24.67783  -1.14088  -0.46735  -0.39374  -0.39374
 Alpha  occ. eigenvalues --   -0.34259
 Alpha virt. eigenvalues --   -0.14039   0.23142   0.30959   0.89985   0.94924
 Alpha virt. eigenvalues --    0.94924   1.06029   1.23305   1.23305   1.24474
 Alpha virt. eigenvalues --    1.34842   1.34842   1.62925   2.14191   2.28846

  Beta  occ. eigenvalues --  -24.65502  -1.07729  -0.38176  -0.37129  -0.37129
  Beta virt. eigenvalues --   -0.20437  -0.08660   0.23680   0.36188   0.91447
  Beta virt. eigenvalues --    0.95420   0.95420   1.08411   1.22412   1.22412
  Beta virt. eigenvalues --    1.43307   1.43518   1.43518   1.56998   2.12987

 Mulliken charges and spin densities:
               1          2
     1  H    0.199298  -0.705059
     2  H    0.008449   0.987575
     3  F   -0.207747   0.717484
 Sum of Mulliken charges =   0.00000   1.00000

 Dipole moment (field-independent basis, Debye):
    X=             -2.1109    Y=              0.0000    Z=              0.0000  Tot=              2.1109
 Quadrupole moment (field-independent basis, Debye-Ang):
   XX=             -9.7607   YY=             -7.4935   ZZ=             -7.4935
   XY=              0.0000   XZ=              0.0000   YZ=              0.0000

  Exact polarizability:      30.703      -0.000       2.068      -0.000       0.000       2.068
 Approx polarizability:      40.749      -0.000       1.956      -0.000      -0.000       1.956

 ******    2 imaginary frequencies (negative Signs) ******

                      1                      2                      3
                      A                      A                      A
 Frequencies --  -1237.6998              -261.2498               521.4793
 Red. masses --      1.0530                 1.0586                 1.0231
 Frc consts  --      0.9504                 0.0426                 0.1639
 IR Inten    --    113.7018                 4.2115                34.9973

                      4
                      A
 Frequencies --    521.4793
 Red. masses --      1.0231
 Frc consts  --      0.1639
 IR Inten    --     34.9973

 - Thermochemistry -
 -------------------
 Temperature   298.150 Kelvin.  Pressure   1.00000 Atm.
 Atom     1 has atomic number  1 and mass   1.00783

 Molecular mass:    21.01405 amu.
 Principal axes and moments of inertia in atomic units:
                           1         2         3
     Eigenvalues --     0.00000  88.74198  88.74198
           X            1.00000  -0.00000   0.00000
           Y            0.00000   1.00000   0.00000
           Z            0.00000   0.00000   1.00000
 This molecule is a prolate symmetric top.
 Rotational symmetry number  1.
 Rotational temperature (Kelvin)      0.97602
 Rotational constant (GHZ):          20.336949
    2 imaginary frequencies ignored.
 Zero-point vibrational energy       6238.3 (Joules/Mol)
                                    1.49098 (Kcal/Mol)
 Warning -- explicit consideration of   2 degrees of freedom as
           vibrations may cause significant error
 Vibrational temperatures:    750.29   750.29
          (Kelvin)

 Zero-point correction=                           0.002376 (Hartree/Particle)
 Thermal correction to Energy=                    0.005154
 Thermal correction to Enthalpy=                  0.006098
 Thermal correction to Gibbs Free Energy=        -0.018141
 Sum of electronic and zero-point Energies=           -100.789688
 Sum of electronic and thermal Energies=              -100.786911
 Sum of electronic and thermal Enthalpies=            -100.785966
 Sum of electronic and thermal Free Energies=         -100.810206

                     E (Thermal)             CV                S
                      KCal/Mol        Cal/Mol-Kelvin    Cal/Mol-Kelvin
 Total                    3.234              7.373             51.016
 Electronic               0.000              0.000              1.377
 Translational            0.889              2.981             35.068
 Rotational               0.592              1.987             13.358
 Vibrational              1.753              2.405              1.213
 Vibration     1          0.876              1.202              0.607
 Vibration     2          0.876              1.202              0.607

 Normal termination of Gaussian 16 at Fri Aug 22 16:54:01 2025.
