 Gaussian 16, Revision C.01,
 Gaussian 16:  ES64L-G16RevC.01  3-Jul-2019

 -----------------------------------------
 # sp b3lyp/6-311g** Force nosymm scf=(qc)
 -----------------------------------------

 -------------------
 Title Card Required
 -------------------
 Symbolic Z-matrix:
 Charge =  0 Multiplicity = 2

                          Input orientation:
 ---------------------------------------------------------------------
 Center     Atomic      Atomic             Coordinates (Angstroms)
 Number     Number       Type             X           Y           Z
 ---------------------------------------------------------------------
      1          1           0        0.000000    0.000000    0.000000
      2          1           0       -1.500000    0.000000    0.000000
      3          9           0        2.600000    0.000000    0.000000
 ---------------------------------------------------------------------

 SCF Done:  E(UB3LYP) =  -100.822763150     a.u. after   20 cycles

 Alpha  occ. eigenvalues --  -24.73939  -1.20016  -0.53109  -0.44571  -0.44571
 Alpha  occ. eigenvalues --   -0.35536
 Alpha virt. eigenvalues --   -0.10576   0.23901   0.30907   0.89590   0.92277
 Alpha virt. eigenvalues --    0.92277   1.04246   1.11275   1.18484   1.18484
 Alpha virt. eigenvalues --    1.40087   1.40087   1.80368   2.20511   2.46649

  Beta  occ. eigenvalues --  -24.70950  -1.11466  -0.41583  -0.41583  -0.35126
  Beta virt. eigenvalues --   -0.25137  -0.09965   0.24774   0.31090   0.93707
  Beta virt. eigenvalues --    0.93707   0.96981   1.06360   1.14701   1.18989
  Beta virt. eigenvalues --    1.18989   1.40503   1.40503   1.80966   2.21411

 Mulliken charges and spin densities:
               1          2
     1  H    0.012001  -0.295014
     2  H    0.033124   0.349615
     3  F   -0.045125   0.945398
 Sum of Mulliken charges =   0.00000   1.00000

 Dipole moment (field-independent basis, Debye):
    X=             -0.8315    Y=              0.0000    Z=             -0.0000  Tot=              0.8315
 Quadrupole moment (field-independent basis, Debye-Ang):
   XX=             -6.6916   YY=             -7.6841   ZZ=             -7.6841
   XY=              0.0000   XZ=             -0.0000   YZ=             -0.0000

  Exact polarizability:      57.559       0.000       2.051      -0.000      -0.000       2.051
 Approx polarizability:      78.315      -0.000       2.030       0.000       0.000       2.030

 ******    2 imaginary frequencies (negative Signs) ******

                      1                      2                      3
                      A                      A                      A
 Frequencies --  -2035.0246              -272.8008              1153.8760
 Red. masses --      1.0083                 1.1079                 1.0127
 Frc consts  --      2.4603                 0.0486                 0.7944
 IR Inten    --    588.1221                28.2735                 0.0028

                      4
                      A
 Frequencies --   1153.8760
 Red. masses --      1.0127
 Frc consts  --      0.7944
 IR Inten    --      0.0028

 - Thermochemistry -
 -------------------
 Temperature   298.150 Kelvin.  Pressure   1.00000 Atm.
 Atom     1 has atomic number  1 and mass   1.00783

 Molecular mass:    21.01405 amu.
 Principal axes and moments of inertia in atomic units:
                           1         2         3
     Eigenvalues --     0.00000  77.08031  77.08031
           X            1.00000  -0.00000   0.00000
           Y            0.00000   1.00000   0.00000
           Z            0.00000   0.00000   1.00000
 This molecule is a prolate symmetric top.
 Rotational symmetry number  1.
 Rotational temperature (Kelvin)      1.12368
 Rotational constant (GHZ):          23.413778
    2 imaginary frequencies ignored.
 Zero-point vibrational energy      13803.4 (Joules/Mol)
                                    3.29910 (Kcal/Mol)
 Vibrational temperatures:   1660.17  1660.17
          (Kelvin)

 Zero-point correction=                           0.005257 (Hartree/Particle)
 Thermal correction to Energy=                    0.007658
 Thermal correction to Enthalpy=                  0.008602
 Thermal correction to Gibbs Free Energy=        -0.014975
 Sum of electronic and zero-point Energies=           -100.817506
 Sum of electronic and thermal Energies=              -100.815105
 Sum of electronic and thermal Enthalpies=            -100.814161
 Sum of electronic and thermal Free Energies=         -100.837738

                     E (Thermal)             CV                S
                      KCal/Mol        Cal/Mol-Kelvin    Cal/Mol-Kelvin
 Total                    4.806              5.442             49.623
 Electronic               0.000              0.000              1.377
 Translational            0.889              2.981             35.068
 Rotational               0.592              1.987             13.078
 Vibrational              3.324              0.474              0.100

 Normal termination of Gaussian 16 at Fri Aug 22 18:03:09 2025.
