 Gaussian 16, Revision C.01,
 Gaussian 16:  ES64L-G16RevC.01  3-Jul-2019

 -----------------------------------------
 # sp b3lyp/6-311g** Force nosymm scf=(qc)
 -----------------------------------------

 -------------------
 Title Card Required
 -------------------
 Symbolic Z-matrix:
 Charge =  0 Multiplicity = 2

                          Input orientation:
 ---------------------------------------------------------------------
 Center     Atomic      Atomic             Coordinates (Angstroms)
 Number     Number       Type             X           Y           Z
 ---------------------------------------------------------------------
      1          1           0        0.000000    0.000000    0.000000
      2          1           0       -1.900000    0.000000    0.000000
      3          9           0        1.800000    0.000000    0.000000
 ---------------------------------------------------------------------

 SCF Done:  E(UB3LYP) =  -100.819653696     a.u. after   14 cycles

 Alpha  occ. eigenvalues --  -24.66449  -1.12763  -0.45720  -0.38235  -0.38235
 Alpha  occ. eigenvalues --   -0.37405
 Alpha virt. eigenvalues --   -0.12978   0.23246   0.29664   0.90017   0.94940
 Alpha virt. eigenvalues --    0.94940   1.04413   1.20294   1.20294   1.30635
 Alpha virt. eigenvalues --    1.34089   1.34089   1.69629   2.11924   2.31302

  Beta  occ. eigenvalues --  -24.64438  -1.07214  -0.38633  -0.36270  -0.36270
  Beta virt. eigenvalues --   -0.20817  -0.10639   0.25651   0.30989   0.92457
  Beta virt. eigenvalues --    0.95154   0.95154   1.08022   1.24678   1.24678
  Beta virt. eigenvalues --    1.35552   1.35552   1.40424   1.68445   2.13288

 Mulliken charges and spin densities:
               1          2
     1  H    0.191012  -0.499223
     2  H    0.054714   0.868040
     3  F   -0.245726   0.631184
 Sum of Mulliken charges =  -0.00000   1.00000

 Dipole moment (field-independent basis, Debye):
    X=             -2.6701    Y=             -0.0000    Z=              0.0000  Tot=              2.6701
 Quadrupole moment (field-independent basis, Debye-Ang):
   XX=             -8.6925   YY=             -7.4720   ZZ=             -7.4720
   XY=             -0.0000   XZ=              0.0000   YZ=             -0.0000

  Exact polarizability:      45.129       0.000       2.119      -0.000       0.000       2.119
 Approx polarizability:      58.231       0.000       2.029       0.000       0.000       2.029

 ******    2 imaginary frequencies (negative Signs) ******

                      1                      2                      3
                      A                      A                      A
 Frequencies --  -1898.0660              -612.6738               778.1527
 Red. masses --      1.0254                 1.0880                 1.0186
 Frc consts  --      2.1765                 0.2406                 0.3634
 IR Inten    --    160.0076                15.9297                22.0496

                      4
                      A
 Frequencies --    778.1527
 Red. masses --      1.0186
 Frc consts  --      0.3634
 IR Inten    --     22.0496

 - Thermochemistry -
 -------------------
 Temperature   298.150 Kelvin.  Pressure   1.00000 Atm.
 Atom     1 has atomic number  1 and mass   1.00783

 Molecular mass:    21.01405 amu.
 Principal axes and moments of inertia in atomic units:
                           1         2         3
     Eigenvalues --     0.00000  55.70986  55.70986
           X            1.00000  -0.00000   0.00000
           Y            0.00000   1.00000   0.00000
           Z            0.00000   0.00000   1.00000
 This molecule is a prolate symmetric top.
 Rotational symmetry number  1.
 Rotational temperature (Kelvin)      1.55473
 Rotational constant (GHZ):          32.395367
    2 imaginary frequencies ignored.
 Zero-point vibrational energy       9308.8 (Joules/Mol)
                                    2.22485 (Kcal/Mol)
 Vibrational temperatures:   1119.59  1119.59
          (Kelvin)

 Zero-point correction=                           0.003546 (Hartree/Particle)
 Thermal correction to Energy=                    0.006076
 Thermal correction to Enthalpy=                  0.007020
 Thermal correction to Gibbs Free Energy=        -0.016418
 Sum of electronic and zero-point Energies=           -100.816108
 Sum of electronic and thermal Energies=              -100.813578
 Sum of electronic and thermal Enthalpies=            -100.812634
 Sum of electronic and thermal Free Energies=         -100.836072

                     E (Thermal)             CV                S
                      KCal/Mol        Cal/Mol-Kelvin    Cal/Mol-Kelvin
 Total                    3.813              6.343             49.330
 Electronic               0.000              0.000              1.377
 Translational            0.889              2.981             35.068
 Rotational               0.592              1.987             12.433
 Vibrational              2.331              1.375              0.452

 Normal termination of Gaussian 16 at Fri Aug 22 16:43:26 2025.
