 Gaussian 16, Revision C.01,
 Gaussian 16:  ES64L-G16RevC.01  3-Jul-2019

 -----------------------------------------
 # sp b3lyp/6-311g** Force nosymm scf=(qc)
 -----------------------------------------

 -------------------
 Title Card Required
 -------------------
 Symbolic Z-matrix:
 Charge =  0 Multiplicity = 2

                          Input orientation:
 ---------------------------------------------------------------------
 Center     Atomic      Atomic             Coordinates (Angstroms)
 Number     Number       Type             X           Y           Z
 ---------------------------------------------------------------------
      1          1           0        0.000000    0.000000    0.000000
      2          1           0       -3.800000    0.000000    0.000000
      3          9           0        0.650000    0.000000    0.000000
 ---------------------------------------------------------------------

 SCF Done:  E(UB3LYP) =  -100.800659774     a.u. after    6 cycles

 Alpha  occ. eigenvalues --  -24.62938  -1.31320  -0.59804  -0.42361  -0.42361
 Alpha  occ. eigenvalues --   -0.33202
 Alpha virt. eigenvalues --    0.06964   0.24579   0.55472   0.92877   0.92877
 Alpha virt. eigenvalues --    0.94689   1.24189   1.24303   1.24303   1.31843
 Alpha virt. eigenvalues --    1.46905   1.46905   1.95891   2.14382   3.09616

  Beta  occ. eigenvalues --  -24.62938  -1.31319  -0.59804  -0.42361  -0.42361
  Beta virt. eigenvalues --   -0.04965   0.07191   0.38943   0.55450   0.92877
  Beta virt. eigenvalues --    0.92877   0.94685   1.31604   1.46905   1.46905
  Beta virt. eigenvalues --    1.49709   1.50047   1.50047   1.95901   2.45349

 Mulliken charges and spin densities:
               1          2
     1  H    0.255047   0.000338
     2  H    0.000417   0.999523
     3  F   -0.255464   0.000139
 Sum of Mulliken charges =   0.00000   1.00000

 Dipole moment (field-independent basis, Debye):
    X=             -1.5091    Y=              0.0000    Z=              0.0000  Tot=              1.5091
 Quadrupole moment (field-independent basis, Debye-Ang):
   XX=             -7.1541   YY=             -6.6080   ZZ=             -6.6080
   XY=              0.0000   XZ=              0.0000   YZ=              0.0000

  Exact polarizability:       3.498       0.000       2.441      -0.000      -0.000       2.441
 Approx polarizability:       3.803       0.000       2.421       0.000      -0.000       2.421

 ******    3 imaginary frequencies (negative Signs) ******

                      1                      2                      3
                      A                      A                      A
 Frequencies --  -4605.5859             -4605.5859               -32.3476
 Red. masses --      1.0439                 1.0439                 1.0532
 Frc consts  --     13.0460                13.0460                 0.0006
 IR Inten    --    227.8110               227.8110                 0.0116

                      4
                      A
 Frequencies --  10873.4318
 Red. masses --      1.0583
 Frc consts  --     73.7219
 IR Inten    --    101.6116

 - Thermochemistry -
 -------------------
 Temperature   298.150 Kelvin.  Pressure   1.00000 Atm.
 Atom     1 has atomic number  1 and mass   1.00783

 Molecular mass:    21.01405 amu.
 Principal axes and moments of inertia in atomic units:
                           1         2         3
     Eigenvalues --     0.00000  68.30044  68.30044
           X            1.00000  -0.00000   0.00000
           Y            0.00000   1.00000   0.00000
           Z            0.00000   0.00000   1.00000
 This molecule is a prolate symmetric top.
 Rotational symmetry number  1.
 Rotational temperature (Kelvin)      1.26813
 Rotational constant (GHZ):          26.423566
    3 imaginary frequencies ignored.
 Zero-point vibrational energy      65037.6 (Joules/Mol)
                                   15.54435 (Kcal/Mol)
 Vibrational temperatures:  15644.44
          (Kelvin)

 Zero-point correction=                           0.024772 (Hartree/Particle)
 Thermal correction to Energy=                    0.027132
 Thermal correction to Enthalpy=                  0.028076
 Thermal correction to Gibbs Free Energy=         0.004660
 Sum of electronic and zero-point Energies=           -100.775888
 Sum of electronic and thermal Energies=              -100.773528
 Sum of electronic and thermal Enthalpies=            -100.772584
 Sum of electronic and thermal Free Energies=         -100.796000

                     E (Thermal)             CV                S
                      KCal/Mol        Cal/Mol-Kelvin    Cal/Mol-Kelvin
 Total                   17.026              4.968             49.283
 Electronic               0.000              0.000              1.377
 Translational            0.889              2.981             35.068
 Rotational               0.592              1.987             12.837
 Vibrational             15.544              0.000              0.000

 Normal termination of Gaussian 16 at Fri Aug 22 15:45:13 2025.
