 Gaussian 16, Revision C.01,
 Gaussian 16:  ES64L-G16RevC.01  3-Jul-2019

 -----------------------------------------
 # sp b3lyp/6-311g** Force nosymm scf=(qc)
 -----------------------------------------

 -------------------
 Title Card Required
 -------------------
 Symbolic Z-matrix:
 Charge =  0 Multiplicity = 2

                          Input orientation:
 ---------------------------------------------------------------------
 Center     Atomic      Atomic             Coordinates (Angstroms)
 Number     Number       Type             X           Y           Z
 ---------------------------------------------------------------------
      1          1           0        0.000000    0.000000    0.000000
      2          1           0       -1.700000    0.000000    0.000000
      3          9           0        1.700000    0.000000    0.000000
 ---------------------------------------------------------------------

 SCF Done:  E(UB3LYP) =  -100.839599792     a.u. after   12 cycles

 Alpha  occ. eigenvalues --  -24.65963  -1.12342  -0.45904  -0.38260  -0.37879
 Alpha  occ. eigenvalues --   -0.37879
 Alpha virt. eigenvalues --   -0.11212   0.22245   0.29318   0.89791   0.94492
 Alpha virt. eigenvalues --    0.94492   1.03709   1.18415   1.18415   1.35710
 Alpha virt. eigenvalues --    1.35710   1.35837   1.77179   2.15015   2.35753

  Beta  occ. eigenvalues --  -24.64115  -1.07283  -0.39384  -0.36083  -0.36083
  Beta virt. eigenvalues --   -0.21480  -0.08662   0.25186   0.29974   0.93102
  Beta virt. eigenvalues --    0.94607   0.94607   1.07402   1.24078   1.24078
  Beta virt. eigenvalues --    1.36343   1.36343   1.42730   1.78789   2.16399

 Mulliken charges and spin densities:
               1          2
     1  H    0.200631  -0.379720
     2  H    0.066668   0.801477
     3  F   -0.267299   0.578243
 Sum of Mulliken charges =   0.00000   1.00000

 Dipole moment (field-independent basis, Debye):
    X=             -2.7694    Y=             -0.0000    Z=              0.0000  Tot=              2.7694
 Quadrupole moment (field-independent basis, Debye-Ang):
   XX=             -8.4198   YY=             -7.4043   ZZ=             -7.4043
   XY=             -0.0000   XZ=              0.0000   YZ=              0.0000

  Exact polarizability:      43.628      -0.000       2.175       0.000       0.000       2.175
 Approx polarizability:      60.836       0.000       2.098      -0.000       0.000       2.098

 ******    2 imaginary frequencies (negative Signs) ******

                      1                      2                      3
                      A                      A                      A
 Frequencies --  -2256.8747              -602.8015               917.7167
 Red. masses --      1.0226                 1.0911                 1.0179
 Frc consts  --      3.0689                 0.2336                 0.5051
 IR Inten    --    299.4429                 3.0891                20.7640

                      4
                      A
 Frequencies --    917.7167
 Red. masses --      1.0179
 Frc consts  --      0.5051
 IR Inten    --     20.7640

 - Thermochemistry -
 -------------------
 Temperature   298.150 Kelvin.  Pressure   1.00000 Atm.
 Atom     1 has atomic number  1 and mass   1.00783

 Molecular mass:    21.01405 amu.
 Principal axes and moments of inertia in atomic units:
                           1         2         3
     Eigenvalues --     0.00000  47.51617  47.51617
           X            1.00000  -0.00000   0.00000
           Y            0.00000   1.00000   0.00000
           Z            0.00000   0.00000   1.00000
 This molecule is a prolate symmetric top.
 Rotational symmetry number  1.
 Rotational temperature (Kelvin)      1.82283
 Rotational constant (GHZ):          37.981624
    2 imaginary frequencies ignored.
 Zero-point vibrational energy      10978.3 (Joules/Mol)
                                    2.62388 (Kcal/Mol)
 Vibrational temperatures:   1320.39  1320.39
          (Kelvin)

 Zero-point correction=                           0.004181 (Hartree/Particle)
 Thermal correction to Energy=                    0.006643
 Thermal correction to Enthalpy=                  0.007587
 Thermal correction to Gibbs Free Energy=        -0.015610
 Sum of electronic and zero-point Energies=           -100.835418
 Sum of electronic and thermal Energies=              -100.832957
 Sum of electronic and thermal Enthalpies=            -100.832013
 Sum of electronic and thermal Free Energies=         -100.855210

                     E (Thermal)             CV                S
                      KCal/Mol        Cal/Mol-Kelvin    Cal/Mol-Kelvin
 Total                    4.168              5.921             48.822
 Electronic               0.000              0.000              1.377
 Translational            0.889              2.981             35.068
 Rotational               0.592              1.987             12.116
 Vibrational              2.687              0.953              0.260

 Normal termination of Gaussian 16 at Fri Aug 22 16:37:10 2025.
