 Gaussian 16, Revision C.01,
 Gaussian 16:  ES64L-G16RevC.01  3-Jul-2019

 -----------------------------------------
 # sp b3lyp/6-311g** Force nosymm scf=(qc)
 -----------------------------------------

 -------------------
 Title Card Required
 -------------------
 Symbolic Z-matrix:
 Charge =  0 Multiplicity = 2

                          Input orientation:
 ---------------------------------------------------------------------
 Center     Atomic      Atomic             Coordinates (Angstroms)
 Number     Number       Type             X           Y           Z
 ---------------------------------------------------------------------
      1          1           0        0.000000    0.000000    0.000000
      2          1           0       -2.700000    0.000000    0.000000
      3          9           0        3.000000    0.000000    0.000000
 ---------------------------------------------------------------------

 SCF Done:  E(UB3LYP) =  -100.763214387     a.u. after   22 cycles

 Alpha  occ. eigenvalues --  -24.74130  -1.20184  -0.53248  -0.44710  -0.44710
 Alpha  occ. eigenvalues --   -0.32899
 Alpha virt. eigenvalues --   -0.09841   0.25128   0.34167   0.89497   0.92250
 Alpha virt. eigenvalues --    0.92250   1.03946   1.24689   1.24689   1.26257
 Alpha virt. eigenvalues --    1.41100   1.41100   1.42026   2.15669   2.37687

  Beta  occ. eigenvalues --  -24.71101  -1.11503  -0.41678  -0.41678  -0.33784
  Beta virt. eigenvalues --   -0.24810  -0.08537   0.25208   0.35614   0.93712
  Beta virt. eigenvalues --    0.93712   0.98250   1.07805   1.23645   1.23645
  Beta virt. eigenvalues --    1.25168   1.43193   1.43193   1.43859   2.16407

 Mulliken charges and spin densities:
               1          2
     1  H    0.032760  -0.943223
     2  H    0.003446   0.983363
     3  F   -0.036205   0.959860
 Sum of Mulliken charges =  -0.00000   1.00000

 Dipole moment (field-independent basis, Debye):
    X=             -0.6019    Y=             -0.0000    Z=              0.0000  Tot=              0.6019
 Quadrupole moment (field-independent basis, Debye-Ang):
   XX=             -8.0664   YY=             -7.6370   ZZ=             -7.6370
   XY=             -0.0000   XZ=              0.0000   YZ=             -0.0000

  Exact polarizability:      39.339      -0.000       2.018       0.000       0.000       2.018
 Approx polarizability:      36.688      -0.000       1.923       0.000      -0.000       1.923

 ******    2 imaginary frequencies (negative Signs) ******

                      1                      2                      3
                      A                      A                      A
 Frequencies --   -563.3869              -221.7599               210.0312
 Red. masses --      1.0136                 1.1016                 1.0167
 Frc consts  --      0.1896                 0.0319                 0.0264
 IR Inten    --     27.0597                13.7135                 0.8969

                      4
                      A
 Frequencies --    210.0312
 Red. masses --      1.0167
 Frc consts  --      0.0264
 IR Inten    --      0.8969

 - Thermochemistry -
 -------------------
 Temperature   298.150 Kelvin.  Pressure   1.00000 Atm.
 Atom     1 has atomic number  1 and mass   1.00783

 Molecular mass:    21.01405 amu.
 Principal axes and moments of inertia in atomic units:
                           1         2         3
     Eigenvalues --     0.00000 136.25825 136.25825
           X            1.00000  -0.00000   0.00000
           Y            0.00000   1.00000   0.00000
           Z            0.00000   0.00000   1.00000
 This molecule is a prolate symmetric top.
 Rotational symmetry number  1.
 Rotational temperature (Kelvin)      0.63566
 Rotational constant (GHZ):          13.245005
    2 imaginary frequencies ignored.
 Zero-point vibrational energy       2512.5 (Joules/Mol)
                                    0.60051 (Kcal/Mol)
 Warning -- explicit consideration of   2 degrees of freedom as
           vibrations may cause significant error
 Vibrational temperatures:    302.19   302.19
          (Kelvin)

 Zero-point correction=                           0.000957 (Hartree/Particle)
 Thermal correction to Energy=                    0.004408
 Thermal correction to Enthalpy=                  0.005352
 Thermal correction to Gibbs Free Energy=        -0.020658
 Sum of electronic and zero-point Energies=           -100.762257
 Sum of electronic and thermal Energies=              -100.758807
 Sum of electronic and thermal Enthalpies=            -100.757862
 Sum of electronic and thermal Free Energies=         -100.783872

                     E (Thermal)             CV                S
                      KCal/Mol        Cal/Mol-Kelvin    Cal/Mol-Kelvin
 Total                    2.766              8.619             54.742
 Electronic               0.000              0.000              1.377
 Translational            0.889              2.981             35.068
 Rotational               0.592              1.987             14.210
 Vibrational              1.285              3.651              4.087
 Vibration     1          0.642              1.825              2.043
 Vibration     2          0.642              1.825              2.043

 Normal termination of Gaussian 16 at Fri Aug 22 19:32:17 2025.
