 Gaussian 16, Revision C.01,
 Gaussian 16:  ES64L-G16RevC.01  3-Jul-2019

 -----------------------------------------
 # sp b3lyp/6-311g** Force nosymm scf=(qc)
 -----------------------------------------

 -------------------
 Title Card Required
 -------------------
 Symbolic Z-matrix:
 Charge =  0 Multiplicity = 2

                          Input orientation:
 ---------------------------------------------------------------------
 Center     Atomic      Atomic             Coordinates (Angstroms)
 Number     Number       Type             X           Y           Z
 ---------------------------------------------------------------------
      1          1           0        0.000000    0.000000    0.000000
      2          1           0       -1.900000    0.000000    0.000000
      3          9           0        2.150000    0.000000    0.000000
 ---------------------------------------------------------------------

 SCF Done:  E(UB3LYP) =  -100.796822060     a.u. after   15 cycles

 Alpha  occ. eigenvalues --  -24.69512  -1.15823  -0.48629  -0.40823  -0.40823
 Alpha  occ. eigenvalues --   -0.36208
 Alpha virt. eigenvalues --   -0.13188   0.24012   0.31337   0.87296   0.94590
 Alpha virt. eigenvalues --    0.94590   1.04314   1.21627   1.21627   1.25513
 Alpha virt. eigenvalues --    1.34072   1.34072   1.57624   2.11356   2.34161

  Beta  occ. eigenvalues --  -24.66915  -1.08499  -0.38249  -0.38249  -0.36559
  Beta virt. eigenvalues --   -0.22370  -0.11806   0.26405   0.31192   0.91076
  Beta virt. eigenvalues --    0.95659   0.95659   1.07896   1.22575   1.22575
  Beta virt. eigenvalues --    1.32313   1.35705   1.35705   1.56773   2.12095

 Mulliken charges and spin densities:
               1          2
     1  H    0.100756  -0.654728
     2  H    0.045320   0.836935
     3  F   -0.146075   0.817793
 Sum of Mulliken charges =  -0.00000   1.00000

 Dipole moment (field-independent basis, Debye):
    X=             -1.9883    Y=              0.0000    Z=              0.0000  Tot=              1.9883
 Quadrupole moment (field-independent basis, Debye-Ang):
   XX=             -8.4137   YY=             -7.5975   ZZ=             -7.5975
   XY=              0.0000   XZ=             -0.0000   YZ=              0.0000

  Exact polarizability:      55.204       0.000       2.040      -0.000      -0.000       2.040
 Approx polarizability:      66.732      -0.000       1.958       0.000      -0.000       1.958

 ******    2 imaginary frequencies (negative Signs) ******

                      1                      2                      3
                      A                      A                      A
 Frequencies --  -1632.2465              -525.3654               678.2312
 Red. masses --      1.0123                 1.1031                 1.0165
 Frc consts  --      1.5891                 0.1794                 0.2755
 IR Inten    --    147.3479                45.7766                 5.4132

                      4
                      A
 Frequencies --    678.2312
 Red. masses --      1.0165
 Frc consts  --      0.2755
 IR Inten    --      5.4132

 - Thermochemistry -
 -------------------
 Temperature   298.150 Kelvin.  Pressure   1.00000 Atm.
 Atom     1 has atomic number  1 and mass   1.00783

 Molecular mass:    21.01405 amu.
 Principal axes and moments of inertia in atomic units:
                           1         2         3
     Eigenvalues --     0.00000  69.03414  69.03414
           X            1.00000  -0.00000   0.00000
           Y            0.00000   1.00000   0.00000
           Z            0.00000   0.00000   1.00000
 This molecule is a prolate symmetric top.
 Rotational symmetry number  1.
 Rotational temperature (Kelvin)      1.25465
 Rotational constant (GHZ):          26.142733
    2 imaginary frequencies ignored.
 Zero-point vibrational energy       8113.4 (Joules/Mol)
                                    1.93916 (Kcal/Mol)
 Vibrational temperatures:    975.82   975.82
          (Kelvin)

 Zero-point correction=                           0.003090 (Hartree/Particle)
 Thermal correction to Energy=                    0.005694
 Thermal correction to Enthalpy=                  0.006638
 Thermal correction to Gibbs Free Energy=        -0.017104
 Sum of electronic and zero-point Energies=           -100.793732
 Sum of electronic and thermal Energies=              -100.791128
 Sum of electronic and thermal Enthalpies=            -100.790184
 Sum of electronic and thermal Free Energies=         -100.813926

                     E (Thermal)             CV                S
                      KCal/Mol        Cal/Mol-Kelvin    Cal/Mol-Kelvin
 Total                    3.573              6.711             49.970
 Electronic               0.000              0.000              1.377
 Translational            0.889              2.981             35.068
 Rotational               0.592              1.987             12.859
 Vibrational              2.092              1.743              0.666

 Normal termination of Gaussian 16 at Fri Aug 22 17:07:34 2025.
