 Gaussian 16, Revision C.01,
 Gaussian 16:  ES64L-G16RevC.01  3-Jul-2019

 -----------------------------------------
 # sp b3lyp/6-311g** Force nosymm scf=(qc)
 -----------------------------------------

 -------------------
 Title Card Required
 -------------------
 Symbolic Z-matrix:
 Charge =  0 Multiplicity = 2

                          Input orientation:
 ---------------------------------------------------------------------
 Center     Atomic      Atomic             Coordinates (Angstroms)
 Number     Number       Type             X           Y           Z
 ---------------------------------------------------------------------
      1          1           0        0.000000    0.000000    0.000000
      2          1           0       -3.200000    0.000000    0.000000
      3          9           0        1.900000    0.000000    0.000000
 ---------------------------------------------------------------------

 SCF Done:  E(UB3LYP) =  -100.795208633     a.u. after   13 cycles

 Alpha  occ. eigenvalues --  -24.67414  -1.13693  -0.46322  -0.39060  -0.39060
 Alpha  occ. eigenvalues --   -0.33863
 Alpha virt. eigenvalues --   -0.14362   0.22296   0.30993   0.90505   0.94884
 Alpha virt. eigenvalues --    0.94884   1.05810   1.23666   1.23666   1.24023
 Alpha virt. eigenvalues --    1.34471   1.34471   1.65294   2.14081   2.27898

  Beta  occ. eigenvalues --  -24.65237  -1.07646  -0.38580  -0.36923  -0.36923
  Beta virt. eigenvalues --   -0.20060  -0.07695   0.22706   0.37326   0.91510
  Beta virt. eigenvalues --    0.95216   0.95216   1.08166   1.22695   1.22695
  Beta virt. eigenvalues --    1.44515   1.45003   1.45003   1.59529   2.12480

 Mulliken charges and spin densities:
               1          2
     1  H    0.219637  -0.679576
     2  H    0.003809   0.994784
     3  F   -0.223445   0.684793
 Sum of Mulliken charges =   0.00000   1.00000

 Dipole moment (field-independent basis, Debye):
    X=             -2.1425    Y=              0.0000    Z=             -0.0000  Tot=              2.1425
 Quadrupole moment (field-independent basis, Debye-Ang):
   XX=             -9.9957   YY=             -7.4710   ZZ=             -7.4710
   XY=             -0.0000   XZ=              0.0000   YZ=             -0.0000

  Exact polarizability:      26.533      -0.000       2.077       0.000      -0.000       2.077
 Approx polarizability:      38.002       0.000       1.964      -0.000       0.000       1.964

 ******    2 imaginary frequencies (negative Signs) ******

                      1                      2                      3
                      A                      A                      A
 Frequencies --  -1312.9320              -170.1489               557.8903
 Red. masses --      1.0564                 1.0552                 1.0253
 Frc consts  --      1.0729                 0.0180                 0.1880
 IR Inten    --    124.7160                 1.0507                44.0024

                      4
                      A
 Frequencies --    557.8903
 Red. masses --      1.0253
 Frc consts  --      0.1880
 IR Inten    --     44.0024

 - Thermochemistry -
 -------------------
 Temperature   298.150 Kelvin.  Pressure   1.00000 Atm.
 Atom     1 has atomic number  1 and mass   1.00783

 Molecular mass:    21.01405 amu.
 Principal axes and moments of inertia in atomic units:
                           1         2         3
     Eigenvalues --     0.00000  98.14489  98.14489
           X            1.00000  -0.00000   0.00000
           Y            0.00000   1.00000   0.00000
           Z            0.00000   0.00000   1.00000
 This molecule is a prolate symmetric top.
 Rotational symmetry number  1.
 Rotational temperature (Kelvin)      0.88251
 Rotational constant (GHZ):          18.388539
    2 imaginary frequencies ignored.
 Zero-point vibrational energy       6673.8 (Joules/Mol)
                                    1.59509 (Kcal/Mol)
 Warning -- explicit consideration of   2 degrees of freedom as
           vibrations may cause significant error
 Vibrational temperatures:    802.68   802.68
          (Kelvin)

 Zero-point correction=                           0.002542 (Hartree/Particle)
 Thermal correction to Energy=                    0.005272
 Thermal correction to Enthalpy=                  0.006216
 Thermal correction to Gibbs Free Energy=        -0.018044
 Sum of electronic and zero-point Energies=           -100.792667
 Sum of electronic and thermal Energies=              -100.789937
 Sum of electronic and thermal Enthalpies=            -100.788993
 Sum of electronic and thermal Free Energies=         -100.813253

                     E (Thermal)             CV                S
                      KCal/Mol        Cal/Mol-Kelvin    Cal/Mol-Kelvin
 Total                    3.308              7.213             51.059
 Electronic               0.000              0.000              1.377
 Translational            0.889              2.981             35.068
 Rotational               0.592              1.987             13.558
 Vibrational              1.827              2.245              1.056
 Vibration     1          0.913              1.122              0.528
 Vibration     2          0.913              1.122              0.528

 Normal termination of Gaussian 16 at Fri Aug 22 16:51:03 2025.
