 Gaussian 16, Revision C.01,
 Gaussian 16:  ES64L-G16RevC.01  3-Jul-2019

 -----------------------------------------
 # sp b3lyp/6-311g** Force nosymm scf=(qc)
 -----------------------------------------

 -------------------
 Title Card Required
 -------------------
 Symbolic Z-matrix:
 Charge =  0 Multiplicity = 2

                          Input orientation:
 ---------------------------------------------------------------------
 Center     Atomic      Atomic             Coordinates (Angstroms)
 Number     Number       Type             X           Y           Z
 ---------------------------------------------------------------------
      1          1           0        0.000000    0.000000    0.000000
      2          1           0       -1.350000    0.000000    0.000000
      3          9           0        2.200000    0.000000    0.000000
 ---------------------------------------------------------------------

 SCF Done:  E(UB3LYP) =  -100.850464744     a.u. after   15 cycles

 Alpha  occ. eigenvalues --  -24.72575  -1.18776  -0.51949  -0.43458  -0.43458
 Alpha  occ. eigenvalues --   -0.37585
 Alpha virt. eigenvalues --   -0.08176   0.22649   0.32527   0.87226   0.92703
 Alpha virt. eigenvalues --    0.92703   1.04720   1.13951   1.13951   1.25250
 Alpha virt. eigenvalues --    1.44771   1.44771   1.92597   2.24517   2.50369

  Beta  occ. eigenvalues --  -24.69719  -1.10656  -0.40613  -0.40613  -0.37061
  Beta virt. eigenvalues --   -0.24818  -0.06903   0.23664   0.32852   0.93424
  Beta virt. eigenvalues --    0.94021   0.94021   1.07868   1.14962   1.14962
  Beta virt. eigenvalues --    1.28697   1.45502   1.45502   1.93711   2.25636

 Mulliken charges and spin densities:
               1          2
     1  H    0.032431  -0.177209
     2  H    0.047845   0.277648
     3  F   -0.080276   0.899561
 Sum of Mulliken charges =  -0.00000   1.00000

 Dipole moment (field-independent basis, Debye):
    X=             -1.1870    Y=             -0.0000    Z=             -0.0000  Tot=              1.1870
 Quadrupole moment (field-independent basis, Debye-Ang):
   XX=             -6.9271   YY=             -7.5324   ZZ=             -7.5324
   XY=             -0.0000   XZ=             -0.0000   YZ=             -0.0000

  Exact polarizability:      50.058      -0.000       2.114      -0.000       0.000       2.114
 Approx polarizability:      73.395       0.000       2.098       0.000       0.000       2.098

 ******    2 imaginary frequencies (negative Signs) ******

                      1                      2                      3
                      A                      A                      A
 Frequencies --  -1751.9006              -317.6900              1277.7350
 Red. masses --      1.0110                 1.1047                 1.0131
 Frc consts  --      1.8281                 0.0657                 0.9745
 IR Inten    --    969.2013                12.4391                 0.0428

                      4
                      A
 Frequencies --   1277.7350
 Red. masses --      1.0131
 Frc consts  --      0.9745
 IR Inten    --      0.0428

 - Thermochemistry -
 -------------------
 Temperature   298.150 Kelvin.  Pressure   1.00000 Atm.
 Atom     1 has atomic number  1 and mass   1.00783

 Molecular mass:    21.01405 amu.
 Principal axes and moments of inertia in atomic units:
                           1         2         3
     Eigenvalues --     0.00000  57.06889  57.06889
           X            1.00000  -0.00000   0.00000
           Y            0.00000   1.00000   0.00000
           Z            0.00000   0.00000   1.00000
 This molecule is a prolate symmetric top.
 Rotational symmetry number  1.
 Rotational temperature (Kelvin)      1.51771
 Rotational constant (GHZ):          31.623906
    2 imaginary frequencies ignored.
 Zero-point vibrational energy      15285.1 (Joules/Mol)
                                    3.65323 (Kcal/Mol)
 Vibrational temperatures:   1838.38  1838.38
          (Kelvin)

 Zero-point correction=                           0.005822 (Hartree/Particle)
 Thermal correction to Energy=                    0.008207
 Thermal correction to Enthalpy=                  0.009151
 Thermal correction to Gibbs Free Energy=        -0.014124
 Sum of electronic and zero-point Energies=           -100.844643
 Sum of electronic and thermal Energies=              -100.842258
 Sum of electronic and thermal Enthalpies=            -100.841314
 Sum of electronic and thermal Free Energies=         -100.864589

                     E (Thermal)             CV                S
                      KCal/Mol        Cal/Mol-Kelvin    Cal/Mol-Kelvin
 Total                    5.150              5.287             48.986
 Electronic               0.000              0.000              1.377
 Translational            0.889              2.981             35.068
 Rotational               0.592              1.987             12.480
 Vibrational              3.669              0.319              0.060

 Normal termination of Gaussian 16 at Fri Aug 22 17:11:03 2025.
