 Gaussian 16, Revision C.01,
 Gaussian 16:  ES64L-G16RevC.01  3-Jul-2019

 -----------------------------------------
 # sp b3lyp/6-311g** Force nosymm scf=(qc)
 -----------------------------------------

 -------------------
 Title Card Required
 -------------------
 Symbolic Z-matrix:
 Charge =  0 Multiplicity = 2

                          Input orientation:
 ---------------------------------------------------------------------
 Center     Atomic      Atomic             Coordinates (Angstroms)
 Number     Number       Type             X           Y           Z
 ---------------------------------------------------------------------
      1          1           0        0.000000    0.000000    0.000000
      2          1           0       -2.250000    0.000000    0.000000
      3          9           0        2.550000    0.000000    0.000000
 ---------------------------------------------------------------------

 SCF Done:  E(UB3LYP) =  -100.773794117     a.u. after   16 cycles

 Alpha  occ. eigenvalues --  -24.72068  -1.18254  -0.51171  -0.42973  -0.42973
 Alpha  occ. eigenvalues --   -0.34160
 Alpha virt. eigenvalues --   -0.12330   0.25008   0.32673   0.90250   0.93460
 Alpha virt. eigenvalues --    0.93460   1.06389   1.23633   1.23633   1.25821
 Alpha virt. eigenvalues --    1.36647   1.36647   1.43126   2.13052   2.33404

  Beta  occ. eigenvalues --  -24.69198  -1.10074  -0.40109  -0.40109  -0.35062
  Beta virt. eigenvalues --   -0.23622  -0.10623   0.26254   0.33514   0.94846
  Beta virt. eigenvalues --    0.94846   0.97612   1.09541   1.22703   1.22703
  Beta virt. eigenvalues --    1.27848   1.39448   1.39448   1.44084   2.13475

 Mulliken charges and spin densities:
               1          2
     1  H    0.062883  -0.846258
     2  H    0.017902   0.938814
     3  F   -0.080784   0.907444
 Sum of Mulliken charges =   0.00000   1.00000

 Dipole moment (field-independent basis, Debye):
    X=             -1.2426    Y=             -0.0000    Z=              0.0000  Tot=              1.2426
 Quadrupole moment (field-independent basis, Debye-Ang):
   XX=             -8.4653   YY=             -7.6399   ZZ=             -7.6399
   XY=              0.0000   XZ=             -0.0000   YZ=             -0.0000

  Exact polarizability:      51.816       0.000       2.010      -0.000      -0.000       2.010
 Approx polarizability:      52.963       0.000       1.919      -0.000      -0.000       1.919

 ******    2 imaginary frequencies (negative Signs) ******

                      1                      2                      3
                      A                      A                      A
 Frequencies --  -1026.9616              -365.2046               403.9478
 Red. masses --      1.0115                 1.1042                 1.0165
 Frc consts  --      0.6285                 0.0868                 0.0977
 IR Inten    --     43.8215                40.3684                 2.7854

                      4
                      A
 Frequencies --    403.9478
 Red. masses --      1.0165
 Frc consts  --      0.0977
 IR Inten    --      2.7854

 - Thermochemistry -
 -------------------
 Temperature   298.150 Kelvin.  Pressure   1.00000 Atm.
 Atom     1 has atomic number  1 and mass   1.00783

 Molecular mass:    21.01405 amu.
 Principal axes and moments of inertia in atomic units:
                           1         2         3
     Eigenvalues --     0.00000  96.99905  96.99905
           X            1.00000  -0.00000   0.00000
           Y            0.00000   1.00000   0.00000
           Z            0.00000   0.00000   1.00000
 This molecule is a prolate symmetric top.
 Rotational symmetry number  1.
 Rotational temperature (Kelvin)      0.89294
 Rotational constant (GHZ):          18.605761
    2 imaginary frequencies ignored.
 Zero-point vibrational energy       4832.3 (Joules/Mol)
                                    1.15494 (Kcal/Mol)
 Warning -- explicit consideration of   2 degrees of freedom as
           vibrations may cause significant error
 Vibrational temperatures:    581.19   581.19
          (Kelvin)

 Zero-point correction=                           0.001841 (Hartree/Particle)
 Thermal correction to Energy=                    0.004812
 Thermal correction to Enthalpy=                  0.005756
 Thermal correction to Gibbs Free Energy=        -0.018892
 Sum of electronic and zero-point Energies=           -100.771954
 Sum of electronic and thermal Energies=              -100.768982
 Sum of electronic and thermal Enthalpies=            -100.768038
 Sum of electronic and thermal Free Energies=         -100.792686

                     E (Thermal)             CV                S
                      KCal/Mol        Cal/Mol-Kelvin    Cal/Mol-Kelvin
 Total                    3.020              7.891             51.876
 Electronic               0.000              0.000              1.377
 Translational            0.889              2.981             35.068
 Rotational               0.592              1.987             13.535
 Vibrational              1.538              2.923              1.897
 Vibration     1          0.769              1.462              0.948
 Vibration     2          0.769              1.462              0.948

 Normal termination of Gaussian 16 at Fri Aug 22 17:54:05 2025.
