 Gaussian 16, Revision C.01,
 Gaussian 16:  ES64L-G16RevC.01  3-Jul-2019

 -----------------------------------------
 # sp b3lyp/6-311g** Force nosymm scf=(qc)
 -----------------------------------------

 -------------------
 Title Card Required
 -------------------
 Symbolic Z-matrix:
 Charge =  0 Multiplicity = 2

                          Input orientation:
 ---------------------------------------------------------------------
 Center     Atomic      Atomic             Coordinates (Angstroms)
 Number     Number       Type             X           Y           Z
 ---------------------------------------------------------------------
      1          1           0        0.000000    0.000000    0.000000
      2          1           0       -2.300000    0.000000    0.000000
      3          9           0        2.350000    0.000000    0.000000
 ---------------------------------------------------------------------

 SCF Done:  E(UB3LYP) =  -100.777537620     a.u. after   16 cycles

 Alpha  occ. eigenvalues --  -24.70779  -1.17035  -0.49863  -0.41890  -0.41890
 Alpha  occ. eigenvalues --   -0.34506
 Alpha virt. eigenvalues --   -0.12827   0.24715   0.32473   0.89572   0.94124
 Alpha virt. eigenvalues --    0.94124   1.06563   1.23251   1.23251   1.27095
 Alpha virt. eigenvalues --    1.36105   1.36105   1.45708   2.13097   2.31697

  Beta  occ. eigenvalues --  -24.68030  -1.09237  -0.39155  -0.39155  -0.35848
  Beta virt. eigenvalues --   -0.22794  -0.10570   0.26161   0.33685   0.95221
  Beta virt. eigenvalues --    0.95399   0.95399   1.09197   1.22193   1.22193
  Beta virt. eigenvalues --    1.34862   1.39707   1.39707   1.43320   2.12922

 Mulliken charges and spin densities:
               1          2
     1  H    0.092502  -0.815240
     2  H    0.020046   0.947744
     3  F   -0.112548   0.867496
 Sum of Mulliken charges =   0.00000   1.00000

 Dipole moment (field-independent basis, Debye):
    X=             -1.5584    Y=             -0.0000    Z=              0.0000  Tot=              1.5584
 Quadrupole moment (field-independent basis, Debye-Ang):
   XX=             -8.8191   YY=             -7.6068   ZZ=             -7.6068
   XY=             -0.0000   XZ=              0.0000   YZ=             -0.0000

  Exact polarizability:      48.050       0.000       2.019       0.000      -0.000       2.019
 Approx polarizability:      52.064       0.000       1.922      -0.000       0.000       1.922

 ******    2 imaginary frequencies (negative Signs) ******

                      1                      2                      3
                      A                      A                      A
 Frequencies --  -1032.7993              -414.5955               416.9698
 Red. masses --      1.0175                 1.0971                 1.0177
 Frc consts  --      0.6394                 0.1111                 0.1042
 IR Inten    --     56.8497                37.7005                 6.4096

                      4
                      A
 Frequencies --    416.9698
 Red. masses --      1.0177
 Frc consts  --      0.1042
 IR Inten    --      6.4096

 - Thermochemistry -
 -------------------
 Temperature   298.150 Kelvin.  Pressure   1.00000 Atm.
 Atom     1 has atomic number  1 and mass   1.00783

 Molecular mass:    21.01405 amu.
 Principal axes and moments of inertia in atomic units:
                           1         2         3
     Eigenvalues --     0.00000  89.23735  89.23735
           X            1.00000  -0.00000   0.00000
           Y            0.00000   1.00000   0.00000
           Z            0.00000   0.00000   1.00000
 This molecule is a prolate symmetric top.
 Rotational symmetry number  1.
 Rotational temperature (Kelvin)      0.97060
 Rotational constant (GHZ):          20.224057
    2 imaginary frequencies ignored.
 Zero-point vibrational energy       4988.1 (Joules/Mol)
                                    1.19218 (Kcal/Mol)
 Warning -- explicit consideration of   2 degrees of freedom as
           vibrations may cause significant error
 Vibrational temperatures:    599.93   599.93
          (Kelvin)

 Zero-point correction=                           0.001900 (Hartree/Particle)
 Thermal correction to Energy=                    0.004847
 Thermal correction to Enthalpy=                  0.005791
 Thermal correction to Gibbs Free Energy=        -0.018735
 Sum of electronic and zero-point Energies=           -100.775638
 Sum of electronic and thermal Energies=              -100.772691
 Sum of electronic and thermal Enthalpies=            -100.771747
 Sum of electronic and thermal Free Energies=         -100.796272

                     E (Thermal)             CV                S
                      KCal/Mol        Cal/Mol-Kelvin    Cal/Mol-Kelvin
 Total                    3.041              7.835             51.619
 Electronic               0.000              0.000              1.377
 Translational            0.889              2.981             35.068
 Rotational               0.592              1.987             13.369
 Vibrational              1.560              2.867              1.805
 Vibration     1          0.780              1.433              0.902
 Vibration     2          0.780              1.433              0.902

 Normal termination of Gaussian 16 at Fri Aug 22 17:26:37 2025.
