 Gaussian 16, Revision C.01,
 Gaussian 16:  ES64L-G16RevC.01  3-Jul-2019

 -----------------------------------------
 # sp b3lyp/6-311g** Force nosymm scf=(qc)
 -----------------------------------------

 -------------------
 Title Card Required
 -------------------
 Symbolic Z-matrix:
 Charge =  0 Multiplicity = 2

                          Input orientation:
 ---------------------------------------------------------------------
 Center     Atomic      Atomic             Coordinates (Angstroms)
 Number     Number       Type             X           Y           Z
 ---------------------------------------------------------------------
      1          1           0        0.000000    0.000000    0.000000
      2          1           0       -1.700000    0.000000    0.000000
      3          9           0        3.500000    0.000000    0.000000
 ---------------------------------------------------------------------

 SCF Done:  E(UB3LYP) =  -100.794952331     a.u. after  236 cycles

 Alpha  occ. eigenvalues --  -24.76320  -1.22201  -0.55403  -0.46588  -0.46558
 Alpha  occ. eigenvalues --   -0.33035
 Alpha virt. eigenvalues --   -0.10509   0.25759   0.30938   0.85983   0.90860
 Alpha virt. eigenvalues --    0.91972   1.01278   1.07690   1.23881   1.23883
 Alpha virt. eigenvalues --    1.38317   1.38321   1.67838   2.17013   2.41931

  Beta  occ. eigenvalues --  -24.73166  -1.13129  -0.43436  -0.43395  -0.33018
  Beta virt. eigenvalues --   -0.26049  -0.10555   0.25743   0.31035   0.92362
  Beta virt. eigenvalues --    0.93419   0.95451   1.05355   1.07673   1.23874
  Beta virt. eigenvalues --    1.23878   1.38303   1.38305   1.67884   2.17338

 Mulliken charges and spin densities:
               1          2
     1  H    0.000380  -0.611495
     2  H   -0.002757   0.611502
     3  F    0.002377   0.999992
 Sum of Mulliken charges =   0.00000   1.00000

 Dipole moment (field-independent basis, Debye):
    X=              0.0468    Y=             -0.0000    Z=              0.0000  Tot=              0.0468
 Quadrupole moment (field-independent basis, Debye-Ang):
   XX=             -6.5548   YY=             -7.7706   ZZ=             -6.9062
   XY=              0.0000   XZ=              0.0000   YZ=             -0.0024

  Exact polarizability:      24.009      -0.000       2.018      -0.000      -0.001       2.482
 Approx polarizability:      37.979      -0.000       1.980       0.000      -0.002       2.563

 ******    2 imaginary frequencies (negative Signs) ******

                      1                      2                      3
                      A                      A                      A
 Frequencies --  -1905.6202               -23.4975               906.8369
 Red. masses --      1.0078                 1.1085                 1.0115
 Frc consts  --      2.1563                 0.0004                 0.4901
 IR Inten    --      0.0270                 0.1508                 0.0022

                      4
                      A
 Frequencies --    907.3861
 Red. masses --      1.0115
 Frc consts  --      0.4907
 IR Inten    --      0.0013

 - Thermochemistry -
 -------------------
 Temperature   298.150 Kelvin.  Pressure   1.00000 Atm.
 Atom     1 has atomic number  1 and mass   1.00783

 Molecular mass:    21.01405 amu.
 Principal axes and moments of inertia in atomic units:
                           1         2         3
     Eigenvalues --     0.00000 128.34043 128.34043
           X            1.00000  -0.00000   0.00000
           Y            0.00000   1.00000   0.00000
           Z            0.00000   0.00000   1.00000
 This molecule is a prolate symmetric top.
 Rotational symmetry number  1.
 Rotational temperature (Kelvin)      0.67488
 Rotational constant (GHZ):          14.062141
    2 imaginary frequencies ignored.
 Zero-point vibrational energy      10851.5 (Joules/Mol)
                                    2.59356 (Kcal/Mol)
 Vibrational temperatures:   1304.74  1305.53
          (Kelvin)

 Zero-point correction=                           0.004133 (Hartree/Particle)
 Thermal correction to Energy=                    0.006599
 Thermal correction to Enthalpy=                  0.007543
 Thermal correction to Gibbs Free Energy=        -0.016598
 Sum of electronic and zero-point Energies=           -100.790819
 Sum of electronic and thermal Energies=              -100.788354
 Sum of electronic and thermal Enthalpies=            -100.787409
 Sum of electronic and thermal Free Energies=         -100.811550

                     E (Thermal)             CV                S
                      KCal/Mol        Cal/Mol-Kelvin    Cal/Mol-Kelvin
 Total                    4.141              5.949             50.808
 Electronic               0.000              0.000              1.377
 Translational            0.889              2.981             35.068
 Rotational               0.592              1.987             14.091
 Vibrational              2.660              0.981              0.271

 Normal termination of Gaussian 16 at Fri Aug 22 22:08:15 2025.
