 Gaussian 16, Revision C.01,
 Gaussian 16:  ES64L-G16RevC.01  3-Jul-2019

 -----------------------------------------
 # sp b3lyp/6-311g** Force nosymm scf=(qc)
 -----------------------------------------

 -------------------
 Title Card Required
 -------------------
 Symbolic Z-matrix:
 Charge =  0 Multiplicity = 2

                          Input orientation:
 ---------------------------------------------------------------------
 Center     Atomic      Atomic             Coordinates (Angstroms)
 Number     Number       Type             X           Y           Z
 ---------------------------------------------------------------------
      1          1           0        0.000000    0.000000    0.000000
      2          1           0       -2.450000    0.000000    0.000000
      3          9           0        2.550000    0.000000    0.000000
 ---------------------------------------------------------------------

 SCF Done:  E(UB3LYP) =  -100.770680310     a.u. after   15 cycles

 Alpha  occ. eigenvalues --  -24.72046  -1.18235  -0.51147  -0.42958  -0.42958
 Alpha  occ. eigenvalues --   -0.33787
 Alpha virt. eigenvalues --   -0.11883   0.24919   0.33105   0.90207   0.93467
 Alpha virt. eigenvalues --    0.93467   1.06458   1.23887   1.23887   1.26784
 Alpha virt. eigenvalues --    1.37839   1.37839   1.42341   2.14542   2.33726

  Beta  occ. eigenvalues --  -24.69177  -1.10062  -0.40096  -0.40096  -0.35110
  Beta virt. eigenvalues --   -0.23577  -0.09762   0.25900   0.34474   0.94851
  Beta virt. eigenvalues --    0.94851   0.97514   1.09518   1.22503   1.22503
  Beta virt. eigenvalues --    1.29001   1.41224   1.41224   1.43306   2.14514

 Mulliken charges and spin densities:
               1          2
     1  H    0.070141  -0.872968
     2  H    0.011619   0.966138
     3  F   -0.081760   0.906830
 Sum of Mulliken charges =  -0.00000   1.00000

 Dipole moment (field-independent basis, Debye):
    X=             -1.1984    Y=              0.0000    Z=             -0.0000  Tot=              1.1984
 Quadrupole moment (field-independent basis, Debye-Ang):
   XX=             -8.6970   YY=             -7.6212   ZZ=             -7.6212
   XY=              0.0000   XZ=             -0.0000   YZ=             -0.0000

  Exact polarizability:      45.411       0.000       2.014      -0.000       0.000       2.014
 Approx polarizability:      47.740       0.000       1.918      -0.000       0.000       1.918

 ******    2 imaginary frequencies (negative Signs) ******

                      1                      2                      3
                      A                      A                      A
 Frequencies --   -833.8842              -339.5780               327.7237
 Red. masses --      1.0168                 1.0978                 1.0175
 Frc consts  --      0.4166                 0.0746                 0.0644
 IR Inten    --     47.6866                28.2572                 3.9220

                      4
                      A
 Frequencies --    327.7237
 Red. masses --      1.0175
 Frc consts  --      0.0644
 IR Inten    --      3.9220

 - Thermochemistry -
 -------------------
 Temperature   298.150 Kelvin.  Pressure   1.00000 Atm.
 Atom     1 has atomic number  1 and mass   1.00783

 Molecular mass:    21.01405 amu.
 Principal axes and moments of inertia in atomic units:
                           1         2         3
     Eigenvalues --     0.00000 103.53874 103.53874
           X            1.00000  -0.00000   0.00000
           Y            0.00000   1.00000   0.00000
           Z            0.00000   0.00000   1.00000
 This molecule is a prolate symmetric top.
 Rotational symmetry number  1.
 Rotational temperature (Kelvin)      0.83654
 Rotational constant (GHZ):          17.430589
    2 imaginary frequencies ignored.
 Zero-point vibrational energy       3920.4 (Joules/Mol)
                                    0.93701 (Kcal/Mol)
 Warning -- explicit consideration of   2 degrees of freedom as
           vibrations may cause significant error
 Vibrational temperatures:    471.52   471.52
          (Kelvin)

 Zero-point correction=                           0.001493 (Hartree/Particle)
 Thermal correction to Energy=                    0.004627
 Thermal correction to Enthalpy=                  0.005571
 Thermal correction to Gibbs Free Energy=        -0.019446
 Sum of electronic and zero-point Energies=           -100.769187
 Sum of electronic and thermal Energies=              -100.766053
 Sum of electronic and thermal Enthalpies=            -100.765109
 Sum of electronic and thermal Free Energies=         -100.790126

                     E (Thermal)             CV                S
                      KCal/Mol        Cal/Mol-Kelvin    Cal/Mol-Kelvin
 Total                    2.903              8.208             52.652
 Electronic               0.000              0.000              1.377
 Translational            0.889              2.981             35.068
 Rotational               0.592              1.987             13.664
 Vibrational              1.422              3.240              2.543
 Vibration     1          0.711              1.620              1.271
 Vibration     2          0.711              1.620              1.271

 Normal termination of Gaussian 16 at Fri Aug 22 17:54:16 2025.
