 Gaussian 16, Revision C.01,
 Gaussian 16:  ES64L-G16RevC.01  3-Jul-2019

 -----------------------------------------
 # sp b3lyp/6-311g** Force nosymm scf=(qc)
 -----------------------------------------

 -------------------
 Title Card Required
 -------------------
 Symbolic Z-matrix:
 Charge =  0 Multiplicity = 2

                          Input orientation:
 ---------------------------------------------------------------------
 Center     Atomic      Atomic             Coordinates (Angstroms)
 Number     Number       Type             X           Y           Z
 ---------------------------------------------------------------------
      1          1           0        0.000000    0.000000    0.000000
      2          1           0       -3.150000    0.000000    0.000000
      3          9           0        0.600000    0.000000    0.000000
 ---------------------------------------------------------------------

 SCF Done:  E(UB3LYP) =  -100.687966588     a.u. after    6 cycles

 Alpha  occ. eigenvalues --  -24.62725  -1.34719  -0.61022  -0.42972  -0.42972
 Alpha  occ. eigenvalues --   -0.33591
 Alpha virt. eigenvalues --    0.07575   0.25421   0.58113   0.92131   0.92131
 Alpha virt. eigenvalues --    0.93151   1.23091   1.23929   1.23929   1.36289
 Alpha virt. eigenvalues --    1.50274   1.50274   1.95594   2.15114   3.36528

  Beta  occ. eigenvalues --  -24.62724  -1.34715  -0.61020  -0.42972  -0.42972
  Beta virt. eigenvalues --   -0.05627   0.08392   0.39461   0.58220   0.92129
  Beta virt. eigenvalues --    0.92129   0.93153   1.33927   1.50276   1.50276
  Beta virt. eigenvalues --    1.50689   1.50689   1.52253   1.95512   2.44970

 Mulliken charges and spin densities:
               1          2
     1  H    0.237055   0.000935
     2  H    0.001419   0.998190
     3  F   -0.238474   0.000875
 Sum of Mulliken charges =   0.00000   1.00000

 Dipole moment (field-independent basis, Debye):
    X=             -1.4511    Y=             -0.0000    Z=              0.0000  Tot=              1.4511
 Quadrupole moment (field-independent basis, Debye-Ang):
   XX=             -6.9232   YY=             -6.5517   ZZ=             -6.5517
   XY=             -0.0000   XZ=              0.0000   YZ=              0.0000

  Exact polarizability:       3.794      -0.000       2.444      -0.000      -0.000       2.444
 Approx polarizability:       3.976       0.000       2.424      -0.000      -0.000       2.424

 ******    3 imaginary frequencies (negative Signs) ******

                      1                      2                      3
                      A                      A                      A
 Frequencies --  -5873.1383             -5873.1383               -26.0561
 Red. masses --      1.0426                 1.0426                 1.0532
 Frc consts  --     21.1887                21.1887                 0.0004
 IR Inten    --    237.1537               237.1537                 0.0599

                      4
                      A
 Frequencies --  13070.6946
 Red. masses --      1.0583
 Frc consts  --    106.5274
 IR Inten    --    100.1190

 - Thermochemistry -
 -------------------
 Temperature   298.150 Kelvin.  Pressure   1.00000 Atm.
 Atom     1 has atomic number  1 and mass   1.00783

 Molecular mass:    21.01405 amu.
 Principal axes and moments of inertia in atomic units:
                           1         2         3
     Eigenvalues --     0.00000  48.64055  48.64055
           X            1.00000  -0.00000   0.00000
           Y            0.00000   1.00000   0.00000
           Z            0.00000   0.00000   1.00000
 This molecule is a prolate symmetric top.
 Rotational symmetry number  1.
 Rotational temperature (Kelvin)      1.78069
 Rotational constant (GHZ):          37.103638
    3 imaginary frequencies ignored.
 Zero-point vibrational energy      78180.1 (Joules/Mol)
                                   18.68550 (Kcal/Mol)
 Vibrational temperatures:  18805.81
          (Kelvin)

 Zero-point correction=                           0.029777 (Hartree/Particle)
 Thermal correction to Energy=                    0.032138
 Thermal correction to Enthalpy=                  0.033082
 Thermal correction to Gibbs Free Energy=         0.009987
 Sum of electronic and zero-point Energies=           -100.658189
 Sum of electronic and thermal Energies=              -100.655829
 Sum of electronic and thermal Enthalpies=            -100.654885
 Sum of electronic and thermal Free Energies=         -100.677980

                     E (Thermal)             CV                S
                      KCal/Mol        Cal/Mol-Kelvin    Cal/Mol-Kelvin
 Total                   20.167              4.968             48.608
 Electronic               0.000              0.000              1.377
 Translational            0.889              2.981             35.068
 Rotational               0.592              1.987             12.163
 Vibrational             18.685              0.000              0.000

 Normal termination of Gaussian 16 at Fri Aug 22 15:42:27 2025.
