 Gaussian 16, Revision C.01,
 Gaussian 16:  ES64L-G16RevC.01  3-Jul-2019

 -----------------------------------------
 # sp b3lyp/6-311g** Force nosymm scf=(qc)
 -----------------------------------------

 -------------------
 Title Card Required
 -------------------
 Symbolic Z-matrix:
 Charge =  0 Multiplicity = 2

                          Input orientation:
 ---------------------------------------------------------------------
 Center     Atomic      Atomic             Coordinates (Angstroms)
 Number     Number       Type             X           Y           Z
 ---------------------------------------------------------------------
      1          1           0        0.000000    0.000000    0.000000
      2          1           0       -2.300000    0.000000    0.000000
      3          9           0        0.900000    0.000000    0.000000
 ---------------------------------------------------------------------

 SCF Done:  E(UB3LYP) =  -100.971875941     a.u. after    5 cycles

 Alpha  occ. eigenvalues --  -24.63839  -1.18918  -0.53829  -0.39519  -0.39519
 Alpha  occ. eigenvalues --   -0.35209
 Alpha virt. eigenvalues --    0.05148   0.25035   0.39296   0.94459   0.94459
 Alpha virt. eigenvalues --    0.97521   1.16983   1.22332   1.22332   1.37410
 Alpha virt. eigenvalues --    1.37410   1.43930   1.99811   2.14607   2.37497

  Beta  occ. eigenvalues --  -24.63812  -1.18848  -0.53700  -0.39496  -0.39496
  Beta virt. eigenvalues --   -0.10325   0.06939   0.36445   0.39396   0.94463
  Beta virt. eigenvalues --    0.94463   0.97768   1.26665   1.37320   1.37320
  Beta virt. eigenvalues --    1.43284   1.43284   1.55120   2.00348   2.36989

 Mulliken charges and spin densities:
               1          2
     1  H    0.288289   0.004788
     2  H    0.008477   0.987371
     3  F   -0.296766   0.007841
 Sum of Mulliken charges =   0.00000   1.00000

 Dipole moment (field-independent basis, Debye):
    X=             -1.9864    Y=             -0.0000    Z=             -0.0000  Tot=              1.9864
 Quadrupole moment (field-independent basis, Debye-Ang):
   XX=             -7.6320   YY=             -6.8535   ZZ=             -6.8535
   XY=             -0.0000   XZ=             -0.0000   YZ=              0.0000

  Exact polarizability:       8.015       0.000       2.465      -0.000      -0.000       2.465
 Approx polarizability:       8.597       0.000       2.448      -0.000      -0.000       2.448

 ******    2 imaginary frequencies (negative Signs) ******

                      1                      2                      3
                      A                      A                      A
 Frequencies --   -628.3265              -628.3265                97.0990
 Red. masses --      1.0320                 1.0320                 1.0531
 Frc consts  --      0.2401                 0.2401                 0.0058
 IR Inten    --    160.9711               160.9711                 0.9358

                      4
                      A
 Frequencies --   4420.1855
 Red. masses --      1.0585
 Frc consts  --     12.1847
 IR Inten    --    142.8416

 - Thermochemistry -
 -------------------
 Temperature   298.150 Kelvin.  Pressure   1.00000 Atm.
 Atom     1 has atomic number  1 and mass   1.00783

 Molecular mass:    21.01405 amu.
 Principal axes and moments of inertia in atomic units:
                           1         2         3
     Eigenvalues --     0.00000  36.86752  36.86752
           X            1.00000  -0.00000   0.00000
           Y            0.00000   1.00000   0.00000
           Z            0.00000   0.00000   1.00000
 This molecule is a prolate symmetric top.
 Rotational symmetry number  1.
 Rotational temperature (Kelvin)      2.34933
 Rotational constant (GHZ):          48.952061
    2 imaginary frequencies ignored.
 Zero-point vibrational energy      27019.4 (Joules/Mol)
                                    6.45778 (Kcal/Mol)
 Warning -- explicit consideration of   1 degrees of freedom as
           vibrations may cause significant error
 Vibrational temperatures:    139.70  6359.66
          (Kelvin)

 Zero-point correction=                           0.010291 (Hartree/Particle)
 Thermal correction to Energy=                    0.013392
 Thermal correction to Enthalpy=                  0.014336
 Thermal correction to Gibbs Free Energy=        -0.010166
 Sum of electronic and zero-point Energies=           -100.961585
 Sum of electronic and thermal Energies=              -100.958484
 Sum of electronic and thermal Enthalpies=            -100.957540
 Sum of electronic and thermal Free Energies=         -100.982042

                     E (Thermal)             CV                S
                      KCal/Mol        Cal/Mol-Kelvin    Cal/Mol-Kelvin
 Total                    8.403              6.919             51.569
 Electronic               0.000              0.000              1.377
 Translational            0.889              2.981             35.068
 Rotational               0.592              1.987             11.612
 Vibrational              6.922              1.951              3.512
 Vibration     1          0.603              1.951              3.512

 Normal termination of Gaussian 16 at Fri Aug 22 15:56:01 2025.
