 Gaussian 16, Revision C.01,
 Gaussian 16:  ES64L-G16RevC.01  3-Jul-2019

 -----------------------------------------
 # sp b3lyp/6-311g** Force nosymm scf=(qc)
 -----------------------------------------

 -------------------
 Title Card Required
 -------------------
 Symbolic Z-matrix:
 Charge =  0 Multiplicity = 2

                          Input orientation:
 ---------------------------------------------------------------------
 Center     Atomic      Atomic             Coordinates (Angstroms)
 Number     Number       Type             X           Y           Z
 ---------------------------------------------------------------------
      1          1           0        0.000000    0.000000    0.000000
      2          1           0       -2.750000    0.000000    0.000000
      3          9           0        1.600000    0.000000    0.000000
 ---------------------------------------------------------------------

 SCF Done:  E(UB3LYP) =  -100.835138910     a.u. after   10 cycles

 Alpha  occ. eigenvalues --  -24.64759  -1.10481  -0.43398  -0.36709  -0.36709
 Alpha  occ. eigenvalues --   -0.35127
 Alpha virt. eigenvalues --   -0.14841   0.22299   0.27774   0.94296   0.94296
 Alpha virt. eigenvalues --    1.00723   1.07595   1.22411   1.22411   1.23736
 Alpha virt. eigenvalues --    1.32374   1.32374   1.74909   2.13403   2.21663

  Beta  occ. eigenvalues --  -24.63864  -1.08078  -0.41211  -0.35851  -0.35851
  Beta virt. eigenvalues --   -0.17383  -0.08499   0.23665   0.36038   0.93994
  Beta virt. eigenvalues --    0.93994   1.01893   1.07878   1.27799   1.27799
  Beta virt. eigenvalues --    1.43185   1.43185   1.43340   1.73048   2.14919

 Mulliken charges and spin densities:
               1          2
     1  H    0.317560  -0.267791
     2  H    0.012394   0.985294
     3  F   -0.329954   0.282496
 Sum of Mulliken charges =  -0.00000   1.00000

 Dipole moment (field-independent basis, Debye):
    X=             -2.7409    Y=             -0.0000    Z=             -0.0000  Tot=              2.7409
 Quadrupole moment (field-independent basis, Debye-Ang):
   XX=             -9.7227   YY=             -7.3785   ZZ=             -7.3785
   XY=             -0.0000   XZ=             -0.0000   YZ=             -0.0000

  Exact polarizability:      24.929      -0.000       2.155       0.000       0.000       2.155
 Approx polarizability:      38.216       0.000       2.069       0.000       0.000       2.069

 ******    2 imaginary frequencies (negative Signs) ******

                      1                      2                      3
                      A                      A                      A
 Frequencies --  -1886.2989              -238.3643               892.8879
 Red. masses --      1.0543                 1.0572                 1.0256
 Frc consts  --      2.2103                 0.0354                 0.4818
 IR Inten    --     32.0360                 4.2336                89.5634

                      4
                      A
 Frequencies --    892.8879
 Red. masses --      1.0256
 Frc consts  --      0.4818
 IR Inten    --     89.5634

 - Thermochemistry -
 -------------------
 Temperature   298.150 Kelvin.  Pressure   1.00000 Atm.
 Atom     1 has atomic number  1 and mass   1.00783

 Molecular mass:    21.01405 amu.
 Principal axes and moments of inertia in atomic units:
                           1         2         3
     Eigenvalues --     0.00000  71.20498  71.20498
           X            1.00000  -0.00000   0.00000
           Y            0.00000   1.00000   0.00000
           Z            0.00000   0.00000   1.00000
 This molecule is a prolate symmetric top.
 Rotational symmetry number  1.
 Rotational temperature (Kelvin)      1.21640
 Rotational constant (GHZ):          25.345714
    2 imaginary frequencies ignored.
 Zero-point vibrational energy      10681.3 (Joules/Mol)
                                    2.55289 (Kcal/Mol)
 Vibrational temperatures:   1284.67  1284.67
          (Kelvin)

 Zero-point correction=                           0.004068 (Hartree/Particle)
 Thermal correction to Energy=                    0.006540
 Thermal correction to Enthalpy=                  0.007484
 Thermal correction to Gibbs Free Energy=        -0.016108
 Sum of electronic and zero-point Energies=           -100.831071
 Sum of electronic and thermal Energies=              -100.828599
 Sum of electronic and thermal Enthalpies=            -100.827655
 Sum of electronic and thermal Free Energies=         -100.851247

                     E (Thermal)             CV                S
                      KCal/Mol        Cal/Mol-Kelvin    Cal/Mol-Kelvin
 Total                    4.104              5.988             49.653
 Electronic               0.000              0.000              1.377
 Translational            0.889              2.981             35.068
 Rotational               0.592              1.987             12.920
 Vibrational              2.623              1.020              0.287

 Normal termination of Gaussian 16 at Fri Aug 22 16:31:51 2025.
