 Gaussian 16, Revision C.01,
 Gaussian 16:  ES64L-G16RevC.01  3-Jul-2019

 -----------------------------------------
 # sp b3lyp/6-311g** Force nosymm scf=(qc)
 -----------------------------------------

 -------------------
 Title Card Required
 -------------------
 Symbolic Z-matrix:
 Charge =  0 Multiplicity = 2

                          Input orientation:
 ---------------------------------------------------------------------
 Center     Atomic      Atomic             Coordinates (Angstroms)
 Number     Number       Type             X           Y           Z
 ---------------------------------------------------------------------
      1          1           0        0.000000    0.000000    0.000000
      2          1           0       -1.500000    0.000000    0.000000
      3          9           0        1.400000    0.000000    0.000000
 ---------------------------------------------------------------------

 SCF Done:  E(UB3LYP) =  -100.893582597     a.u. after   10 cycles

 Alpha  occ. eigenvalues --  -24.64168  -1.11164  -0.47700  -0.38217  -0.36763
 Alpha  occ. eigenvalues --   -0.36763
 Alpha virt. eigenvalues --   -0.04776   0.20714   0.28824   0.93391   0.93391
 Alpha virt. eigenvalues --    1.00078   1.03200   1.14948   1.14948   1.40577
 Alpha virt. eigenvalues --    1.40577   1.51304   1.84450   2.18776   2.41258

  Beta  occ. eigenvalues --  -24.63091  -1.08330  -0.42903  -0.35745  -0.35745
  Beta virt. eigenvalues --   -0.20971  -0.01190   0.24283   0.30714   0.93473
  Beta virt. eigenvalues --    0.93473   1.04788   1.06551   1.22846   1.22846
  Beta virt. eigenvalues --    1.43090   1.43090   1.55626   1.89474   2.24219

 Mulliken charges and spin densities:
               1          2
     1  H    0.273422  -0.143082
     2  H    0.068514   0.812726
     3  F   -0.341935   0.330357
 Sum of Mulliken charges =  -0.00000   1.00000

 Dipole moment (field-independent basis, Debye):
    X=             -2.8886    Y=              0.0000    Z=             -0.0000  Tot=              2.8886
 Quadrupole moment (field-independent basis, Debye-Ang):
   XX=             -8.1799   YY=             -7.1513   ZZ=             -7.1513
   XY=              0.0000   XZ=             -0.0000   YZ=              0.0000

  Exact polarizability:      29.688       0.000       2.347      -0.000       0.000       2.347
 Approx polarizability:      41.459       0.000       2.299      -0.000       0.000       2.299

 ******    2 imaginary frequencies (negative Signs) ******

                      1                      2                      3
                      A                      A                      A
 Frequencies --  -2476.0613              -248.1288              1087.6512
 Red. masses --      1.0238                 1.0898                 1.0188
 Frc consts  --      3.6983                 0.0395                 0.7101
 IR Inten    --     65.6330                14.1734                40.8827

                      4
                      A
 Frequencies --   1087.6512
 Red. masses --      1.0188
 Frc consts  --      0.7101
 IR Inten    --     40.8827

 - Thermochemistry -
 -------------------
 Temperature   298.150 Kelvin.  Pressure   1.00000 Atm.
 Atom     1 has atomic number  1 and mass   1.00783

 Molecular mass:    21.01405 amu.
 Principal axes and moments of inertia in atomic units:
                           1         2         3
     Eigenvalues --     0.00000  34.13022  34.13022
           X            1.00000  -0.00000   0.00000
           Y            0.00000   1.00000   0.00000
           Z            0.00000   0.00000   1.00000
 This molecule is a prolate symmetric top.
 Rotational symmetry number  1.
 Rotational temperature (Kelvin)      2.53775
 Rotational constant (GHZ):          52.878106
    2 imaginary frequencies ignored.
 Zero-point vibrational energy      13011.2 (Joules/Mol)
                                    3.10975 (Kcal/Mol)
 Vibrational temperatures:   1564.89  1564.89
          (Kelvin)

 Zero-point correction=                           0.004956 (Hartree/Particle)
 Thermal correction to Energy=                    0.007369
 Thermal correction to Enthalpy=                  0.008313
 Thermal correction to Gibbs Free Energy=        -0.014510
 Sum of electronic and zero-point Energies=           -100.888627
 Sum of electronic and thermal Energies=              -100.886214
 Sum of electronic and thermal Enthalpies=            -100.885270
 Sum of electronic and thermal Free Energies=         -100.908093

                     E (Thermal)             CV                S
                      KCal/Mol        Cal/Mol-Kelvin    Cal/Mol-Kelvin
 Total                    4.624              5.549             48.035
 Electronic               0.000              0.000              1.377
 Translational            0.889              2.981             35.068
 Rotational               0.592              1.987             11.459
 Vibrational              3.143              0.581              0.131

 Normal termination of Gaussian 16 at Fri Aug 22 16:19:47 2025.
