 Gaussian 16, Revision C.01,
 Gaussian 16:  ES64L-G16RevC.01  3-Jul-2019

 -----------------------------------------
 # sp b3lyp/6-311g** Force nosymm scf=(qc)
 -----------------------------------------

 -------------------
 Title Card Required
 -------------------
 Symbolic Z-matrix:
 Charge =  0 Multiplicity = 2

                          Input orientation:
 ---------------------------------------------------------------------
 Center     Atomic      Atomic             Coordinates (Angstroms)
 Number     Number       Type             X           Y           Z
 ---------------------------------------------------------------------
      1          1           0        0.000000    0.000000    0.000000
      2          1           0       -3.750000    0.000000    0.000000
      3          9           0        0.800000    0.000000    0.000000
 ---------------------------------------------------------------------

 SCF Done:  E(UB3LYP) =  -100.950288514     a.u. after    6 cycles

 Alpha  occ. eigenvalues --  -24.63680  -1.23045  -0.56192  -0.40654  -0.40654
 Alpha  occ. eigenvalues --   -0.33354
 Alpha virt. eigenvalues --    0.05068   0.24367   0.45950   0.94200   0.94200
 Alpha virt. eigenvalues --    0.96998   1.24026   1.24154   1.24154   1.29465
 Alpha virt. eigenvalues --    1.39811   1.39811   2.02237   2.14421   2.53062

  Beta  occ. eigenvalues --  -24.63679  -1.23044  -0.56191  -0.40654  -0.40654
  Beta virt. eigenvalues --   -0.05072   0.05354   0.39105   0.45979   0.94200
  Beta virt. eigenvalues --    0.94200   0.96993   1.29278   1.39811   1.39811
  Beta virt. eigenvalues --    1.50690   1.50900   1.50900   2.02371   2.44664

 Mulliken charges and spin densities:
               1          2
     1  H    0.274941   0.000400
     2  H    0.000496   0.999423
     3  F   -0.275437   0.000177
 Sum of Mulliken charges =   0.00000   1.00000

 Dipole moment (field-independent basis, Debye):
    X=             -1.7379    Y=              0.0000    Z=             -0.0000  Tot=              1.7379
 Quadrupole moment (field-independent basis, Debye-Ang):
   XX=             -7.6229   YY=             -6.7692   ZZ=             -6.7692
   XY=              0.0000   XZ=              0.0000   YZ=             -0.0000

  Exact polarizability:       4.508      -0.000       2.440       0.000       0.000       2.440
 Approx polarizability:       5.093      -0.000       2.420       0.000       0.000       2.420

 ******    3 imaginary frequencies (negative Signs) ******

                      1                      2                      3
                      A                      A                      A
 Frequencies --  -1983.6530             -1983.6530               -36.3189
 Red. masses --      1.0411                 1.0411                 1.0532
 Frc consts  --      2.4137                 2.4137                 0.0008
 IR Inten    --    197.4696               197.4696                 0.0164

                      4
                      A
 Frequencies --   6349.8919
 Red. masses --      1.0583
 Frc consts  --     25.1418
 IR Inten    --    104.2041

 - Thermochemistry -
 -------------------
 Temperature   298.150 Kelvin.  Pressure   1.00000 Atm.
 Atom     1 has atomic number  1 and mass   1.00783

 Molecular mass:    21.01405 amu.
 Principal axes and moments of inertia in atomic units:
                           1         2         3
     Eigenvalues --     0.00000  71.87140  71.87140
           X            1.00000  -0.00000   0.00000
           Y            0.00000   1.00000   0.00000
           Z            0.00000   0.00000   1.00000
 This molecule is a prolate symmetric top.
 Rotational symmetry number  1.
 Rotational temperature (Kelvin)      1.20512
 Rotational constant (GHZ):          25.110701
    3 imaginary frequencies ignored.
 Zero-point vibrational energy      37980.8 (Joules/Mol)
                                    9.07763 (Kcal/Mol)
 Vibrational temperatures:   9136.08
          (Kelvin)

 Zero-point correction=                           0.014466 (Hartree/Particle)
 Thermal correction to Energy=                    0.016827
 Thermal correction to Enthalpy=                  0.017771
 Thermal correction to Gibbs Free Energy=        -0.005693
 Sum of electronic and zero-point Energies=           -100.935822
 Sum of electronic and thermal Energies=              -100.933462
 Sum of electronic and thermal Enthalpies=            -100.932518
 Sum of electronic and thermal Free Energies=         -100.955982

                     E (Thermal)             CV                S
                      KCal/Mol        Cal/Mol-Kelvin    Cal/Mol-Kelvin
 Total                   10.559              4.968             49.384
 Electronic               0.000              0.000              1.377
 Translational            0.889              2.981             35.068
 Rotational               0.592              1.987             12.939
 Vibrational              9.078              0.000              0.000

 Normal termination of Gaussian 16 at Fri Aug 22 15:52:14 2025.
