 Gaussian 16, Revision C.01,
 Gaussian 16:  ES64L-G16RevC.01  3-Jul-2019

 -----------------------------------------
 # sp b3lyp/6-311g** Force nosymm scf=(qc)
 -----------------------------------------

 -------------------
 Title Card Required
 -------------------
 Symbolic Z-matrix:
 Charge =  0 Multiplicity = 2

                          Input orientation:
 ---------------------------------------------------------------------
 Center     Atomic      Atomic             Coordinates (Angstroms)
 Number     Number       Type             X           Y           Z
 ---------------------------------------------------------------------
      1          1           0        0.000000    0.000000    0.000000
      2          1           0       -0.950000    0.000000    0.000000
      3          9           0        1.150000    0.000000    0.000000
 ---------------------------------------------------------------------

 SCF Done:  E(UB3LYP) =  -100.950808138     a.u. after    6 cycles

 Alpha  occ. eigenvalues --  -24.65950  -1.15784  -0.56868  -0.39487  -0.39487
 Alpha  occ. eigenvalues --   -0.37647
 Alpha virt. eigenvalues --    0.09911   0.18969   0.40204   0.89226   0.89226
 Alpha virt. eigenvalues --    0.97890   1.07996   1.07996   1.38747   1.62944
 Alpha virt. eigenvalues --    1.65125   1.65125   2.24477   2.27573   2.75294

  Beta  occ. eigenvalues --  -24.64484  -1.12029  -0.49680  -0.38135  -0.38135
  Beta virt. eigenvalues --   -0.20567   0.12168   0.20934   0.44829   0.90657
  Beta virt. eigenvalues --    0.90657   1.01061   1.12751   1.12751   1.42531
  Beta virt. eigenvalues --    1.68460   1.68752   1.68752   2.23291   2.38941

 Mulliken charges and spin densities:
               1          2
     1  H    0.265363  -0.048135
     2  H    0.025047   0.637447
     3  F   -0.290410   0.410688
 Sum of Mulliken charges =   0.00000   1.00000

 Dipole moment (field-independent basis, Debye):
    X=             -2.0004    Y=             -0.0000    Z=             -0.0000  Tot=              2.0004
 Quadrupole moment (field-independent basis, Debye-Ang):
   XX=             -7.6068   YY=             -6.7596   ZZ=             -6.7596
   XY=             -0.0000   XZ=             -0.0000   YZ=              0.0000

  Exact polarizability:      18.902      -0.000       2.530      -0.000       0.000       2.530
 Approx polarizability:      24.735      -0.000       2.545      -0.000       0.000       2.545

 ******    1 imaginary frequencies (negative Signs) ******

                      1                      2                      3
                      A                      A                      A
 Frequencies --  -1553.2306               691.8005               691.8005
 Red. masses --      1.0400                 1.0158                 1.0158
 Frc consts  --      1.4783                 0.2864                 0.2864
 IR Inten    --    186.9889                28.2605                28.2605

                      4
                      A
 Frequencies --   1513.7688
 Red. masses --      1.0720
 Frc consts  --      1.4473
 IR Inten    --    110.8362

 - Thermochemistry -
 -------------------
 Temperature   298.150 Kelvin.  Pressure   1.00000 Atm.
 Atom     1 has atomic number  1 and mass   1.00783

 Molecular mass:    21.01405 amu.
 Principal axes and moments of inertia in atomic units:
                           1         2         3
     Eigenvalues --     0.00000  18.80816  18.80816
           X            1.00000  -0.00000   0.00000
           Y            0.00000   1.00000   0.00000
           Z            0.00000   0.00000   1.00000
 This molecule is a prolate symmetric top.
 Rotational symmetry number  1.
 Rotational temperature (Kelvin)      4.60513
 Rotational constant (GHZ):          95.955245
    1 imaginary frequencies ignored.
 Zero-point vibrational energy      17330.1 (Joules/Mol)
                                    4.14200 (Kcal/Mol)
 Vibrational temperatures:    995.35   995.35  2177.98
          (Kelvin)

 Zero-point correction=                           0.006601 (Hartree/Particle)
 Thermal correction to Energy=                    0.009198
 Thermal correction to Enthalpy=                  0.010142
 Thermal correction to Gibbs Free Energy=        -0.012362
 Sum of electronic and zero-point Energies=           -100.944207
 Sum of electronic and thermal Energies=              -100.941610
 Sum of electronic and thermal Enthalpies=            -100.940666
 Sum of electronic and thermal Free Energies=         -100.963170

                     E (Thermal)             CV                S
                      KCal/Mol        Cal/Mol-Kelvin    Cal/Mol-Kelvin
 Total                    5.772              6.729             47.363
 Electronic               0.000              0.000              1.377
 Translational            0.889              2.981             35.068
 Rotational               0.592              1.987             10.275
 Vibrational              4.290              1.761              0.643

 Normal termination of Gaussian 16 at Fri Aug 22 16:06:59 2025.
