 Gaussian 16, Revision C.01,
 Gaussian 16:  ES64L-G16RevC.01  3-Jul-2019

 -----------------------------------------
 # sp b3lyp/6-311g** Force nosymm scf=(qc)
 -----------------------------------------

 -------------------
 Title Card Required
 -------------------
 Symbolic Z-matrix:
 Charge =  0 Multiplicity = 2

                          Input orientation:
 ---------------------------------------------------------------------
 Center     Atomic      Atomic             Coordinates (Angstroms)
 Number     Number       Type             X           Y           Z
 ---------------------------------------------------------------------
      1          1           0        0.000000    0.000000    0.000000
      2          1           0       -3.150000    0.000000    0.000000
      3          9           0        2.300000    0.000000    0.000000
 ---------------------------------------------------------------------

 SCF Done:  E(UB3LYP) =  -100.773340112     a.u. after   14 cycles

 Alpha  occ. eigenvalues --  -24.70471  -1.16751  -0.49548  -0.41648  -0.41648
 Alpha  occ. eigenvalues --   -0.33329
 Alpha virt. eigenvalues --   -0.11714   0.23486   0.33998   0.88944   0.94228
 Alpha virt. eigenvalues --    0.94228   1.06357   1.24201   1.24201   1.24750
 Alpha virt. eigenvalues --    1.38525   1.38525   1.48449   2.14678   2.33464

  Beta  occ. eigenvalues --  -24.67759  -1.09072  -0.38953  -0.38953  -0.36251
  Beta virt. eigenvalues --   -0.22481  -0.07596   0.24096   0.37197   0.93245
  Beta virt. eigenvalues --    0.95445   0.95445   1.08467   1.21640   1.21640
  Beta virt. eigenvalues --    1.36976   1.44987   1.44987   1.45008   2.12677

 Mulliken charges and spin densities:
               1          2
     1  H    0.120865  -0.849964
     2  H    0.002767   0.994772
     3  F   -0.123632   0.855192
 Sum of Mulliken charges =  -0.00000   1.00000

 Dipole moment (field-independent basis, Debye):
    X=             -1.4751    Y=              0.0000    Z=              0.0000  Tot=              1.4751
 Quadrupole moment (field-independent basis, Debye-Ang):
   XX=             -9.5418   YY=             -7.5516   ZZ=             -7.5516
   XY=              0.0000   XZ=              0.0000   YZ=             -0.0000

  Exact polarizability:      31.217       0.000       2.031       0.000      -0.000       2.031
 Approx polarizability:      40.309       0.000       1.923       0.000       0.000       1.923

 ******    2 imaginary frequencies (negative Signs) ******

                      1                      2                      3
                      A                      A                      A
 Frequencies --   -782.9784              -182.4014               319.3722
 Red. masses --      1.0522                 1.0594                 1.0222
 Frc consts  --      0.3801                 0.0208                 0.0614
 IR Inten    --     94.9446                 1.2648                13.5290

                      4
                      A
 Frequencies --    319.3722
 Red. masses --      1.0222
 Frc consts  --      0.0614
 IR Inten    --     13.5290

 - Thermochemistry -
 -------------------
 Temperature   298.150 Kelvin.  Pressure   1.00000 Atm.
 Atom     1 has atomic number  1 and mass   1.00783

 Molecular mass:    21.01405 amu.
 Principal axes and moments of inertia in atomic units:
                           1         2         3
     Eigenvalues --     0.00000 115.57110 115.57110
           X            1.00000  -0.00000   0.00000
           Y            0.00000   1.00000   0.00000
           Z            0.00000   0.00000   1.00000
 This molecule is a prolate symmetric top.
 Rotational symmetry number  1.
 Rotational temperature (Kelvin)      0.74944
 Rotational constant (GHZ):          15.615852
    2 imaginary frequencies ignored.
 Zero-point vibrational energy       3820.5 (Joules/Mol)
                                    0.91313 (Kcal/Mol)
 Warning -- explicit consideration of   2 degrees of freedom as
           vibrations may cause significant error
 Vibrational temperatures:    459.51   459.51
          (Kelvin)

 Zero-point correction=                           0.001455 (Hartree/Particle)
 Thermal correction to Energy=                    0.004609
 Thermal correction to Enthalpy=                  0.005553
 Thermal correction to Gibbs Free Energy=        -0.019608
 Sum of electronic and zero-point Energies=           -100.771885
 Sum of electronic and thermal Energies=              -100.768732
 Sum of electronic and thermal Enthalpies=            -100.767787
 Sum of electronic and thermal Free Energies=         -100.792948

                     E (Thermal)             CV                S
                      KCal/Mol        Cal/Mol-Kelvin    Cal/Mol-Kelvin
 Total                    2.892              8.241             52.955
 Electronic               0.000              0.000              1.377
 Translational            0.889              2.981             35.068
 Rotational               0.592              1.987             13.883
 Vibrational              1.411              3.273              2.627
 Vibration     1          0.705              1.637              1.313
 Vibration     2          0.705              1.637              1.313

 Normal termination of Gaussian 16 at Fri Aug 22 17:22:56 2025.
