 Gaussian 16, Revision C.01,
 Gaussian 16:  ES64L-G16RevC.01  3-Jul-2019

 -----------------------------------------
 # sp b3lyp/6-311g** Force nosymm scf=(qc)
 -----------------------------------------

 -------------------
 Title Card Required
 -------------------
 Symbolic Z-matrix:
 Charge =  0 Multiplicity = 2

                          Input orientation:
 ---------------------------------------------------------------------
 Center     Atomic      Atomic             Coordinates (Angstroms)
 Number     Number       Type             X           Y           Z
 ---------------------------------------------------------------------
      1          1           0        0.000000    0.000000    0.000000
      2          1           0       -3.100000    0.000000    0.000000
      3          9           0        0.500000    0.000000    0.000000
 ---------------------------------------------------------------------

 SCF Done:  E(UB3LYP) =  -100.269019714     a.u. after    6 cycles

 Alpha  occ. eigenvalues --  -24.63026  -1.42343  -0.63504  -0.44327  -0.44327
 Alpha  occ. eigenvalues --   -0.33537
 Alpha virt. eigenvalues --    0.08288   0.25529   0.62353   0.89003   0.90161
 Alpha virt. eigenvalues --    0.90161   1.23026   1.23983   1.23983   1.39759
 Alpha virt. eigenvalues --    1.58524   1.58524   2.00341   2.15350   3.76639

  Beta  occ. eigenvalues --  -24.63025  -1.42340  -0.63503  -0.44327  -0.44327
  Beta virt. eigenvalues --   -0.05645   0.09129   0.39370   0.62377   0.89007
  Beta virt. eigenvalues --    0.90156   0.90156   1.36421   1.50158   1.50158
  Beta virt. eigenvalues --    1.52508   1.58527   1.58527   2.00158   2.45339

 Mulliken charges and spin densities:
               1          2
     1  H    0.124450   0.000889
     2  H    0.001602   0.998116
     3  F   -0.126052   0.000994
 Sum of Mulliken charges =   0.00000   1.00000

 Dipole moment (field-independent basis, Debye):
    X=             -1.3133    Y=              0.0000    Z=             -0.0000  Tot=              1.3133
 Quadrupole moment (field-independent basis, Debye-Ang):
   XX=             -6.5991   YY=             -6.4384   ZZ=             -6.4384
   XY=              0.0000   XZ=             -0.0000   YZ=              0.0000

  Exact polarizability:       3.430      -0.000       2.419      -0.000      -0.000       2.419
 Approx polarizability:       3.536      -0.000       2.397       0.000      -0.000       2.397

 ******    2 imaginary frequencies (negative Signs) ******

                      1                      2                      3
                      A                      A                      A
 Frequencies --  -9580.7762             -9580.7762                13.8028
 Red. masses --      1.0446                 1.0446                 1.0532
 Frc consts  --     56.4928                56.4928                 0.0001
 IR Inten    --    279.2985               279.2985                 0.0589

                      4
                      A
 Frequencies --  19159.2579
 Red. masses --      1.0583
 Frc consts  --    228.8868
 IR Inten    --     79.0633

 - Thermochemistry -
 -------------------
 Temperature   298.150 Kelvin.  Pressure   1.00000 Atm.
 Atom     1 has atomic number  1 and mass   1.00783

 Molecular mass:    21.01405 amu.
 Principal axes and moments of inertia in atomic units:
                           1         2         3
     Eigenvalues --     0.00000  44.64138  44.64138
           X            1.00000  -0.00000   0.00000
           Y            0.00000   1.00000   0.00000
           Z            0.00000   0.00000   1.00000
 This molecule is a prolate symmetric top.
 Rotational symmetry number  1.
 Rotational temperature (Kelvin)      1.94022
 Rotational constant (GHZ):          40.427540
    2 imaginary frequencies ignored.
 Zero-point vibrational energy     114680.4 (Joules/Mol)
                                   27.40927 (Kcal/Mol)
 Warning -- explicit consideration of   1 degrees of freedom as
           vibrations may cause significant error
 Vibrational temperatures:     19.86 27565.90
          (Kelvin)

 Zero-point correction=                           0.043679 (Hartree/Particle)
 Thermal correction to Energy=                    0.046953
 Thermal correction to Enthalpy=                  0.047897
 Thermal correction to Gibbs Free Energy=         0.021381
 Sum of electronic and zero-point Energies=           -100.225340
 Sum of electronic and thermal Energies=              -100.222067
 Sum of electronic and thermal Enthalpies=            -100.221123
 Sum of electronic and thermal Free Energies=         -100.247639

                     E (Thermal)             CV                S
                      KCal/Mol        Cal/Mol-Kelvin    Cal/Mol-Kelvin
 Total                   29.463              6.954             55.809
 Electronic               0.000              0.000              1.377
 Translational            0.889              2.981             35.068
 Rotational               0.592              1.987             11.992
 Vibrational             27.982              1.986              7.371
 Vibration     1          0.593              1.986              7.371

 Normal termination of Gaussian 16 at Fri Aug 22 15:37:40 2025.
