 Gaussian 16, Revision C.01,
 Gaussian 16:  ES64L-G16RevC.01  3-Jul-2019

 -----------------------------------------
 # sp b3lyp/6-311g** Force nosymm scf=(qc)
 -----------------------------------------

 -------------------
 Title Card Required
 -------------------
 Symbolic Z-matrix:
 Charge =  0 Multiplicity = 2

                          Input orientation:
 ---------------------------------------------------------------------
 Center     Atomic      Atomic             Coordinates (Angstroms)
 Number     Number       Type             X           Y           Z
 ---------------------------------------------------------------------
      1          1           0        0.000000    0.000000    0.000000
      2          1           0       -1.200000    0.000000    0.000000
      3          9           0        0.800000    0.000000    0.000000
 ---------------------------------------------------------------------

 SCF Done:  E(UB3LYP) =  -100.936793077     a.u. after    5 cycles

 Alpha  occ. eigenvalues --  -24.63951  -1.23861  -0.59045  -0.41009  -0.41009
 Alpha  occ. eigenvalues --   -0.36061
 Alpha virt. eigenvalues --    0.14430   0.19816   0.51961   0.92320   0.92320
 Alpha virt. eigenvalues --    0.95776   1.10638   1.10638   1.41748   1.54415
 Alpha virt. eigenvalues --    1.54415   1.63772   2.05413   2.27745   3.15985

  Beta  occ. eigenvalues --  -24.63598  -1.22913  -0.56733  -0.40712  -0.40712
  Beta virt. eigenvalues --   -0.14838   0.15664   0.25544   0.57243   0.93132
  Beta virt. eigenvalues --    0.93132   0.96493   1.19340   1.19340   1.44367
  Beta virt. eigenvalues --    1.60242   1.60242   1.73491   2.06446   2.45402

 Mulliken charges and spin densities:
               1          2
     1  H    0.259133   0.004768
     2  H    0.010969   0.923060
     3  F   -0.270102   0.072172
 Sum of Mulliken charges =   0.00000   1.00000

 Dipole moment (field-independent basis, Debye):
    X=             -1.7274    Y=             -0.0000    Z=             -0.0000  Tot=              1.7274
 Quadrupole moment (field-independent basis, Debye-Ang):
   XX=             -7.3968   YY=             -6.6072   ZZ=             -6.6072
   XY=              0.0000   XZ=             -0.0000   YZ=              0.0000

  Exact polarizability:       9.493       0.000       2.576      -0.000       0.000       2.576
 Approx polarizability:       9.645       0.000       2.603       0.000       0.000       2.603

 ******    2 imaginary frequencies (negative Signs) ******

                      1                      2                      3
                      A                      A                      A
 Frequencies --  -2051.9575             -2051.9575              1241.8099
 Red. masses --      1.0235                 1.0235                 1.0536
 Frc consts  --      2.5391                 2.5391                 0.9572
 IR Inten    --    112.2968               112.2968                22.9302

                      4
                      A
 Frequencies --   6211.8525
 Red. masses --      1.0580
 Frc consts  --     24.0535
 IR Inten    --    128.9624

 - Thermochemistry -
 -------------------
 Temperature   298.150 Kelvin.  Pressure   1.00000 Atm.
 Atom     1 has atomic number  1 and mass   1.00783

 Molecular mass:    21.01405 amu.
 Principal axes and moments of inertia in atomic units:
                           1         2         3
     Eigenvalues --     0.00000  15.34616  15.34616
           X            1.00000  -0.00000   0.00000
           Y            0.00000   1.00000   0.00000
           Z            0.00000   0.00000   1.00000
 This molecule is a prolate symmetric top.
 Rotational symmetry number  1.
 Rotational temperature (Kelvin)      5.64401
 Rotational constant (GHZ):         117.602126
    2 imaginary frequencies ignored.
 Zero-point vibrational energy      44582.8 (Joules/Mol)
                                   10.65555 (Kcal/Mol)
 Vibrational temperatures:   1786.69  8937.47
          (Kelvin)

 Zero-point correction=                           0.016981 (Hartree/Particle)
 Thermal correction to Energy=                    0.019355
 Thermal correction to Enthalpy=                  0.020300
 Thermal correction to Gibbs Free Energy=        -0.001723
 Sum of electronic and zero-point Energies=           -100.919812
 Sum of electronic and thermal Energies=              -100.917438
 Sum of electronic and thermal Enthalpies=            -100.916494
 Sum of electronic and thermal Free Energies=         -100.938516

                     E (Thermal)             CV                S
                      KCal/Mol        Cal/Mol-Kelvin    Cal/Mol-Kelvin
 Total                   12.146              5.147             46.351
 Electronic               0.000              0.000              1.377
 Translational            0.889              2.981             35.068
 Rotational               0.592              1.987              9.870
 Vibrational             10.664              0.179              0.035

 Normal termination of Gaussian 16 at Fri Aug 22 15:50:32 2025.
