 Gaussian 16, Revision C.01,
 Gaussian 16:  ES64L-G16RevC.01  3-Jul-2019

 -----------------------------------------
 # sp b3lyp/6-311g** Force nosymm scf=(qc)
 -----------------------------------------

 -------------------
 Title Card Required
 -------------------
 Symbolic Z-matrix:
 Charge =  0 Multiplicity = 2

                          Input orientation:
 ---------------------------------------------------------------------
 Center     Atomic      Atomic             Coordinates (Angstroms)
 Number     Number       Type             X           Y           Z
 ---------------------------------------------------------------------
      1          1           0        0.000000    0.000000    0.000000
      2          1           0       -3.450000    0.000000    0.000000
      3          9           0        1.550000    0.000000    0.000000
 ---------------------------------------------------------------------

 SCF Done:  E(UB3LYP) =  -100.844012020     a.u. after    9 cycles

 Alpha  occ. eigenvalues --  -24.64406  -1.09653  -0.42802  -0.36382  -0.36382
 Alpha  occ. eigenvalues --   -0.34061
 Alpha virt. eigenvalues --   -0.15453   0.20316   0.27771   0.93831   0.93831
 Alpha virt. eigenvalues --    1.02559   1.07767   1.23451   1.23451   1.23515
 Alpha virt. eigenvalues --    1.30782   1.30782   1.73539   2.13383   2.18441

  Beta  occ. eigenvalues --  -24.64222  -1.09163  -0.42399  -0.36207  -0.36207
  Beta virt. eigenvalues --   -0.16037  -0.06857   0.22924   0.38035   0.93747
  Beta virt. eigenvalues --    0.93747   1.02893   1.07710   1.29794   1.29794
  Beta virt. eigenvalues --    1.45531   1.45994   1.45994   1.73099   2.16585

 Mulliken charges and spin densities:
               1          2
     1  H    0.342980  -0.055834
     2  H    0.002328   0.997518
     3  F   -0.345308   0.058317
 Sum of Mulliken charges =  -0.00000   1.00000

 Dipole moment (field-independent basis, Debye):
    X=             -2.6629    Y=             -0.0000    Z=              0.0000  Tot=              2.6629
 Quadrupole moment (field-independent basis, Debye-Ang):
   XX=            -10.0412   YY=             -7.3485   ZZ=             -7.3485
   XY=             -0.0000   XZ=              0.0000   YZ=             -0.0000

  Exact polarizability:      17.347       0.000       2.165      -0.000       0.000       2.165
 Approx polarizability:      32.906       0.000       2.086       0.000       0.000       2.086

 ******    2 imaginary frequencies (negative Signs) ******

                      1                      2                      3
                      A                      A                      A
 Frequencies --  -1429.9045               -93.2886               975.0039
 Red. masses --      1.0568                 1.0547                 1.0298
 Frc consts  --      1.2731                 0.0054                 0.5768
 IR Inten    --     10.6326                 0.2339               112.1969

                      4
                      A
 Frequencies --    975.0039
 Red. masses --      1.0298
 Frc consts  --      0.5768
 IR Inten    --    112.1969

 - Thermochemistry -
 -------------------
 Temperature   298.150 Kelvin.  Pressure   1.00000 Atm.
 Atom     1 has atomic number  1 and mass   1.00783

 Molecular mass:    21.01405 amu.
 Principal axes and moments of inertia in atomic units:
                           1         2         3
     Eigenvalues --     0.00000  91.21656  91.21656
           X            1.00000  -0.00000   0.00000
           Y            0.00000   1.00000   0.00000
           Z            0.00000   0.00000   1.00000
 This molecule is a prolate symmetric top.
 Rotational symmetry number  1.
 Rotational temperature (Kelvin)      0.94954
 Rotational constant (GHZ):          19.785236
    2 imaginary frequencies ignored.
 Zero-point vibrational energy      11663.6 (Joules/Mol)
                                    2.78768 (Kcal/Mol)
 Vibrational temperatures:   1402.81  1402.81
          (Kelvin)

 Zero-point correction=                           0.004442 (Hartree/Particle)
 Thermal correction to Energy=                    0.006884
 Thermal correction to Enthalpy=                  0.007828
 Thermal correction to Gibbs Free Energy=        -0.015959
 Sum of electronic and zero-point Energies=           -100.839570
 Sum of electronic and thermal Energies=              -100.837128
 Sum of electronic and thermal Enthalpies=            -100.836184
 Sum of electronic and thermal Free Energies=         -100.859971

                     E (Thermal)             CV                S
                      KCal/Mol        Cal/Mol-Kelvin    Cal/Mol-Kelvin
 Total                    4.320              5.779             50.065
 Electronic               0.000              0.000              1.377
 Translational            0.889              2.981             35.068
 Rotational               0.592              1.987             13.412
 Vibrational              2.839              0.811              0.207

 Normal termination of Gaussian 16 at Fri Aug 22 16:29:26 2025.
