 Gaussian 16, Revision C.01,
 Gaussian 16:  ES64L-G16RevC.01  3-Jul-2019

 -----------------------------------------
 # sp b3lyp/6-311g** Force nosymm scf=(qc)
 -----------------------------------------

 -------------------
 Title Card Required
 -------------------
 Symbolic Z-matrix:
 Charge =  0 Multiplicity = 2

                          Input orientation:
 ---------------------------------------------------------------------
 Center     Atomic      Atomic             Coordinates (Angstroms)
 Number     Number       Type             X           Y           Z
 ---------------------------------------------------------------------
      1          1           0        0.000000    0.000000    0.000000
      2          1           0       -2.600000    0.000000    0.000000
      3          9           0        3.850000    0.000000    0.000000
 ---------------------------------------------------------------------

 SCF Done:  E(UB3LYP) =  -100.761629997     a.u. after   37 cycles

 Alpha  occ. eigenvalues --  -24.75824  -1.21756  -0.54949  -0.46137  -0.46137
 Alpha  occ. eigenvalues --   -0.32499
 Alpha virt. eigenvalues --   -0.08902   0.25664   0.35068   0.86757   0.91202
 Alpha virt. eigenvalues --    0.91202   1.01184   1.25116   1.25116   1.26620
 Alpha virt. eigenvalues --    1.42368   1.42368   1.43395   2.16037   2.37495

  Beta  occ. eigenvalues --  -24.72683  -1.12725  -0.42988  -0.42988  -0.32674
  Beta virt. eigenvalues --   -0.25713  -0.08649   0.25491   0.35418   0.92700
  Beta virt. eigenvalues --    0.92700   0.96101   1.05299   1.24920   1.24920
  Beta virt. eigenvalues --    1.26398   1.42741   1.42741   1.43765   2.16175

 Mulliken charges and spin densities:
               1          2
     1  H    0.002760  -0.973096
     2  H    0.000898   0.977238
     3  F   -0.003658   0.995858
 Sum of Mulliken charges =   0.00000   1.00000

 Dipole moment (field-independent basis, Debye):
    X=             -0.0837    Y=             -0.0000    Z=              0.0000  Tot=              0.0837
 Quadrupole moment (field-independent basis, Debye-Ang):
   XX=             -6.8078   YY=             -7.6588   ZZ=             -7.6588
   XY=             -0.0000   XZ=              0.0000   YZ=             -0.0000

  Exact polarizability:      20.871      -0.000       2.022       0.000       0.000       2.022
 Approx polarizability:      15.586      -0.000       1.931       0.000       0.000       1.931

 ******    2 imaginary frequencies (negative Signs) ******

                      1                      2                      3
                      A                      A                      A
 Frequencies --   -574.1289               -88.0729               210.3034
 Red. masses --      1.0079                 1.1084                 1.0139
 Frc consts  --      0.1957                 0.0051                 0.0264
 IR Inten    --      1.2144                 1.3398                 0.0055

                      4
                      A
 Frequencies --    210.3034
 Red. masses --      1.0139
 Frc consts  --      0.0264
 IR Inten    --      0.0055

 - Thermochemistry -
 -------------------
 Temperature   298.150 Kelvin.  Pressure   1.00000 Atm.
 Atom     1 has atomic number  1 and mass   1.00783

 Molecular mass:    21.01405 amu.
 Principal axes and moments of inertia in atomic units:
                           1         2         3
     Eigenvalues --     0.00000 184.76219 184.76219
           X            1.00000  -0.00000   0.00000
           Y            0.00000   1.00000   0.00000
           Z            0.00000   0.00000   1.00000
 This molecule is a prolate symmetric top.
 Rotational symmetry number  1.
 Rotational temperature (Kelvin)      0.46879
 Rotational constant (GHZ):           9.767914
    2 imaginary frequencies ignored.
 Zero-point vibrational energy       2515.8 (Joules/Mol)
                                    0.60129 (Kcal/Mol)
 Warning -- explicit consideration of   2 degrees of freedom as
           vibrations may cause significant error
 Vibrational temperatures:    302.58   302.58
          (Kelvin)

 Zero-point correction=                           0.000958 (Hartree/Particle)
 Thermal correction to Energy=                    0.004408
 Thermal correction to Enthalpy=                  0.005352
 Thermal correction to Gibbs Free Energy=        -0.020943
 Sum of electronic and zero-point Energies=           -100.760672
 Sum of electronic and thermal Energies=              -100.757222
 Sum of electronic and thermal Enthalpies=            -100.756278
 Sum of electronic and thermal Free Energies=         -100.782573

                     E (Thermal)             CV                S
                      KCal/Mol        Cal/Mol-Kelvin    Cal/Mol-Kelvin
 Total                    2.766              8.618             55.343
 Electronic               0.000              0.000              1.377
 Translational            0.889              2.981             35.068
 Rotational               0.592              1.987             14.815
 Vibrational              1.285              3.650              4.082
 Vibration     1          0.642              1.825              2.041
 Vibration     2          0.642              1.825              2.041

 Normal termination of Gaussian 16 at Sat Aug 23 01:09:14 2025.
