 Gaussian 16, Revision C.01,
 Gaussian 16:  ES64L-G16RevC.01  3-Jul-2019

 -----------------------------------------
 # sp b3lyp/6-311g** Force nosymm scf=(qc)
 -----------------------------------------

 -------------------
 Title Card Required
 -------------------
 Symbolic Z-matrix:
 Charge =  0 Multiplicity = 2

                          Input orientation:
 ---------------------------------------------------------------------
 Center     Atomic      Atomic             Coordinates (Angstroms)
 Number     Number       Type             X           Y           Z
 ---------------------------------------------------------------------
      1          1           0        0.000000    0.000000    0.000000
      2          1           0       -2.400000    0.000000    0.000000
      3          9           0        0.700000    0.000000    0.000000
 ---------------------------------------------------------------------

 SCF Done:  E(UB3LYP) =  -100.874942417     a.u. after    6 cycles

 Alpha  occ. eigenvalues --  -24.63136  -1.28167  -0.58577  -0.41699  -0.41699
 Alpha  occ. eigenvalues --   -0.34627
 Alpha virt. eigenvalues --    0.08240   0.25405   0.52090   0.93543   0.93543
 Alpha virt. eigenvalues --    0.95728   1.16830   1.22924   1.22924   1.44121
 Alpha virt. eigenvalues --    1.44121   1.45803   1.97085   2.15051   2.86669

  Beta  occ. eigenvalues --  -24.63124  -1.28133  -0.58532  -0.41691  -0.41691
  Beta virt. eigenvalues --   -0.08749   0.09707   0.37765   0.51851   0.93539
  Beta virt. eigenvalues --    0.93539   0.95905   1.27894   1.44041   1.44041
  Beta virt. eigenvalues --    1.44991   1.44991   1.58276   1.97502   2.43170

 Mulliken charges and spin densities:
               1          2
     1  H    0.256004   0.004348
     2  H    0.005490   0.991946
     3  F   -0.261493   0.003706
 Sum of Mulliken charges =   0.00000   1.00000

 Dipole moment (field-independent basis, Debye):
    X=             -1.6468    Y=              0.0000    Z=             -0.0000  Tot=              1.6468
 Quadrupole moment (field-independent basis, Debye-Ang):
   XX=             -7.0941   YY=             -6.6531   ZZ=             -6.6531
   XY=             -0.0000   XZ=             -0.0000   YZ=             -0.0000

  Exact polarizability:       5.686       0.000       2.478      -0.000      -0.000       2.478
 Approx polarizability:       5.781       0.000       2.464      -0.000      -0.000       2.464

 ******    2 imaginary frequencies (negative Signs) ******

                      1                      2                      3
                      A                      A                      A
 Frequencies --  -3523.9363             -3523.9363               140.9378
 Red. masses --      1.0367                 1.0367                 1.0532
 Frc consts  --      7.5847                 7.5847                 0.0123
 IR Inten    --    196.6463               196.6463                 0.2570

                      4
                      A
 Frequencies --   9071.9563
 Red. masses --      1.0583
 Frc consts  --     51.3175
 IR Inten    --    124.6215

 - Thermochemistry -
 -------------------
 Temperature   298.150 Kelvin.  Pressure   1.00000 Atm.
 Atom     1 has atomic number  1 and mass   1.00783

 Molecular mass:    21.01405 amu.
 Principal axes and moments of inertia in atomic units:
                           1         2         3
     Eigenvalues --     0.00000  33.85754  33.85754
           X            1.00000  -0.00000   0.00000
           Y            0.00000   1.00000   0.00000
           Z            0.00000   0.00000   1.00000
 This molecule is a prolate symmetric top.
 Rotational symmetry number  1.
 Rotational temperature (Kelvin)      2.55819
 Rotational constant (GHZ):          53.303963
    2 imaginary frequencies ignored.
 Zero-point vibrational energy      55105.3 (Joules/Mol)
                                   13.17049 (Kcal/Mol)
 Warning -- explicit consideration of   1 degrees of freedom as
           vibrations may cause significant error
 Vibrational temperatures:    202.78 13052.52
          (Kelvin)

 Zero-point correction=                           0.020989 (Hartree/Particle)
 Thermal correction to Energy=                    0.024008
 Thermal correction to Enthalpy=                  0.024952
 Thermal correction to Gibbs Free Energy=         0.000873
 Sum of electronic and zero-point Energies=           -100.853954
 Sum of electronic and thermal Energies=              -100.850934
 Sum of electronic and thermal Enthalpies=            -100.849990
 Sum of electronic and thermal Free Energies=         -100.874069

                     E (Thermal)             CV                S
                      KCal/Mol        Cal/Mol-Kelvin    Cal/Mol-Kelvin
 Total                   15.065              6.880             50.679
 Electronic               0.000              0.000              1.377
 Translational            0.889              2.981             35.068
 Rotational               0.592              1.987             11.443
 Vibrational             13.584              1.912              2.791
 Vibration     1          0.615              1.912              2.791

 Normal termination of Gaussian 16 at Fri Aug 22 15:46:41 2025.
