 Gaussian 16, Revision C.01,
 Gaussian 16:  ES64L-G16RevC.01  3-Jul-2019

 -----------------------------------------
 # sp b3lyp/6-311g** Force nosymm scf=(qc)
 -----------------------------------------

 -------------------
 Title Card Required
 -------------------
 Symbolic Z-matrix:
 Charge =  0 Multiplicity = 2

                          Input orientation:
 ---------------------------------------------------------------------
 Center     Atomic      Atomic             Coordinates (Angstroms)
 Number     Number       Type             X           Y           Z
 ---------------------------------------------------------------------
      1          1           0        0.000000    0.000000    0.000000
      2          1           0       -3.050000    0.000000    0.000000
      3          9           0        3.150000    0.000000    0.000000
 ---------------------------------------------------------------------

 SCF Done:  E(UB3LYP) =  -100.760936029     a.u. after   23 cycles

 Alpha  occ. eigenvalues --  -24.74595  -1.20617  -0.53715  -0.45101  -0.45101
 Alpha  occ. eigenvalues --   -0.32595
 Alpha virt. eigenvalues --   -0.08546   0.24696   0.35449   0.88892   0.91967
 Alpha virt. eigenvalues --    0.91967   1.03122   1.24938   1.24938   1.25606
 Alpha virt. eigenvalues --    1.43165   1.43165   1.43366   2.15514   2.39466

  Beta  occ. eigenvalues --  -24.71533  -1.11833  -0.42035  -0.42035  -0.33424
  Beta virt. eigenvalues --   -0.25064  -0.07462   0.24574   0.36875   0.93440
  Beta virt. eigenvalues --    0.93440   0.97776   1.06996   1.23969   1.23969
  Beta virt. eigenvalues --    1.24633   1.44775   1.44870   1.44870   2.16013

 Mulliken charges and spin densities:
               1          2
     1  H    0.025726  -0.963937
     2  H    0.001114   0.993491
     3  F   -0.026840   0.970446
 Sum of Mulliken charges =  -0.00000   1.00000

 Dipole moment (field-independent basis, Debye):
    X=             -0.4507    Y=             -0.0000    Z=             -0.0000  Tot=              0.4507
 Quadrupole moment (field-independent basis, Debye-Ang):
   XX=             -7.9187   YY=             -7.6258   ZZ=             -7.6258
   XY=             -0.0000   XZ=             -0.0000   YZ=             -0.0000

  Exact polarizability:      33.130      -0.000       2.025      -0.000      -0.000       2.025
 Approx polarizability:      30.191      -0.000       1.927      -0.000       0.000       1.927

 ******    2 imaginary frequencies (negative Signs) ******

                      1                      2                      3
                      A                      A                      A
 Frequencies --   -393.5382              -166.7051               142.2043
 Red. masses --      1.0216                 1.0923                 1.0176
 Frc consts  --      0.0932                 0.0179                 0.0121
 IR Inten    --     24.7600                 5.3568                 0.5840

                      4
                      A
 Frequencies --    142.2043
 Red. masses --      1.0176
 Frc consts  --      0.0121
 IR Inten    --      0.5840

 - Thermochemistry -
 -------------------
 Temperature   298.150 Kelvin.  Pressure   1.00000 Atm.
 Atom     1 has atomic number  1 and mass   1.00783

 Molecular mass:    21.01405 amu.
 Principal axes and moments of inertia in atomic units:
                           1         2         3
     Eigenvalues --     0.00000 158.96732 158.96732
           X            1.00000  -0.00000   0.00000
           Y            0.00000   1.00000   0.00000
           Z            0.00000   0.00000   1.00000
 This molecule is a prolate symmetric top.
 Rotational symmetry number  1.
 Rotational temperature (Kelvin)      0.54485
 Rotational constant (GHZ):          11.352907
    2 imaginary frequencies ignored.
 Zero-point vibrational energy       1701.1 (Joules/Mol)
                                    0.40658 (Kcal/Mol)
 Warning -- explicit consideration of   2 degrees of freedom as
           vibrations may cause significant error
 Vibrational temperatures:    204.60   204.60
          (Kelvin)

 Zero-point correction=                           0.000648 (Hartree/Particle)
 Thermal correction to Energy=                    0.004322
 Thermal correction to Enthalpy=                  0.005267
 Thermal correction to Gibbs Free Energy=        -0.021583
 Sum of electronic and zero-point Energies=           -100.760288
 Sum of electronic and thermal Energies=              -100.756614
 Sum of electronic and thermal Enthalpies=            -100.755669
 Sum of electronic and thermal Free Energies=         -100.782519

                     E (Thermal)             CV                S
                      KCal/Mol        Cal/Mol-Kelvin    Cal/Mol-Kelvin
 Total                    2.712              8.790             56.510
 Electronic               0.000              0.000              1.377
 Translational            0.889              2.981             35.068
 Rotational               0.592              1.987             14.516
 Vibrational              1.231              3.822              5.548
 Vibration     1          0.616              1.911              2.774
 Vibration     2          0.616              1.911              2.774

 Normal termination of Gaussian 16 at Fri Aug 22 20:11:15 2025.
