 Gaussian 16, Revision C.01,
 Gaussian 16:  ES64L-G16RevC.01  3-Jul-2019

 -----------------------------------------
 # sp b3lyp/6-311g** Force nosymm scf=(qc)
 -----------------------------------------

 -------------------
 Title Card Required
 -------------------
 Symbolic Z-matrix:
 Charge =  0 Multiplicity = 2

                          Input orientation:
 ---------------------------------------------------------------------
 Center     Atomic      Atomic             Coordinates (Angstroms)
 Number     Number       Type             X           Y           Z
 ---------------------------------------------------------------------
      1          1           0        0.000000    0.000000    0.000000
      2          1           0       -0.700000    0.000000    0.000000
      3          9           0        3.400000    0.000000    0.000000
 ---------------------------------------------------------------------

 SCF Done:  E(UB3LYP) =  -100.932672118     a.u. after   37 cycles

 Alpha  occ. eigenvalues --  -24.76394  -1.22239  -0.55439  -0.46651  -0.46591
 Alpha  occ. eigenvalues --   -0.44170
 Alpha virt. eigenvalues --    0.06774   0.19513   0.48183   0.85983   0.90858
 Alpha virt. eigenvalues --    0.93230   1.02629   1.08967   1.08971   1.57688
 Alpha virt. eigenvalues --    1.85869   1.85873   1.90531   2.38015   3.56951

  Beta  occ. eigenvalues --  -24.73236  -1.13158  -0.44259  -0.43424  -0.43393
  Beta virt. eigenvalues --   -0.26073   0.06797   0.19527   0.48257   0.92357
  Beta virt. eigenvalues --    0.94813   0.95445   1.06583   1.08967   1.08971
  Beta virt. eigenvalues --    1.57698   1.85869   1.85873   1.90558   2.38017

 Mulliken charges and spin densities:
               1          2
     1  H   -0.002919  -0.000650
     2  H   -0.002232   0.000038
     3  F    0.005151   1.000612
 Sum of Mulliken charges =   0.00000   1.00000

 Dipole moment (field-independent basis, Debye):
    X=              0.0567    Y=              0.0000    Z=              0.0000  Tot=              0.0567
 Quadrupole moment (field-independent basis, Debye-Ang):
   XX=             -6.1481   YY=             -6.7695   ZZ=             -6.1372
   XY=             -0.0000   XZ=             -0.0000   YZ=              0.2944

  Exact polarizability:       7.718      -0.000       1.992      -0.000       0.158       2.332
 Approx polarizability:       8.686      -0.000       2.087      -0.000       0.198       2.512

 ******    2 imaginary frequencies (negative Signs) ******

                      1                      2                      3
                      A                      A                      A
 Frequencies --  -1174.0707             -1172.7281                28.4218
 Red. masses --      1.0087                 1.0087                 1.1085
 Frc consts  --      0.8192                 0.8173                 0.0005
 IR Inten    --      0.0043                 0.0034                 0.1570

                      4
                      A
 Frequencies --   5087.8362
 Red. masses --      1.0078
 Frc consts  --     15.3710
 IR Inten    --      0.0921

 - Thermochemistry -
 -------------------
 Temperature   298.150 Kelvin.  Pressure   1.00000 Atm.
 Atom     1 has atomic number  1 and mass   1.00783

 Molecular mass:    21.01405 amu.
 Principal axes and moments of inertia in atomic units:
                           1         2         3
     Eigenvalues --     0.00000  92.39473  92.39473
           X            1.00000  -0.00000   0.00000
           Y            0.00000   1.00000   0.00000
           Z            0.00000   0.00000   1.00000
 This molecule is a prolate symmetric top.
 Rotational symmetry number  1.
 Rotational temperature (Kelvin)      0.93743
 Rotational constant (GHZ):          19.532945
    2 imaginary frequencies ignored.
 Zero-point vibrational energy      30602.0 (Joules/Mol)
                                    7.31406 (Kcal/Mol)
 Warning -- explicit consideration of   1 degrees of freedom as
           vibrations may cause significant error
 Vibrational temperatures:     40.89  7320.26
          (Kelvin)

 Zero-point correction=                           0.011656 (Hartree/Particle)
 Thermal correction to Energy=                    0.014897
 Thermal correction to Enthalpy=                  0.015841
 Thermal correction to Gibbs Free Energy=        -0.010681
 Sum of electronic and zero-point Energies=           -100.921016
 Sum of electronic and thermal Energies=              -100.917775
 Sum of electronic and thermal Enthalpies=            -100.916831
 Sum of electronic and thermal Free Energies=         -100.943353

                     E (Thermal)             CV                S
                      KCal/Mol        Cal/Mol-Kelvin    Cal/Mol-Kelvin
 Total                    9.348              6.952             55.820
 Electronic               0.000              0.000              1.377
 Translational            0.889              2.981             35.068
 Rotational               0.592              1.987             13.438
 Vibrational              7.867              1.984              5.937
 Vibration     1          0.593              1.984              5.937

 Normal termination of Gaussian 16 at Fri Aug 22 21:06:27 2025.
