 Gaussian 16, Revision C.01,
 Gaussian 16:  ES64L-G16RevC.01  3-Jul-2019

 -----------------------------------------
 # sp b3lyp/6-311g** Force nosymm scf=(qc)
 -----------------------------------------

 -------------------
 Title Card Required
 -------------------
 Symbolic Z-matrix:
 Charge =  0 Multiplicity = 2

                          Input orientation:
 ---------------------------------------------------------------------
 Center     Atomic      Atomic             Coordinates (Angstroms)
 Number     Number       Type             X           Y           Z
 ---------------------------------------------------------------------
      1          1           0        0.000000    0.000000    0.000000
      2          1           0       -1.550000    0.000000    0.000000
      3          9           0        0.500000    0.000000    0.000000
 ---------------------------------------------------------------------

 SCF Done:  E(UB3LYP) =  -100.261675113     a.u. after    6 cycles

 Alpha  occ. eigenvalues --  -24.63293  -1.42862  -0.64144  -0.44621  -0.44621
 Alpha  occ. eigenvalues --   -0.35351
 Alpha virt. eigenvalues --    0.14187   0.22266   0.63433   0.89070   0.89568
 Alpha virt. eigenvalues --    0.89568   1.19726   1.19726   1.42585   1.60978
 Alpha virt. eigenvalues --    1.60978   1.69189   2.02225   2.24188   3.76371

  Beta  occ. eigenvalues --  -24.63216  -1.42605  -0.63856  -0.44576  -0.44576
  Beta virt. eigenvalues --   -0.10622   0.15289   0.31654   0.68310   0.89190
  Beta virt. eigenvalues --    0.89715   0.89715   1.36557   1.36557   1.45988
  Beta virt. eigenvalues --    1.63128   1.63128   1.81797   2.02081   2.49457

 Mulliken charges and spin densities:
               1          2
     1  H    0.090178   0.015517
     2  H    0.009595   0.983751
     3  F   -0.099773   0.000732
 Sum of Mulliken charges =   0.00000   1.00000

 Dipole moment (field-independent basis, Debye):
    X=             -1.2798    Y=             -0.0000    Z=             -0.0000  Tot=              1.2798
 Quadrupole moment (field-independent basis, Debye-Ang):
   XX=             -6.5864   YY=             -6.3730   ZZ=             -6.3730
   XY=             -0.0000   XZ=             -0.0000   YZ=              0.0000

  Exact polarizability:       5.511      -0.000       2.473       0.000      -0.000       2.473
 Approx polarizability:       5.197      -0.000       2.486      -0.000      -0.000       2.486

 ******    2 imaginary frequencies (negative Signs) ******

                      1                      2                      3
                      A                      A                      A
 Frequencies --  -9408.5533             -9408.5533               899.2432
 Red. masses --      1.0351                 1.0351                 1.0534
 Frc consts  --     53.9857                53.9857                 0.5019
 IR Inten    --    212.0603               212.0603                 6.3223

                      4
                      A
 Frequencies --  19158.2658
 Red. masses --      1.0582
 Frc consts  --    228.8403
 IR Inten    --     75.3708

 - Thermochemistry -
 -------------------
 Temperature   298.150 Kelvin.  Pressure   1.00000 Atm.
 Atom     1 has atomic number  1 and mass   1.00783

 Molecular mass:    21.01405 amu.
 Principal axes and moments of inertia in atomic units:
                           1         2         3
     Eigenvalues --     0.00000  14.90221  14.90221
           X            1.00000  -0.00000   0.00000
           Y            0.00000   1.00000   0.00000
           Z            0.00000   0.00000   1.00000
 This molecule is a prolate symmetric top.
 Rotational symmetry number  1.
 Rotational temperature (Kelvin)      5.81215
 Rotational constant (GHZ):         121.105616
    2 imaginary frequencies ignored.
 Zero-point vibrational energy     119970.5 (Joules/Mol)
                                   28.67365 (Kcal/Mol)
 Vibrational temperatures:   1293.81 27564.47
          (Kelvin)

 Zero-point correction=                           0.045694 (Hartree/Particle)
 Thermal correction to Energy=                    0.048109
 Thermal correction to Enthalpy=                  0.049053
 Thermal correction to Gibbs Free Energy=         0.027008
 Sum of electronic and zero-point Energies=           -100.215981
 Sum of electronic and thermal Energies=              -100.213566
 Sum of electronic and thermal Enthalpies=            -100.212622
 Sum of electronic and thermal Free Energies=         -100.234667

                     E (Thermal)             CV                S
                      KCal/Mol        Cal/Mol-Kelvin    Cal/Mol-Kelvin
 Total                   30.189              5.469             46.398
 Electronic               0.000              0.000              1.377
 Translational            0.889              2.981             35.068
 Rotational               0.592              1.987              9.812
 Vibrational             28.708              0.501              0.140

 Normal termination of Gaussian 16 at Fri Aug 22 15:36:36 2025.
