 Gaussian 16, Revision C.01,
 Gaussian 16:  ES64L-G16RevC.01  3-Jul-2019

 -----------------------------------------
 # sp b3lyp/6-311g** Force nosymm scf=(qc)
 -----------------------------------------

 -------------------
 Title Card Required
 -------------------
 Symbolic Z-matrix:
 Charge =  0 Multiplicity = 2

                          Input orientation:
 ---------------------------------------------------------------------
 Center     Atomic      Atomic             Coordinates (Angstroms)
 Number     Number       Type             X           Y           Z
 ---------------------------------------------------------------------
      1          1           0        0.000000    0.000000    0.000000
      2          1           0       -3.750000    0.000000    0.000000
      3          9           0        1.800000    0.000000    0.000000
 ---------------------------------------------------------------------

 SCF Done:  E(UB3LYP) =  -100.797073471     a.u. after   10 cycles

 Alpha  occ. eigenvalues --  -24.64189  -1.08621  -0.40054  -0.35871  -0.35871
 Alpha  occ. eigenvalues --   -0.33833
 Alpha virt. eigenvalues --   -0.20485   0.19789   0.27072   0.92869   0.95663
 Alpha virt. eigenvalues --    0.95663   1.07830   1.23648   1.23670   1.23670
 Alpha virt. eigenvalues --    1.25977   1.25977   1.65601   2.12065   2.16385

  Beta  occ. eigenvalues --  -24.64194  -1.08635  -0.40056  -0.35876  -0.35876
  Beta virt. eigenvalues --   -0.20517  -0.06648   0.22451   0.38040   0.92896
  Beta virt. eigenvalues --    0.95666   0.95666   1.07835   1.26033   1.26033
  Beta virt. eigenvalues --    1.45795   1.46193   1.46193   1.65649   2.14810

 Mulliken charges and spin densities:
               1          2
     1  H    0.314143   0.003193
     2  H    0.001562   0.998376
     3  F   -0.315704  -0.001568
 Sum of Mulliken charges =   0.00000   1.00000

 Dipole moment (field-independent basis, Debye):
    X=             -2.8500    Y=             -0.0000    Z=              0.0000  Tot=              2.8500
 Quadrupole moment (field-independent basis, Debye-Ang):
   XX=            -11.0613   YY=             -7.4589   ZZ=             -7.4589
   XY=             -0.0000   XZ=              0.0000   YZ=             -0.0000

  Exact polarizability:      22.246       0.000       2.067      -0.000      -0.000       2.067
 Approx polarizability:      58.575      -0.000       1.975       0.000       0.000       1.975

 ******    2 imaginary frequencies (negative Signs) ******

                      1                      2                      3
                      A                      A                      A
 Frequencies --  -1159.1692               -73.9162               800.6040
 Red. masses --      1.0577                 1.0538                 1.0287
 Frc consts  --      0.8374                 0.0034                 0.3885
 IR Inten    --     31.9217                 0.2413                95.9606

                      4
                      A
 Frequencies --    800.6040
 Red. masses --      1.0287
 Frc consts  --      0.3885
 IR Inten    --     95.9606

 - Thermochemistry -
 -------------------
 Temperature   298.150 Kelvin.  Pressure   1.00000 Atm.
 Atom     1 has atomic number  1 and mass   1.00783

 Molecular mass:    21.01405 amu.
 Principal axes and moments of inertia in atomic units:
                           1         2         3
     Eigenvalues --     0.00000 113.19459 113.19459
           X            1.00000  -0.00000   0.00000
           Y            0.00000   1.00000   0.00000
           Z            0.00000   0.00000   1.00000
 This molecule is a prolate symmetric top.
 Rotational symmetry number  1.
 Rotational temperature (Kelvin)      0.76518
 Rotational constant (GHZ):          15.943705
    2 imaginary frequencies ignored.
 Zero-point vibrational energy       9577.4 (Joules/Mol)
                                    2.28904 (Kcal/Mol)
 Vibrational temperatures:   1151.89  1151.89
          (Kelvin)

 Zero-point correction=                           0.003648 (Hartree/Particle)
 Thermal correction to Energy=                    0.006165
 Thermal correction to Enthalpy=                  0.007109
 Thermal correction to Gibbs Free Energy=        -0.016980
 Sum of electronic and zero-point Energies=           -100.793426
 Sum of electronic and thermal Energies=              -100.790909
 Sum of electronic and thermal Enthalpies=            -100.789965
 Sum of electronic and thermal Free Energies=         -100.814054

                     E (Thermal)             CV                S
                      KCal/Mol        Cal/Mol-Kelvin    Cal/Mol-Kelvin
 Total                    3.868              6.268             50.700
 Electronic               0.000              0.000              1.377
 Translational            0.889              2.981             35.068
 Rotational               0.592              1.987             13.841
 Vibrational              2.387              1.300              0.414

 Normal termination of Gaussian 16 at Fri Aug 22 16:45:11 2025.
