 Gaussian 16, Revision C.01,
 Gaussian 16:  ES64L-G16RevC.01  3-Jul-2019

 -----------------------------------------
 # sp b3lyp/6-311g** Force nosymm scf=(qc)
 -----------------------------------------

 -------------------
 Title Card Required
 -------------------
 Symbolic Z-matrix:
 Charge =  0 Multiplicity = 2

                          Input orientation:
 ---------------------------------------------------------------------
 Center     Atomic      Atomic             Coordinates (Angstroms)
 Number     Number       Type             X           Y           Z
 ---------------------------------------------------------------------
      1          1           0        0.000000    0.000000    0.000000
      2          1           0       -2.900000    0.000000    0.000000
      3          9           0        1.500000    0.000000    0.000000
 ---------------------------------------------------------------------

 SCF Done:  E(UB3LYP) =  -100.855150660     a.u. after    8 cycles

 Alpha  occ. eigenvalues --  -24.64255  -1.09695  -0.43276  -0.36354  -0.36354
 Alpha  occ. eigenvalues --   -0.34818
 Alpha virt. eigenvalues --   -0.14124   0.21565   0.27384   0.93637   0.93637
 Alpha virt. eigenvalues --    1.03494   1.10161   1.22694   1.22694   1.23465
 Alpha virt. eigenvalues --    1.31513   1.31513   1.73815   2.13554   2.19472

  Beta  occ. eigenvalues --  -24.64126  -1.09353  -0.42942  -0.36231  -0.36231
  Beta virt. eigenvalues --   -0.15222  -0.07494   0.24265   0.36945   0.93587
  Beta virt. eigenvalues --    0.93587   1.03822   1.10241   1.30918   1.30918
  Beta virt. eigenvalues --    1.44241   1.44435   1.44435   1.73716   2.18531

 Mulliken charges and spin densities:
               1          2
     1  H    0.343625  -0.032086
     2  H    0.007988   0.991238
     3  F   -0.351614   0.040847
 Sum of Mulliken charges =  -0.00000   1.00000

 Dipole moment (field-independent basis, Debye):
    X=             -2.7019    Y=             -0.0000    Z=              0.0000  Tot=              2.7019
 Quadrupole moment (field-independent basis, Debye-Ang):
   XX=             -9.6386   YY=             -7.3244   ZZ=             -7.3244
   XY=             -0.0000   XZ=              0.0000   YZ=              0.0000

  Exact polarizability:      18.519       0.000       2.193      -0.000       0.000       2.193
 Approx polarizability:      31.671       0.000       2.120      -0.000      -0.000       2.120

 ******    2 imaginary frequencies (negative Signs) ******

                      1                      2                      3
                      A                      A                      A
 Frequencies --  -1220.2128              -164.2875              1003.6879
 Red. masses --      1.0541                 1.0575                 1.0275
 Frc consts  --      0.9247                 0.0168                 0.6099
 IR Inten    --     70.8084                 1.3735               109.3883

                      4
                      A
 Frequencies --   1003.6879
 Red. masses --      1.0275
 Frc consts  --      0.6099
 IR Inten    --    109.3883

 - Thermochemistry -
 -------------------
 Temperature   298.150 Kelvin.  Pressure   1.00000 Atm.
 Atom     1 has atomic number  1 and mass   1.00783

 Molecular mass:    21.01405 amu.
 Principal axes and moments of inertia in atomic units:
                           1         2         3
     Eigenvalues --     0.00000  71.76613  71.76613
           X            1.00000  -0.00000   0.00000
           Y            0.00000   1.00000   0.00000
           Z            0.00000   0.00000   1.00000
 This molecule is a prolate symmetric top.
 Rotational symmetry number  1.
 Rotational temperature (Kelvin)      1.20689
 Rotational constant (GHZ):          25.147535
    2 imaginary frequencies ignored.
 Zero-point vibrational energy      12006.8 (Joules/Mol)
                                    2.86969 (Kcal/Mol)
 Vibrational temperatures:   1444.08  1444.08
          (Kelvin)

 Zero-point correction=                           0.004573 (Hartree/Particle)
 Thermal correction to Energy=                    0.007006
 Thermal correction to Enthalpy=                  0.007950
 Thermal correction to Gibbs Free Energy=        -0.015600
 Sum of electronic and zero-point Energies=           -100.850578
 Sum of electronic and thermal Energies=              -100.848144
 Sum of electronic and thermal Enthalpies=            -100.847200
 Sum of electronic and thermal Free Energies=         -100.870750

                     E (Thermal)             CV                S
                      KCal/Mol        Cal/Mol-Kelvin    Cal/Mol-Kelvin
 Total                    4.396              5.714             49.566
 Electronic               0.000              0.000              1.377
 Translational            0.889              2.981             35.068
 Rotational               0.592              1.987             12.936
 Vibrational              2.915              0.746              0.184

 Normal termination of Gaussian 16 at Fri Aug 22 16:26:12 2025.
