 Gaussian 16, Revision C.01,
 Gaussian 16:  ES64L-G16RevC.01  3-Jul-2019

 -----------------------------------------
 # sp b3lyp/6-311g** Force nosymm scf=(qc)
 -----------------------------------------

 -------------------
 Title Card Required
 -------------------
 Symbolic Z-matrix:
 Charge =  0 Multiplicity = 2

                          Input orientation:
 ---------------------------------------------------------------------
 Center     Atomic      Atomic             Coordinates (Angstroms)
 Number     Number       Type             X           Y           Z
 ---------------------------------------------------------------------
      1          1           0        0.000000    0.000000    0.000000
      2          1           0       -3.700000    0.000000    0.000000
      3          9           0        1.900000    0.000000    0.000000
 ---------------------------------------------------------------------

 SCF Done:  E(UB3LYP) =  -100.781415661     a.u. after   12 cycles

 Alpha  occ. eigenvalues --  -24.64111  -1.08424  -0.39238  -0.35746  -0.35746
 Alpha  occ. eigenvalues --   -0.33896
 Alpha virt. eigenvalues --   -0.21919   0.19740   0.27158   0.90543   0.96445
 Alpha virt. eigenvalues --    0.96445   1.08365   1.23588   1.23603   1.23603
 Alpha virt. eigenvalues --    1.24527   1.24527   1.59929   2.11767   2.15969

  Beta  occ. eigenvalues --  -24.64115  -1.08434  -0.39232  -0.35749  -0.35749
  Beta virt. eigenvalues --   -0.21943  -0.06820   0.22481   0.37933   0.90577
  Beta virt. eigenvalues --    0.96448   0.96448   1.08374   1.24586   1.24586
  Beta virt. eigenvalues --    1.45574   1.45998   1.45998   1.59985   2.14135

 Mulliken charges and spin densities:
               1          2
     1  H    0.301938   0.003281
     2  H    0.002103   0.997818
     3  F   -0.304041  -0.001099
 Sum of Mulliken charges =   0.00000   1.00000

 Dipole moment (field-independent basis, Debye):
    X=             -2.9319    Y=              0.0000    Z=             -0.0000  Tot=              2.9319
 Quadrupole moment (field-independent basis, Debye-Ang):
   XX=            -11.4427   YY=             -7.4951   ZZ=             -7.4951
   XY=              0.0000   XZ=             -0.0000   YZ=             -0.0000

  Exact polarizability:      25.412       0.000       2.036      -0.000      -0.000       2.036
 Approx polarizability:      73.715      -0.000       1.942       0.000       0.000       1.942

 ******    2 imaginary frequencies (negative Signs) ******

                      1                      2                      3
                      A                      A                      A
 Frequencies --  -1124.4289               -85.4247               735.5247
 Red. masses --      1.0575                 1.0541                 1.0276
 Frc consts  --      0.7877                 0.0045                 0.3276
 IR Inten    --     33.8300                 0.4361                89.3214

                      4
                      A
 Frequencies --    735.5247
 Red. masses --      1.0276
 Frc consts  --      0.3276
 IR Inten    --     89.3214

 - Thermochemistry -
 -------------------
 Temperature   298.150 Kelvin.  Pressure   1.00000 Atm.
 Atom     1 has atomic number  1 and mass   1.00783

 Molecular mass:    21.01405 amu.
 Principal axes and moments of inertia in atomic units:
                           1         2         3
     Eigenvalues --     0.00000 116.14819 116.14819
           X            1.00000  -0.00000   0.00000
           Y            0.00000   1.00000   0.00000
           Z            0.00000   0.00000   1.00000
 This molecule is a prolate symmetric top.
 Rotational symmetry number  1.
 Rotational temperature (Kelvin)      0.74572
 Rotational constant (GHZ):          15.538264
    2 imaginary frequencies ignored.
 Zero-point vibrational energy       8798.8 (Joules/Mol)
                                    2.10297 (Kcal/Mol)
 Vibrational temperatures:   1058.26  1058.26
          (Kelvin)

 Zero-point correction=                           0.003351 (Hartree/Particle)
 Thermal correction to Energy=                    0.005910
 Thermal correction to Enthalpy=                  0.006854
 Thermal correction to Gibbs Free Energy=        -0.017316
 Sum of electronic and zero-point Energies=           -100.778064
 Sum of electronic and thermal Energies=              -100.775506
 Sum of electronic and thermal Enthalpies=            -100.774561
 Sum of electronic and thermal Free Energies=         -100.798732

                     E (Thermal)             CV                S
                      KCal/Mol        Cal/Mol-Kelvin    Cal/Mol-Kelvin
 Total                    3.709              6.494             50.871
 Electronic               0.000              0.000              1.377
 Translational            0.889              2.981             35.068
 Rotational               0.592              1.987             13.893
 Vibrational              2.227              1.526              0.533

 Normal termination of Gaussian 16 at Fri Aug 22 16:51:27 2025.
