 Gaussian 16, Revision C.01,
 Gaussian 16:  ES64L-G16RevC.01  3-Jul-2019

 -----------------------------------------
 # sp b3lyp/6-311g** Force nosymm scf=(qc)
 -----------------------------------------

 -------------------
 Title Card Required
 -------------------
 Symbolic Z-matrix:
 Charge =  0 Multiplicity = 2

                          Input orientation:
 ---------------------------------------------------------------------
 Center     Atomic      Atomic             Coordinates (Angstroms)
 Number     Number       Type             X           Y           Z
 ---------------------------------------------------------------------
      1          1           0        0.000000    0.000000    0.000000
      2          1           0       -1.950000    0.000000    0.000000
      3          9           0        1.250000    0.000000    0.000000
 ---------------------------------------------------------------------

 SCF Done:  E(UB3LYP) =  -100.916474363     a.u. after    7 cycles

 Alpha  occ. eigenvalues --  -24.63654  -1.11220  -0.47118  -0.36851  -0.36722
 Alpha  occ. eigenvalues --   -0.36722
 Alpha virt. eigenvalues --   -0.04452   0.23421   0.28221   0.93617   0.93617
 Alpha virt. eigenvalues --    1.01647   1.10093   1.20195   1.20195   1.35346
 Alpha virt. eigenvalues --    1.35346   1.44670   1.70559   2.12929   2.31398

  Beta  occ. eigenvalues --  -24.63436  -1.10666  -0.45998  -0.36522  -0.36522
  Beta virt. eigenvalues --   -0.15488  -0.00968   0.27732   0.33289   0.93606
  Beta virt. eigenvalues --    0.93606   1.02263   1.17713   1.33624   1.33624
  Beta virt. eigenvalues --    1.39814   1.39814   1.53982   1.71841   2.25086

 Mulliken charges and spin densities:
               1          2
     1  H    0.331810  -0.018731
     2  H    0.032346   0.953216
     3  F   -0.364156   0.065516
 Sum of Mulliken charges =   0.00000   1.00000

 Dipole moment (field-independent basis, Debye):
    X=             -2.6911    Y=             -0.0000    Z=              0.0000  Tot=              2.6911
 Quadrupole moment (field-independent basis, Debye-Ang):
   XX=             -8.3226   YY=             -7.1189   ZZ=             -7.1189
   XY=             -0.0000   XZ=              0.0000   YZ=              0.0000

  Exact polarizability:      17.629       0.000       2.360      -0.000      -0.000       2.360
 Approx polarizability:      22.437       0.000       2.319       0.000      -0.000       2.319

 ******    1 imaginary frequencies (negative Signs) ******

                      1                      2                      3
                      A                      A                      A
 Frequencies --   -851.6587               293.8107              1140.5441
 Red. masses --      1.0143                 1.1008                 1.0241
 Frc consts  --      0.4334                 0.0560                 0.7849
 IR Inten    --    198.9411                26.4825                99.0312

                      4
                      A
 Frequencies --   1140.5441
 Red. masses --      1.0241
 Frc consts  --      0.7849
 IR Inten    --     99.0312

 - Thermochemistry -
 -------------------
 Temperature   298.150 Kelvin.  Pressure   1.00000 Atm.
 Atom     1 has atomic number  1 and mass   1.00783

 Molecular mass:    21.01405 amu.
 Principal axes and moments of inertia in atomic units:
                           1         2         3
     Eigenvalues --     0.00000  39.05925  39.05925
           X            1.00000  -0.00000   0.00000
           Y            0.00000   1.00000   0.00000
           Z            0.00000   0.00000   1.00000
 This molecule is a prolate symmetric top.
 Rotational symmetry number  1.
 Rotational temperature (Kelvin)      2.21750
 Rotational constant (GHZ):          46.205219
    1 imaginary frequencies ignored.
 Zero-point vibrational energy      15401.3 (Joules/Mol)
                                    3.68100 (Kcal/Mol)
 Warning -- explicit consideration of   1 degrees of freedom as
           vibrations may cause significant error
 Vibrational temperatures:    422.73  1640.99  1640.99
          (Kelvin)

 Zero-point correction=                           0.005866 (Hartree/Particle)
 Thermal correction to Energy=                    0.008697
 Thermal correction to Enthalpy=                  0.009641
 Thermal correction to Gibbs Free Energy=        -0.013987
 Sum of electronic and zero-point Energies=           -100.910608
 Sum of electronic and thermal Energies=              -100.907777
 Sum of electronic and thermal Enthalpies=            -100.906833
 Sum of electronic and thermal Free Energies=         -100.930462

                     E (Thermal)             CV                S
                      KCal/Mol        Cal/Mol-Kelvin    Cal/Mol-Kelvin
 Total                    5.457              7.147             49.730
 Electronic               0.000              0.000              1.377
 Translational            0.889              2.981             35.068
 Rotational               0.592              1.987             11.727
 Vibrational              3.976              2.179              1.558
 Vibration     1          0.689              1.685              1.452

 Normal termination of Gaussian 16 at Fri Aug 22 16:12:34 2025.
