 Gaussian 16, Revision C.01,
 Gaussian 16:  ES64L-G16RevC.01  3-Jul-2019

 -----------------------------------------
 # sp b3lyp/6-311g** Force nosymm scf=(qc)
 -----------------------------------------

 -------------------
 Title Card Required
 -------------------
 Symbolic Z-matrix:
 Charge =  0 Multiplicity = 2

                          Input orientation:
 ---------------------------------------------------------------------
 Center     Atomic      Atomic             Coordinates (Angstroms)
 Number     Number       Type             X           Y           Z
 ---------------------------------------------------------------------
      1          1           0        0.000000    0.000000    0.000000
      2          1           0       -2.450000    0.000000    0.000000
      3          9           0        3.500000    0.000000    0.000000
 ---------------------------------------------------------------------

 SCF Done:  E(UB3LYP) =  -100.763540357     a.u. after   28 cycles

 Alpha  occ. eigenvalues --  -24.75458  -1.21415  -0.54580  -0.45827  -0.45827
 Alpha  occ. eigenvalues --   -0.32710
 Alpha virt. eigenvalues --   -0.09706   0.25727   0.34138   0.87606   0.91433
 Alpha virt. eigenvalues --    0.91433   1.01775   1.24965   1.24965   1.26440
 Alpha virt. eigenvalues --    1.40971   1.40971   1.42984   2.15580   2.36469

  Beta  occ. eigenvalues --  -24.72341  -1.12459  -0.42703  -0.42703  -0.32992
  Beta virt. eigenvalues --   -0.25536  -0.09236   0.25544   0.34828   0.92923
  Beta virt. eigenvalues --    0.92923   0.96777   1.05818   1.24627   1.24627
  Beta virt. eigenvalues --    1.26038   1.41693   1.41693   1.43698   2.16115

 Mulliken charges and spin densities:
               1          2
     1  H    0.007928  -0.953353
     2  H    0.002573   0.965160
     3  F   -0.010501   0.988194
 Sum of Mulliken charges =  -0.00000   1.00000

 Dipole moment (field-independent basis, Debye):
    X=             -0.2187    Y=             -0.0000    Z=              0.0000  Tot=              0.2187
 Quadrupole moment (field-independent basis, Debye-Ang):
   XX=             -7.0735   YY=             -7.6697   ZZ=             -7.6697
   XY=             -0.0000   XZ=             -0.0000   YZ=             -0.0000

  Exact polarizability:      34.187      -0.000       2.025      -0.000      -0.000       2.025
 Approx polarizability:      25.775      -0.000       1.928      -0.000       0.000       1.928

 ******    2 imaginary frequencies (negative Signs) ******

                      1                      2                      3
                      A                      A                      A
 Frequencies --   -718.5276              -139.3266               265.1923
 Red. masses --      1.0080                 1.1083                 1.0142
 Frc consts  --      0.3066                 0.0127                 0.0420
 IR Inten    --      6.0428                 6.2646                 0.0385

                      4
                      A
 Frequencies --    265.1923
 Red. masses --      1.0142
 Frc consts  --      0.0420
 IR Inten    --      0.0385

 - Thermochemistry -
 -------------------
 Temperature   298.150 Kelvin.  Pressure   1.00000 Atm.
 Atom     1 has atomic number  1 and mass   1.00783

 Molecular mass:    21.01405 amu.
 Principal axes and moments of inertia in atomic units:
                           1         2         3
     Eigenvalues --     0.00000 156.08753 156.08753
           X            1.00000  -0.00000   0.00000
           Y            0.00000   1.00000   0.00000
           Z            0.00000   0.00000   1.00000
 This molecule is a prolate symmetric top.
 Rotational symmetry number  1.
 Rotational temperature (Kelvin)      0.55491
 Rotational constant (GHZ):          11.562367
    2 imaginary frequencies ignored.
 Zero-point vibrational energy       3172.4 (Joules/Mol)
                                    0.75822 (Kcal/Mol)
 Warning -- explicit consideration of   2 degrees of freedom as
           vibrations may cause significant error
 Vibrational temperatures:    381.55   381.55
          (Kelvin)

 Zero-point correction=                           0.001208 (Hartree/Particle)
 Thermal correction to Energy=                    0.004500
 Thermal correction to Enthalpy=                  0.005444
 Thermal correction to Gibbs Free Energy=        -0.020299
 Sum of electronic and zero-point Energies=           -100.762332
 Sum of electronic and thermal Energies=              -100.759041
 Sum of electronic and thermal Enthalpies=            -100.758096
 Sum of electronic and thermal Free Energies=         -100.783839

                     E (Thermal)             CV                S
                      KCal/Mol        Cal/Mol-Kelvin    Cal/Mol-Kelvin
 Total                    2.824              8.442             54.180
 Electronic               0.000              0.000              1.377
 Translational            0.889              2.981             35.068
 Rotational               0.592              1.987             14.480
 Vibrational              1.342              3.474              3.255
 Vibration     1          0.671              1.737              1.627
 Vibration     2          0.671              1.737              1.627

 Normal termination of Gaussian 16 at Fri Aug 22 22:09:42 2025.
