 Gaussian 16, Revision C.01,
 Gaussian 16:  ES64L-G16RevC.01  3-Jul-2019

 -----------------------------------------
 # sp b3lyp/6-311g** Force nosymm scf=(qc)
 -----------------------------------------

 -------------------
 Title Card Required
 -------------------
 Symbolic Z-matrix:
 Charge =  0 Multiplicity = 2

                          Input orientation:
 ---------------------------------------------------------------------
 Center     Atomic      Atomic             Coordinates (Angstroms)
 Number     Number       Type             X           Y           Z
 ---------------------------------------------------------------------
      1          1           0        0.000000    0.000000    0.000000
      2          1           0       -0.700000    0.000000    0.000000
      3          9           0        3.200000    0.000000    0.000000
 ---------------------------------------------------------------------

 SCF Done:  E(UB3LYP) =  -100.932848685     a.u. after  142 cycles

 Alpha  occ. eigenvalues --  -24.76497  -1.22320  -0.55517  -0.46758  -0.46668
 Alpha  occ. eigenvalues --   -0.44110
 Alpha virt. eigenvalues --    0.06881   0.19564   0.48347   0.85927   0.90800
 Alpha virt. eigenvalues --    0.93703   1.04083   1.09006   1.09011   1.57861
 Alpha virt. eigenvalues --    1.85909   1.85915   1.91147   2.38265   3.57008

  Beta  occ. eigenvalues --  -24.73336  -1.13236  -0.44300  -0.43500  -0.43397
  Beta virt. eigenvalues --   -0.26145   0.06916   0.19586   0.48440   0.92300
  Beta virt. eigenvalues --    0.95387   0.95407   1.07879   1.09005   1.09011
  Beta virt. eigenvalues --    1.57874   1.85909   1.85915   1.91182   2.38269

 Mulliken charges and spin densities:
               1          2
     1  H   -0.004603  -0.000945
     2  H   -0.002665   0.000033
     3  F    0.007268   1.000912
 Sum of Mulliken charges =   0.00000   1.00000

 Dipole moment (field-independent basis, Debye):
    X=              0.0740    Y=              0.0000    Z=             -0.0000  Tot=              0.0740
 Quadrupole moment (field-independent basis, Debye-Ang):
   XX=             -6.0966   YY=             -6.4536   ZZ=             -6.4582
   XY=              0.0000   XZ=             -0.0000   YZ=             -0.4319

  Exact polarizability:       7.868       0.000       2.164      -0.000      -0.231       2.162
 Approx polarizability:       8.811       0.000       2.303      -0.000      -0.290       2.299

 ******    2 imaginary frequencies (negative Signs) ******

                      1                      2                      3
                      A                      A                      A
 Frequencies --  -1168.8747             -1168.6562                54.1027
 Red. masses --      1.0088                 1.0088                 1.1085
 Frc consts  --      0.8121                 0.8118                 0.0019
 IR Inten    --      0.0085                 0.0085                 0.1853

                      4
                      A
 Frequencies --   5087.9897
 Red. masses --      1.0078
 Frc consts  --     15.3719
 IR Inten    --      0.1686

 - Thermochemistry -
 -------------------
 Temperature   298.150 Kelvin.  Pressure   1.00000 Atm.
 Atom     1 has atomic number  1 and mass   1.00783

 Molecular mass:    21.01405 amu.
 Principal axes and moments of inertia in atomic units:
                           1         2         3
     Eigenvalues --     0.00000  82.89365  82.89365
           X            1.00000  -0.00000   0.00000
           Y            0.00000   1.00000   0.00000
           Z            0.00000   0.00000   1.00000
 This molecule is a prolate symmetric top.
 Rotational symmetry number  1.
 Rotational temperature (Kelvin)      1.04488
 Rotational constant (GHZ):          21.771766
    2 imaginary frequencies ignored.
 Zero-point vibrational energy      30756.5 (Joules/Mol)
                                    7.35099 (Kcal/Mol)
 Warning -- explicit consideration of   1 degrees of freedom as
           vibrations may cause significant error
 Vibrational temperatures:     77.84  7320.48
          (Kelvin)

 Zero-point correction=                           0.011715 (Hartree/Particle)
 Thermal correction to Energy=                    0.014901
 Thermal correction to Enthalpy=                  0.015845
 Thermal correction to Gibbs Free Energy=        -0.009968
 Sum of electronic and zero-point Energies=           -100.921134
 Sum of electronic and thermal Energies=              -100.917947
 Sum of electronic and thermal Enthalpies=            -100.917003
 Sum of electronic and thermal Free Energies=         -100.942817

                     E (Thermal)             CV                S
                      KCal/Mol        Cal/Mol-Kelvin    Cal/Mol-Kelvin
 Total                    9.351              6.944             54.329
 Electronic               0.000              0.000              1.377
 Translational            0.889              2.981             35.068
 Rotational               0.592              1.987             13.222
 Vibrational              7.869              1.976              4.661
 Vibration     1          0.596              1.976              4.661

 Normal termination of Gaussian 16 at Fri Aug 22 20:14:16 2025.
