 Gaussian 16, Revision C.01,
 Gaussian 16:  ES64L-G16RevC.01  3-Jul-2019

 -----------------------------------------
 # sp b3lyp/6-311g** Force nosymm scf=(qc)
 -----------------------------------------

 -------------------
 Title Card Required
 -------------------
 Symbolic Z-matrix:
 Charge =  0 Multiplicity = 2

                          Input orientation:
 ---------------------------------------------------------------------
 Center     Atomic      Atomic             Coordinates (Angstroms)
 Number     Number       Type             X           Y           Z
 ---------------------------------------------------------------------
      1          1           0        0.000000    0.000000    0.000000
      2          1           0       -4.000000    0.000000    0.000000
      3          9           0        3.800000    0.000000    0.000000
 ---------------------------------------------------------------------

 SCF Done:  E(UB3LYP) =  -100.758487265     a.u. after   32 cycles

 Alpha  occ. eigenvalues --  -24.75748  -1.21685  -0.54872  -0.46072  -0.46072
 Alpha  occ. eigenvalues --   -0.32241
 Alpha virt. eigenvalues --   -0.05767   0.24191   0.37813   0.86851   0.91255
 Alpha virt. eigenvalues --    0.91255   1.01265   1.25253   1.25253   1.25274
 Alpha virt. eigenvalues --    1.46929   1.46929   1.47820   2.14574   2.42898

  Beta  occ. eigenvalues --  -24.72611  -1.12665  -0.42926  -0.42926  -0.32530
  Beta virt. eigenvalues --   -0.25666  -0.05787   0.23965   0.38217   0.92751
  Beta virt. eigenvalues --    0.92751   0.96153   1.05360   1.24934   1.24934
  Beta virt. eigenvalues --    1.24938   1.46745   1.46823   1.46823   2.14589

 Mulliken charges and spin densities:
               1          2
     1  H    0.004758  -0.994091
     2  H    0.000024   0.999373
     3  F   -0.004782   0.994718
 Sum of Mulliken charges =  -0.00000   1.00000

 Dipole moment (field-independent basis, Debye):
    X=             -0.0943    Y=              0.0000    Z=             -0.0000  Tot=              0.0943
 Quadrupole moment (field-independent basis, Debye-Ang):
   XX=             -7.0730   YY=             -7.6186   ZZ=             -7.6186
   XY=              0.0000   XZ=             -0.0000   YZ=              0.0000

  Exact polarizability:      14.634       0.000       2.033      -0.000       0.000       2.033
 Approx polarizability:      10.785       0.000       1.937      -0.000      -0.000       1.937

 ******    2 imaginary frequencies (negative Signs) ******

                      1                      2                      3
                      A                      A                      A
 Frequencies --   -156.7659               -62.3713                46.9848
 Red. masses --      1.0346                 1.0779                 1.0186
 Frc consts  --      0.0150                 0.0025                 0.0013
 IR Inten    --      3.1785                 0.2051                 0.0224

                      4
                      A
 Frequencies --     46.9848
 Red. masses --      1.0186
 Frc consts  --      0.0013
 IR Inten    --      0.0224

 - Thermochemistry -
 -------------------
 Temperature   298.150 Kelvin.  Pressure   1.00000 Atm.
 Atom     1 has atomic number  1 and mass   1.00783

 Molecular mass:    21.01405 amu.
 Principal axes and moments of inertia in atomic units:
                           1         2         3
     Eigenvalues --     0.00000 247.70738 247.70738
           X            1.00000  -0.00000   0.00000
           Y            0.00000   1.00000   0.00000
           Z            0.00000   0.00000   1.00000
 This molecule is a prolate symmetric top.
 Rotational symmetry number  1.
 Rotational temperature (Kelvin)      0.34966
 Rotational constant (GHZ):           7.285779
    2 imaginary frequencies ignored.
 Zero-point vibrational energy        562.1 (Joules/Mol)
                                    0.13434 (Kcal/Mol)
 Warning -- explicit consideration of   2 degrees of freedom as
           vibrations may cause significant error
 Vibrational temperatures:     67.60    67.60
          (Kelvin)

 Zero-point correction=                           0.000214 (Hartree/Particle)
 Thermal correction to Energy=                    0.004257
 Thermal correction to Enthalpy=                  0.005201
 Thermal correction to Gibbs Free Energy=        -0.024126
 Sum of electronic and zero-point Energies=           -100.758273
 Sum of electronic and thermal Energies=              -100.754230
 Sum of electronic and thermal Enthalpies=            -100.753286
 Sum of electronic and thermal Free Energies=         -100.782613

                     E (Thermal)             CV                S
                      KCal/Mol        Cal/Mol-Kelvin    Cal/Mol-Kelvin
 Total                    2.671              8.925             61.724
 Electronic               0.000              0.000              1.377
 Translational            0.889              2.981             35.068
 Rotational               0.592              1.987             15.398
 Vibrational              1.190              3.957              9.881
 Vibration     1          0.595              1.979              4.940
 Vibration     2          0.595              1.979              4.940

 Normal termination of Gaussian 16 at Sat Aug 23 00:53:09 2025.
