 Gaussian 16, Revision C.01,
 Gaussian 16:  ES64L-G16RevC.01  3-Jul-2019

 -----------------------------------------
 # sp b3lyp/6-311g** Force nosymm scf=(qc)
 -----------------------------------------

 -------------------
 Title Card Required
 -------------------
 Symbolic Z-matrix:
 Charge =  0 Multiplicity = 2

                          Input orientation:
 ---------------------------------------------------------------------
 Center     Atomic      Atomic             Coordinates (Angstroms)
 Number     Number       Type             X           Y           Z
 ---------------------------------------------------------------------
      1          1           0        0.000000    0.000000    0.000000
      2          1           0       -1.000000    0.000000    0.000000
      3          9           0        1.200000    0.000000    0.000000
 ---------------------------------------------------------------------

 SCF Done:  E(UB3LYP) =  -100.946265130     a.u. after    7 cycles

 Alpha  occ. eigenvalues --  -24.65928  -1.15049  -0.55468  -0.39190  -0.39190
 Alpha  occ. eigenvalues --   -0.38060
 Alpha virt. eigenvalues --    0.08208   0.19138   0.37258   0.89669   0.89669
 Alpha virt. eigenvalues --    0.98500   1.07961   1.07961   1.33899   1.61625
 Alpha virt. eigenvalues --    1.62529   1.62529   2.25240   2.28374   2.60321

  Beta  occ. eigenvalues --  -24.64427  -1.11174  -0.48293  -0.37795  -0.37795
  Beta virt. eigenvalues --   -0.21116   0.10662   0.21217   0.41401   0.90911
  Beta virt. eigenvalues --    0.90911   1.01814   1.12786   1.12786   1.38330
  Beta virt. eigenvalues --    1.65929   1.65929   1.66139   2.26779   2.36897

 Mulliken charges and spin densities:
               1          2
     1  H    0.258764  -0.061586
     2  H    0.035964   0.631779
     3  F   -0.294728   0.429806
 Sum of Mulliken charges =  -0.00000   1.00000

 Dipole moment (field-independent basis, Debye):
    X=             -2.0985    Y=             -0.0000    Z=              0.0000  Tot=              2.0985
 Quadrupole moment (field-independent basis, Debye-Ang):
   XX=             -7.6392   YY=             -6.8211   ZZ=             -6.8211
   XY=             -0.0000   XZ=              0.0000   YZ=              0.0000

  Exact polarizability:      20.802      -0.000       2.513       0.000      -0.000       2.513
 Approx polarizability:      27.979      -0.000       2.518      -0.000      -0.000       2.518

 ******    1 imaginary frequencies (negative Signs) ******

                      1                      2                      3
                      A                      A                      A
 Frequencies --  -2045.5348               937.9692               937.9692
 Red. masses --      1.0328                 1.0159                 1.0159
 Frc consts  --      2.5460                 0.5266                 0.5266
 IR Inten    --    283.7187                25.8279                25.8279

                      4
                      A
 Frequencies --   1262.8970
 Red. masses --      1.0798
 Frc consts  --      1.0147
 IR Inten    --     85.7564

 - Thermochemistry -
 -------------------
 Temperature   298.150 Kelvin.  Pressure   1.00000 Atm.
 Atom     1 has atomic number  1 and mass   1.00783

 Molecular mass:    21.01405 amu.
 Principal axes and moments of inertia in atomic units:
                           1         2         3
     Eigenvalues --     0.00000  20.60644  20.60644
           X            1.00000  -0.00000   0.00000
           Y            0.00000   1.00000   0.00000
           Z            0.00000   0.00000   1.00000
 This molecule is a prolate symmetric top.
 Rotational symmetry number  1.
 Rotational temperature (Kelvin)      4.20325
 Rotational constant (GHZ):          87.581426
    1 imaginary frequencies ignored.
 Zero-point vibrational energy      18774.4 (Joules/Mol)
                                    4.48719 (Kcal/Mol)
 Vibrational temperatures:   1349.53  1349.53  1817.03
          (Kelvin)

 Zero-point correction=                           0.007151 (Hartree/Particle)
 Thermal correction to Energy=                    0.009618
 Thermal correction to Enthalpy=                  0.010562
 Thermal correction to Gibbs Free Energy=        -0.011852
 Sum of electronic and zero-point Energies=           -100.939114
 Sum of electronic and thermal Energies=              -100.936647
 Sum of electronic and thermal Enthalpies=            -100.935703
 Sum of electronic and thermal Free Energies=         -100.958117

                     E (Thermal)             CV                S
                      KCal/Mol        Cal/Mol-Kelvin    Cal/Mol-Kelvin
 Total                    6.035              6.036             47.173
 Electronic               0.000              0.000              1.377
 Translational            0.889              2.981             35.068
 Rotational               0.592              1.987             10.456
 Vibrational              4.554              1.068              0.272

 Normal termination of Gaussian 16 at Fri Aug 22 16:09:26 2025.
