 Gaussian 16, Revision C.01,
 Gaussian 16:  ES64L-G16RevC.01  3-Jul-2019

 -----------------------------------------
 # sp b3lyp/6-311g** Force nosymm scf=(qc)
 -----------------------------------------

 -------------------
 Title Card Required
 -------------------
 Symbolic Z-matrix:
 Charge =  0 Multiplicity = 2

                          Input orientation:
 ---------------------------------------------------------------------
 Center     Atomic      Atomic             Coordinates (Angstroms)
 Number     Number       Type             X           Y           Z
 ---------------------------------------------------------------------
      1          1           0        0.000000    0.000000    0.000000
      2          1           0       -3.150000    0.000000    0.000000
      3          9           0        3.300000    0.000000    0.000000
 ---------------------------------------------------------------------

 SCF Done:  E(UB3LYP) =  -100.760120776     a.u. after   25 cycles

 Alpha  occ. eigenvalues --  -24.74991  -1.20983  -0.54112  -0.45434  -0.45434
 Alpha  occ. eigenvalues --   -0.32484
 Alpha virt. eigenvalues --   -0.08006   0.24628   0.35977   0.88308   0.91725
 Alpha virt. eigenvalues --    0.91725   1.02459   1.25040   1.25040   1.25528
 Alpha virt. eigenvalues --    1.43928   1.43928   1.43945   2.15451   2.39988

  Beta  occ. eigenvalues --  -24.71903  -1.12117  -0.42340  -0.42340  -0.33140
  Beta virt. eigenvalues --   -0.25278  -0.07187   0.24430   0.37190   0.93206
  Beta virt. eigenvalues --    0.93206   0.97310   1.06394   1.24275   1.24275
  Beta virt. eigenvalues --    1.24734   1.45056   1.45232   1.45232   2.15860

 Mulliken charges and spin densities:
               1          2
     1  H    0.018424  -0.973941
     2  H    0.000662   0.994943
     3  F   -0.019085   0.978998
 Sum of Mulliken charges =   0.00000   1.00000

 Dipole moment (field-independent basis, Debye):
    X=             -0.3337    Y=             -0.0000    Z=             -0.0000  Tot=              0.3337
 Quadrupole moment (field-independent basis, Debye-Ang):
   XX=             -7.6679   YY=             -7.6263   ZZ=             -7.6263
   XY=              0.0000   XZ=              0.0000   YZ=             -0.0000

  Exact polarizability:      29.905       0.000       2.028       0.000       0.000       2.028
 Approx polarizability:      25.500       0.000       1.930       0.000       0.000       1.930

 ******    2 imaginary frequencies (negative Signs) ******

                      1                      2                      3
                      A                      A                      A
 Frequencies --   -342.3027              -145.1318               118.3079
 Red. masses --      1.0208                 1.0932                 1.0174
 Frc consts  --      0.0705                 0.0136                 0.0084
 IR Inten    --     17.4564                 3.8462                 0.2986

                      4
                      A
 Frequencies --    118.3079
 Red. masses --      1.0174
 Frc consts  --      0.0084
 IR Inten    --      0.2986

 - Thermochemistry -
 -------------------
 Temperature   298.150 Kelvin.  Pressure   1.00000 Atm.
 Atom     1 has atomic number  1 and mass   1.00783

 Molecular mass:    21.01405 amu.
 Principal axes and moments of inertia in atomic units:
                           1         2         3
     Eigenvalues --     0.00000 172.51251 172.51251
           X            1.00000  -0.00000   0.00000
           Y            0.00000   1.00000   0.00000
           Z            0.00000   0.00000   1.00000
 This molecule is a prolate symmetric top.
 Rotational symmetry number  1.
 Rotational temperature (Kelvin)      0.50207
 Rotational constant (GHZ):          10.461509
    2 imaginary frequencies ignored.
 Zero-point vibrational energy       1415.3 (Joules/Mol)
                                    0.33826 (Kcal/Mol)
 Warning -- explicit consideration of   2 degrees of freedom as
           vibrations may cause significant error
 Vibrational temperatures:    170.22   170.22
          (Kelvin)

 Zero-point correction=                           0.000539 (Hartree/Particle)
 Thermal correction to Energy=                    0.004300
 Thermal correction to Enthalpy=                  0.005244
 Thermal correction to Gibbs Free Energy=        -0.022019
 Sum of electronic and zero-point Energies=           -100.759582
 Sum of electronic and thermal Energies=              -100.755821
 Sum of electronic and thermal Enthalpies=            -100.754877
 Sum of electronic and thermal Free Energies=         -100.782140

                     E (Thermal)             CV                S
                      KCal/Mol        Cal/Mol-Kelvin    Cal/Mol-Kelvin
 Total                    2.698              8.836             57.380
 Electronic               0.000              0.000              1.377
 Translational            0.889              2.981             35.068
 Rotational               0.592              1.987             14.679
 Vibrational              1.217              3.868              6.256
 Vibration     1          0.608              1.934              3.128
 Vibration     2          0.608              1.934              3.128

 Normal termination of Gaussian 16 at Fri Aug 22 20:49:39 2025.
