 Gaussian 16, Revision C.01,
 Gaussian 16:  ES64L-G16RevC.01  3-Jul-2019

 -----------------------------------------
 # sp b3lyp/6-311g** Force nosymm scf=(qc)
 -----------------------------------------

 -------------------
 Title Card Required
 -------------------
 Symbolic Z-matrix:
 Charge =  0 Multiplicity = 2

                          Input orientation:
 ---------------------------------------------------------------------
 Center     Atomic      Atomic             Coordinates (Angstroms)
 Number     Number       Type             X           Y           Z
 ---------------------------------------------------------------------
      1          1           0        0.000000    0.000000    0.000000
      2          1           0       -1.050000    0.000000    0.000000
      3          9           0        2.650000    0.000000    0.000000
 ---------------------------------------------------------------------

 SCF Done:  E(UB3LYP) =  -100.899283677     a.u. after   31 cycles

 Alpha  occ. eigenvalues --  -24.76969  -1.22750  -0.55925  -0.47287  -0.47072
 Alpha  occ. eigenvalues --   -0.37803
 Alpha virt. eigenvalues --   -0.00122   0.22261   0.38591   0.85570   0.90436
 Alpha virt. eigenvalues --    0.93250   1.08114   1.10206   1.10221   1.34165
 Alpha virt. eigenvalues --    1.63113   1.63126   2.21643   2.36379   2.57215

  Beta  occ. eigenvalues --  -24.73805  -1.13658  -0.44166  -0.43900  -0.37747
  Beta virt. eigenvalues --   -0.26536  -0.00076   0.22295   0.38698   0.91933
  Beta virt. eigenvalues --    0.95015   0.95103   1.10211   1.10219   1.11761
  Beta virt. eigenvalues --    1.34178   1.63111   1.63124   2.21647   2.36384

 Mulliken charges and spin densities:
               1          2
     1  H   -0.003135  -0.000750
     2  H   -0.009960  -0.001138
     3  F    0.013096   1.001888
 Sum of Mulliken charges =  -0.00000   1.00000

 Dipole moment (field-independent basis, Debye):
    X=              0.1621    Y=              0.0000    Z=             -0.0000  Tot=              0.1621
 Quadrupole moment (field-independent basis, Debye-Ang):
   XX=             -6.0881   YY=             -7.3433   ZZ=             -6.4807
   XY=             -0.0000   XZ=             -0.0000   YZ=              0.0146

  Exact polarizability:      13.861       0.000       2.083       0.000       0.008       2.536
 Approx polarizability:      18.398      -0.000       2.131      -0.000       0.010       2.703

                      1                      2                      3
                      A                      A                      A
 Frequencies --    122.3974              1412.2396              1526.3336
 Red. masses --      1.1085                 1.0078                 1.0105
 Frc consts  --      0.0098                 1.1843                 1.3871
 IR Inten    --      1.1598                 3.5847                 0.0113

                      4
                      A
 Frequencies --   1541.8635
 Red. masses --      1.0105
 Frc consts  --      1.4154
 IR Inten    --      0.0022

 - Thermochemistry -
 -------------------
 Temperature   298.150 Kelvin.  Pressure   1.00000 Atm.
 Atom     1 has atomic number  1 and mass   1.00783

 Molecular mass:    21.01405 amu.
 Principal axes and moments of inertia in atomic units:
                           1         2         3
     Eigenvalues --     0.00000  67.58452  67.58452
           X            1.00000  -0.00000   0.00000
           Y            0.00000   1.00000   0.00000
           Z            0.00000   0.00000   1.00000
 This molecule is a prolate symmetric top.
 Rotational symmetry number  1.
 Rotational temperature (Kelvin)      1.28156
 Rotational constant (GHZ):          26.703469
 Zero-point vibrational energy      27531.1 (Joules/Mol)
                                    6.58008 (Kcal/Mol)
 Warning -- explicit consideration of   1 degrees of freedom as
           vibrations may cause significant error
 Vibrational temperatures:    176.10  2031.90  2196.05  2218.40
          (Kelvin)

 Zero-point correction=                           0.010486 (Hartree/Particle)
 Thermal correction to Energy=                    0.013555
 Thermal correction to Enthalpy=                  0.014499
 Thermal correction to Gibbs Free Energy=        -0.010380
 Sum of electronic and zero-point Energies=           -100.888798
 Sum of electronic and thermal Energies=              -100.885729
 Sum of electronic and thermal Enthalpies=            -100.884785
 Sum of electronic and thermal Free Energies=         -100.909663

                     E (Thermal)             CV                S
                      KCal/Mol        Cal/Mol-Kelvin    Cal/Mol-Kelvin
 Total                    8.506              7.133             52.362
 Electronic               0.000              0.000              1.377
 Translational            0.889              2.981             35.068
 Rotational               0.592              1.987             12.817
 Vibrational              7.025              2.165              3.100
 Vibration     1          0.610              1.930              3.062

 Normal termination of Gaussian 16 at Fri Aug 22 18:09:36 2025.
