 Gaussian 16, Revision C.01,
 Gaussian 16:  ES64L-G16RevC.01  3-Jul-2019

 -----------------------------------------
 # sp b3lyp/6-311g** Force nosymm scf=(qc)
 -----------------------------------------

 -------------------
 Title Card Required
 -------------------
 Symbolic Z-matrix:
 Charge =  0 Multiplicity = 2

                          Input orientation:
 ---------------------------------------------------------------------
 Center     Atomic      Atomic             Coordinates (Angstroms)
 Number     Number       Type             X           Y           Z
 ---------------------------------------------------------------------
      1          1           0        0.000000    0.000000    0.000000
      2          1           0       -3.550000    0.000000    0.000000
      3          9           0        1.550000    0.000000    0.000000
 ---------------------------------------------------------------------

 SCF Done:  E(UB3LYP) =  -100.843975574     a.u. after    9 cycles

 Alpha  occ. eigenvalues --  -24.64401  -1.09624  -0.42775  -0.36376  -0.36376
 Alpha  occ. eigenvalues --   -0.33958
 Alpha virt. eigenvalues --   -0.15508   0.20248   0.27663   0.93818   0.93818
 Alpha virt. eigenvalues --    1.02572   1.07709   1.23553   1.23553   1.23576
 Alpha virt. eigenvalues --    1.30694   1.30694   1.73434   2.13194   2.18430

  Beta  occ. eigenvalues --  -24.64245  -1.09207  -0.42434  -0.36227  -0.36227
  Beta virt. eigenvalues --   -0.15997  -0.06697   0.22851   0.38130   0.93746
  Beta virt. eigenvalues --    0.93746   1.02853   1.07657   1.29849   1.29849
  Beta virt. eigenvalues --    1.45750   1.46195   1.46195   1.73057   2.16561

 Mulliken charges and spin densities:
               1          2
     1  H    0.343533  -0.047765
     2  H    0.001811   0.998076
     3  F   -0.345344   0.049689
 Sum of Mulliken charges =  -0.00000   1.00000

 Dipole moment (field-independent basis, Debye):
    X=             -2.6556    Y=             -0.0000    Z=              0.0000  Tot=              2.6556
 Quadrupole moment (field-independent basis, Debye-Ang):
   XX=            -10.0708   YY=             -7.3482   ZZ=             -7.3482
   XY=             -0.0000   XZ=              0.0000   YZ=             -0.0000

  Exact polarizability:      16.924      -0.000       2.165       0.000       0.000       2.165
 Approx polarizability:      32.645      -0.000       2.086       0.000      -0.000       2.086

 ******    2 imaginary frequencies (negative Signs) ******

                      1                      2                      3
                      A                      A                      A
 Frequencies --  -1385.2075               -81.7905               977.0693
 Red. masses --      1.0571                 1.0545                 1.0303
 Frc consts  --      1.1951                 0.0042                 0.5795
 IR Inten    --     13.7175                 0.1561               113.1144

                      4
                      A
 Frequencies --    977.0693
 Red. masses --      1.0303
 Frc consts  --      0.5795
 IR Inten    --    113.1144

 - Thermochemistry -
 -------------------
 Temperature   298.150 Kelvin.  Pressure   1.00000 Atm.
 Atom     1 has atomic number  1 and mass   1.00783

 Molecular mass:    21.01405 amu.
 Principal axes and moments of inertia in atomic units:
                           1         2         3
     Eigenvalues --     0.00000  94.62372  94.62372
           X            1.00000  -0.00000   0.00000
           Y            0.00000   1.00000   0.00000
           Z            0.00000   0.00000   1.00000
 This molecule is a prolate symmetric top.
 Rotational symmetry number  1.
 Rotational temperature (Kelvin)      0.91535
 Rotational constant (GHZ):          19.072820
    2 imaginary frequencies ignored.
 Zero-point vibrational energy      11688.3 (Joules/Mol)
                                    2.79358 (Kcal/Mol)
 Vibrational temperatures:   1405.78  1405.78
          (Kelvin)

 Zero-point correction=                           0.004452 (Hartree/Particle)
 Thermal correction to Energy=                    0.006893
 Thermal correction to Enthalpy=                  0.007837
 Thermal correction to Gibbs Free Energy=        -0.015984
 Sum of electronic and zero-point Energies=           -100.839524
 Sum of electronic and thermal Energies=              -100.837083
 Sum of electronic and thermal Enthalpies=            -100.836139
 Sum of electronic and thermal Free Energies=         -100.859960

                     E (Thermal)             CV                S
                      KCal/Mol        Cal/Mol-Kelvin    Cal/Mol-Kelvin
 Total                    4.325              5.774             50.136
 Electronic               0.000              0.000              1.377
 Translational            0.889              2.981             35.068
 Rotational               0.592              1.987             13.485
 Vibrational              2.844              0.806              0.205

 Normal termination of Gaussian 16 at Fri Aug 22 16:29:30 2025.
