 Gaussian 16, Revision C.01,
 Gaussian 16:  ES64L-G16RevC.01  3-Jul-2019

 -----------------------------------------
 # sp b3lyp/6-311g** Force nosymm scf=(qc)
 -----------------------------------------

 -------------------
 Title Card Required
 -------------------
 Symbolic Z-matrix:
 Charge =  0 Multiplicity = 2

                          Input orientation:
 ---------------------------------------------------------------------
 Center     Atomic      Atomic             Coordinates (Angstroms)
 Number     Number       Type             X           Y           Z
 ---------------------------------------------------------------------
      1          1           0        0.000000    0.000000    0.000000
      2          1           0       -1.100000    0.000000    0.000000
      3          9           0        3.800000    0.000000    0.000000
 ---------------------------------------------------------------------

 SCF Done:  E(UB3LYP) =  -100.889627007     a.u. after   54 cycles

 Alpha  occ. eigenvalues --  -24.76248  -1.22140  -0.55342  -0.46522  -0.46498
 Alpha  occ. eigenvalues --   -0.37518
 Alpha virt. eigenvalues --   -0.01884   0.22134   0.36267   0.86034   0.90911
 Alpha virt. eigenvalues --    0.91630   1.01029   1.10789   1.10791   1.29668
 Alpha virt. eigenvalues --    1.59902   1.59904   2.16174   2.34126   2.55220

  Beta  occ. eigenvalues --  -24.73092  -1.13065  -0.43359  -0.43334  -0.37517
  Beta virt. eigenvalues --   -0.25990  -0.01881   0.22139   0.36285   0.92411
  Beta virt. eigenvalues --    0.93123   0.95500   1.05169   1.10789   1.10791
  Beta virt. eigenvalues --    1.29672   1.59902   1.59904   2.16177   2.34127

 Mulliken charges and spin densities:
               1          2
     1  H    0.000668  -0.000108
     2  H   -0.002171  -0.000059
     3  F    0.001503   1.000167
 Sum of Mulliken charges =   0.00000   1.00000

 Dipole moment (field-independent basis, Debye):
    X=              0.0275    Y=             -0.0000    Z=              0.0000  Tot=              0.0275
 Quadrupole moment (field-independent basis, Debye-Ang):
   XX=             -6.3207   YY=             -6.5233   ZZ=             -7.3874
   XY=              0.0000   XZ=             -0.0000   YZ=             -0.0129

  Exact polarizability:      13.841       0.000       2.540       0.000      -0.007       2.074
 Approx polarizability:      19.503       0.000       2.695      -0.000      -0.009       2.113

 ******    1 imaginary frequencies (negative Signs) ******

                      1                      2                      3
                      A                      A                      A
 Frequencies --    -58.0460              1026.7423              1528.7844
 Red. masses --      1.1085                 1.0078                 1.0094
 Frc consts  --      0.0022                 0.6260                 1.3900
 IR Inten    --      0.0634                 0.0740                 0.0014

                      4
                      A
 Frequencies --   1529.9494
 Red. masses --      1.0094
 Frc consts  --      1.3921
 IR Inten    --      0.0008

 - Thermochemistry -
 -------------------
 Temperature   298.150 Kelvin.  Pressure   1.00000 Atm.
 Atom     1 has atomic number  1 and mass   1.00783

 Molecular mass:    21.01405 amu.
 Principal axes and moments of inertia in atomic units:
                           1         2         3
     Eigenvalues --     0.00000 125.31726 125.31726
           X            1.00000  -0.00000   0.00000
           Y            0.00000   1.00000   0.00000
           Z            0.00000   0.00000   1.00000
 This molecule is a prolate symmetric top.
 Rotational symmetry number  1.
 Rotational temperature (Kelvin)      0.69116
 Rotational constant (GHZ):          14.401378
    1 imaginary frequencies ignored.
 Zero-point vibrational energy      24436.6 (Joules/Mol)
                                    5.84048 (Kcal/Mol)
 Vibrational temperatures:   1477.25  2199.58  2201.26
          (Kelvin)

 Zero-point correction=                           0.009307 (Hartree/Particle)
 Thermal correction to Energy=                    0.011710
 Thermal correction to Enthalpy=                  0.012654
 Thermal correction to Gibbs Free Energy=        -0.011385
 Sum of electronic and zero-point Energies=           -100.880320
 Sum of electronic and thermal Energies=              -100.877917
 Sum of electronic and thermal Enthalpies=            -100.876973
 Sum of electronic and thermal Free Energies=         -100.901012

                     E (Thermal)             CV                S
                      KCal/Mol        Cal/Mol-Kelvin    Cal/Mol-Kelvin
 Total                    7.348              5.452             50.594
 Electronic               0.000              0.000              1.377
 Translational            0.889              2.981             35.068
 Rotational               0.592              1.987             14.044
 Vibrational              5.867              0.484              0.105

 Normal termination of Gaussian 16 at Sat Aug 23 00:32:23 2025.
