 Gaussian 16, Revision C.01,
 Gaussian 16:  ES64L-G16RevC.01  3-Jul-2019

 -----------------------------------------
 # sp b3lyp/6-311g** Force nosymm scf=(qc)
 -----------------------------------------

 -------------------
 Title Card Required
 -------------------
 Symbolic Z-matrix:
 Charge =  0 Multiplicity = 2

                          Input orientation:
 ---------------------------------------------------------------------
 Center     Atomic      Atomic             Coordinates (Angstroms)
 Number     Number       Type             X           Y           Z
 ---------------------------------------------------------------------
      1          1           0        0.000000    0.000000    0.000000
      2          1           0       -3.800000    0.000000    0.000000
      3          9           0        3.100000    0.000000    0.000000
 ---------------------------------------------------------------------

 SCF Done:  E(UB3LYP) =  -100.760282478     a.u. after   22 cycles

 Alpha  occ. eigenvalues --  -24.74415  -1.20451  -0.53535  -0.44951  -0.44951
 Alpha  occ. eigenvalues --   -0.32436
 Alpha virt. eigenvalues --   -0.07525   0.23948   0.36389   0.89007   0.92077
 Alpha virt. eigenvalues --    0.92077   1.03341   1.25062   1.25062   1.25109
 Alpha virt. eigenvalues --    1.44759   1.44759   1.45095   2.14527   2.40997

  Beta  occ. eigenvalues --  -24.71364  -1.11703  -0.41897  -0.41897  -0.33491
  Beta virt. eigenvalues --   -0.24959  -0.06106   0.23781   0.38114   0.93546
  Beta virt. eigenvalues --    0.93546   0.97816   1.07138   1.23853   1.23853
  Beta virt. eigenvalues --    1.24047   1.46385   1.46562   1.46562   2.14722

 Mulliken charges and spin densities:
               1          2
     1  H    0.030218  -0.965730
     2  H    0.000175   0.999008
     3  F   -0.030393   0.966722
 Sum of Mulliken charges =  -0.00000   1.00000

 Dipole moment (field-independent basis, Debye):
    X=             -0.4872    Y=              0.0000    Z=              0.0000  Tot=              0.4872
 Quadrupole moment (field-independent basis, Debye-Ang):
   XX=             -8.1339   YY=             -7.6099   ZZ=             -7.6099
   XY=             -0.0000   XZ=             -0.0000   YZ=              0.0000

  Exact polarizability:      30.335      -0.000       2.028      -0.000       0.000       2.028
 Approx polarizability:      29.532      -0.000       1.928      -0.000      -0.000       1.928

 ******    2 imaginary frequencies (negative Signs) ******

                      1                      2                      3
                      A                      A                      A
 Frequencies --   -330.2482               -85.2962               112.8291
 Red. masses --      1.0507                 1.0609                 1.0206
 Frc consts  --      0.0675                 0.0045                 0.0077
 IR Inten    --     32.8032                 0.2071                 0.8656

                      4
                      A
 Frequencies --    112.8291
 Red. masses --      1.0206
 Frc consts  --      0.0077
 IR Inten    --      0.8656

 - Thermochemistry -
 -------------------
 Temperature   298.150 Kelvin.  Pressure   1.00000 Atm.
 Atom     1 has atomic number  1 and mass   1.00783

 Molecular mass:    21.01405 amu.
 Principal axes and moments of inertia in atomic units:
                           1         2         3
     Eigenvalues --     0.00000 188.67458 188.67458
           X            1.00000  -0.00000   0.00000
           Y            0.00000   1.00000   0.00000
           Z            0.00000   0.00000   1.00000
 This molecule is a prolate symmetric top.
 Rotational symmetry number  1.
 Rotational temperature (Kelvin)      0.45907
 Rotational constant (GHZ):           9.565365
    2 imaginary frequencies ignored.
 Zero-point vibrational energy       1349.7 (Joules/Mol)
                                    0.32259 (Kcal/Mol)
 Warning -- explicit consideration of   2 degrees of freedom as
           vibrations may cause significant error
 Vibrational temperatures:    162.34   162.34
          (Kelvin)

 Zero-point correction=                           0.000514 (Hartree/Particle)
 Thermal correction to Energy=                    0.004295
 Thermal correction to Enthalpy=                  0.005239
 Thermal correction to Gibbs Free Energy=        -0.022195
 Sum of electronic and zero-point Energies=           -100.759768
 Sum of electronic and thermal Energies=              -100.755987
 Sum of electronic and thermal Enthalpies=            -100.755043
 Sum of electronic and thermal Free Energies=         -100.782478

                     E (Thermal)             CV                S
                      KCal/Mol        Cal/Mol-Kelvin    Cal/Mol-Kelvin
 Total                    2.695              8.846             57.741
 Electronic               0.000              0.000              1.377
 Translational            0.889              2.981             35.068
 Rotational               0.592              1.987             14.857
 Vibrational              1.214              3.878              6.439
 Vibration     1          0.607              1.939              3.220
 Vibration     2          0.607              1.939              3.220

 Normal termination of Gaussian 16 at Fri Aug 22 19:56:38 2025.
