 Gaussian 16, Revision C.01,
 Gaussian 16:  ES64L-G16RevC.01  3-Jul-2019

 -----------------------------------------
 # sp b3lyp/6-311g** Force nosymm scf=(qc)
 -----------------------------------------

 -------------------
 Title Card Required
 -------------------
 Symbolic Z-matrix:
 Charge =  0 Multiplicity = 2

                          Input orientation:
 ---------------------------------------------------------------------
 Center     Atomic      Atomic             Coordinates (Angstroms)
 Number     Number       Type             X           Y           Z
 ---------------------------------------------------------------------
      1          1           0        0.000000    0.000000    0.000000
      2          1           0       -1.450000    0.000000    0.000000
      3          9           0        1.100000    0.000000    0.000000
 ---------------------------------------------------------------------

 SCF Done:  E(UB3LYP) =  -100.952494096     a.u. after    6 cycles

 Alpha  occ. eigenvalues --  -24.63512  -1.13609  -0.51438  -0.37551  -0.37551
 Alpha  occ. eigenvalues --   -0.37442
 Alpha virt. eigenvalues --    0.05069   0.20548   0.31792   0.93658   0.93658
 Alpha virt. eigenvalues --    0.99946   1.14361   1.14361   1.14747   1.42531
 Alpha virt. eigenvalues --    1.42531   1.53604   1.98006   2.33230   2.39765

  Beta  occ. eigenvalues --  -24.63066  -1.12490  -0.48613  -0.37150  -0.37150
  Beta virt. eigenvalues --   -0.17704   0.07983   0.25171   0.35374   0.93917
  Beta virt. eigenvalues --    0.93917   1.00934   1.22786   1.24001   1.24001
  Beta virt. eigenvalues --    1.47291   1.47291   1.56123   2.09319   2.32950

 Mulliken charges and spin densities:
               1          2
     1  H    0.301395  -0.019954
     2  H    0.044751   0.894653
     3  F   -0.346145   0.125301
 Sum of Mulliken charges =   0.00000   1.00000

 Dipole moment (field-independent basis, Debye):
    X=             -2.5013    Y=             -0.0000    Z=             -0.0000  Tot=              2.5013
 Quadrupole moment (field-independent basis, Debye-Ang):
   XX=             -7.8086   YY=             -6.9025   ZZ=             -6.9025
   XY=              0.0000   XZ=             -0.0000   YZ=             -0.0000

  Exact polarizability:      16.340       0.000       2.492      -0.000       0.000       2.492
 Approx polarizability:      19.128       0.000       2.479      -0.000       0.000       2.479

 ******    1 imaginary frequencies (negative Signs) ******

                      1                      2                      3
                      A                      A                      A
 Frequencies --   -718.0976              1065.4516              1065.4516
 Red. masses --      1.0178                 1.0216                 1.0216
 Frc consts  --      0.3092                 0.6833                 0.6833
 IR Inten    --     12.6195                80.4561                80.4561

                      4
                      A
 Frequencies --   1422.1941
 Red. masses --      1.0967
 Frc consts  --      1.3069
 IR Inten    --    128.4816

 - Thermochemistry -
 -------------------
 Temperature   298.150 Kelvin.  Pressure   1.00000 Atm.
 Atom     1 has atomic number  1 and mass   1.00783

 Molecular mass:    21.01405 amu.
 Principal axes and moments of inertia in atomic units:
                           1         2         3
     Eigenvalues --     0.00000  25.45780  25.45780
           X            1.00000  -0.00000   0.00000
           Y            0.00000   1.00000   0.00000
           Z            0.00000   0.00000   1.00000
 This molecule is a prolate symmetric top.
 Rotational symmetry number  1.
 Rotational temperature (Kelvin)      3.40226
 Rotational constant (GHZ):          70.891490
    1 imaginary frequencies ignored.
 Zero-point vibrational energy      21252.2 (Joules/Mol)
                                    5.07941 (Kcal/Mol)
 Vibrational temperatures:   1532.95  1532.95  2046.22
          (Kelvin)

 Zero-point correction=                           0.008095 (Hartree/Particle)
 Thermal correction to Energy=                    0.010519
 Thermal correction to Enthalpy=                  0.011463
 Thermal correction to Gibbs Free Energy=        -0.011097
 Sum of electronic and zero-point Energies=           -100.944400
 Sum of electronic and thermal Energies=              -100.941975
 Sum of electronic and thermal Enthalpies=            -100.941031
 Sum of electronic and thermal Free Energies=         -100.963591

                     E (Thermal)             CV                S
                      KCal/Mol        Cal/Mol-Kelvin    Cal/Mol-Kelvin
 Total                    6.601              5.688             47.482
 Electronic               0.000              0.000              1.377
 Translational            0.889              2.981             35.068
 Rotational               0.592              1.987             10.876
 Vibrational              5.120              0.720              0.160

 Normal termination of Gaussian 16 at Fri Aug 22 16:04:57 2025.
