 Gaussian 16, Revision C.01,
 Gaussian 16:  ES64L-G16RevC.01  3-Jul-2019

 -----------------------------------------
 # sp b3lyp/6-311g** Force nosymm scf=(qc)
 -----------------------------------------

 -------------------
 Title Card Required
 -------------------
 Symbolic Z-matrix:
 Charge =  0 Multiplicity = 2

                          Input orientation:
 ---------------------------------------------------------------------
 Center     Atomic      Atomic             Coordinates (Angstroms)
 Number     Number       Type             X           Y           Z
 ---------------------------------------------------------------------
      1          1           0        0.000000    0.000000    0.000000
      2          1           0       -2.800000    0.000000    0.000000
      3          9           0        2.500000    0.000000    0.000000
 ---------------------------------------------------------------------

 SCF Done:  E(UB3LYP) =  -100.769032288     a.u. after   24 cycles

 Alpha  occ. eigenvalues --  -24.71747  -1.17959  -0.50847  -0.42713  -0.42713
 Alpha  occ. eigenvalues --   -0.33389
 Alpha virt. eigenvalues --   -0.11248   0.24413   0.33894   0.89927   0.93617
 Alpha virt. eigenvalues --    0.93617   1.06510   1.24181   1.24181   1.25756
 Alpha virt. eigenvalues --    1.39416   1.39416   1.43721   2.15138   2.34534

  Beta  occ. eigenvalues --  -24.68906  -1.09870  -0.39880  -0.39880  -0.35347
  Beta virt. eigenvalues --   -0.23362  -0.08480   0.25135   0.35939   0.94980
  Beta virt. eigenvalues --    0.94980   0.96625   1.09118   1.22184   1.22184
  Beta virt. eigenvalues --    1.29918   1.43553   1.43553   1.44056   2.14244

 Mulliken charges and spin densities:
               1          2
     1  H    0.084411  -0.885211
     2  H    0.005279   0.987249
     3  F   -0.089689   0.897962
 Sum of Mulliken charges =  -0.00000   1.00000

 Dipole moment (field-independent basis, Debye):
    X=             -1.2113    Y=              0.0000    Z=             -0.0000  Tot=              1.2113
 Quadrupole moment (field-independent basis, Debye-Ang):
   XX=             -9.0555   YY=             -7.5920   ZZ=             -7.5920
   XY=              0.0000   XZ=             -0.0000   YZ=              0.0000

  Exact polarizability:      37.071       0.000       2.020      -0.000       0.000       2.020
 Approx polarizability:      42.776       0.000       1.919      -0.000      -0.000       1.919

 ******    2 imaginary frequencies (negative Signs) ******

                      1                      2                      3
                      A                      A                      A
 Frequencies --   -690.2317              -264.7891               272.6651
 Red. masses --      1.0363                 1.0760                 1.0194
 Frc consts  --      0.2909                 0.0445                 0.0447
 IR Inten    --     70.3576                 8.0056                 6.3108

                      4
                      A
 Frequencies --    272.6651
 Red. masses --      1.0194
 Frc consts  --      0.0447
 IR Inten    --      6.3108

 - Thermochemistry -
 -------------------
 Temperature   298.150 Kelvin.  Pressure   1.00000 Atm.
 Atom     1 has atomic number  1 and mass   1.00783

 Molecular mass:    21.01405 amu.
 Principal axes and moments of inertia in atomic units:
                           1         2         3
     Eigenvalues --     0.00000 113.08855 113.08855
           X            1.00000  -0.00000   0.00000
           Y            0.00000   1.00000   0.00000
           Z            0.00000   0.00000   1.00000
 This molecule is a prolate symmetric top.
 Rotational symmetry number  1.
 Rotational temperature (Kelvin)      0.76589
 Rotational constant (GHZ):          15.958656
    2 imaginary frequencies ignored.
 Zero-point vibrational energy       3261.8 (Joules/Mol)
                                    0.77959 (Kcal/Mol)
 Warning -- explicit consideration of   2 degrees of freedom as
           vibrations may cause significant error
 Vibrational temperatures:    392.30   392.30
          (Kelvin)

 Zero-point correction=                           0.001242 (Hartree/Particle)
 Thermal correction to Energy=                    0.004514
 Thermal correction to Enthalpy=                  0.005458
 Thermal correction to Gibbs Free Energy=        -0.019935
 Sum of electronic and zero-point Energies=           -100.767790
 Sum of electronic and thermal Energies=              -100.764519
 Sum of electronic and thermal Enthalpies=            -100.763574
 Sum of electronic and thermal Free Energies=         -100.788967

                     E (Thermal)             CV                S
                      KCal/Mol        Cal/Mol-Kelvin    Cal/Mol-Kelvin
 Total                    2.832              8.415             53.443
 Electronic               0.000              0.000              1.377
 Translational            0.889              2.981             35.068
 Rotational               0.592              1.987             13.840
 Vibrational              1.351              3.447              3.159
 Vibration     1          0.676              1.724              1.579
 Vibration     2          0.676              1.724              1.579

 Normal termination of Gaussian 16 at Fri Aug 22 17:45:33 2025.
