 Gaussian 16, Revision C.01,
 Gaussian 16:  ES64L-G16RevC.01  3-Jul-2019

 -----------------------------------------
 # sp b3lyp/6-311g** Force nosymm scf=(qc)
 -----------------------------------------

 -------------------
 Title Card Required
 -------------------
 Symbolic Z-matrix:
 Charge =  0 Multiplicity = 2

                          Input orientation:
 ---------------------------------------------------------------------
 Center     Atomic      Atomic             Coordinates (Angstroms)
 Number     Number       Type             X           Y           Z
 ---------------------------------------------------------------------
      1          1           0        0.000000    0.000000    0.000000
      2          1           0       -3.950000    0.000000    0.000000
      3          9           0        3.000000    0.000000    0.000000
 ---------------------------------------------------------------------

 SCF Done:  E(UB3LYP) =  -100.760830431     a.u. after   22 cycles

 Alpha  occ. eigenvalues --  -24.74074  -1.20135  -0.53193  -0.44665  -0.44665
 Alpha  occ. eigenvalues --   -0.32457
 Alpha virt. eigenvalues --   -0.07740   0.23886   0.36253   0.89337   0.92282
 Alpha virt. eigenvalues --    0.92282   1.03868   1.25040   1.25040   1.25061
 Alpha virt. eigenvalues --    1.44362   1.44362   1.45141   2.14369   2.40873

  Beta  occ. eigenvalues --  -24.71047  -1.11461  -0.41636  -0.41636  -0.33722
  Beta virt. eigenvalues --   -0.24767  -0.05944   0.23757   0.38136   0.93744
  Beta virt. eigenvalues --    0.93744   0.98014   1.07574   1.23601   1.23601
  Beta virt. eigenvalues --    1.23982   1.46602   1.46727   1.46727   2.14405

 Mulliken charges and spin densities:
               1          2
     1  H    0.037204  -0.958400
     2  H    0.000138   0.999315
     3  F   -0.037343   0.959085
 Sum of Mulliken charges =  -0.00000   1.00000

 Dipole moment (field-independent basis, Debye):
    X=             -0.5778    Y=              0.0000    Z=              0.0000  Tot=              0.5778
 Quadrupole moment (field-independent basis, Debye-Ang):
   XX=             -8.3475   YY=             -7.6049   ZZ=             -7.6049
   XY=              0.0000   XZ=              0.0000   YZ=             -0.0000

  Exact polarizability:      30.845       0.000       2.027       0.000      -0.000       2.027
 Approx polarizability:      31.776       0.000       1.927       0.000       0.000       1.927

 ******    2 imaginary frequencies (negative Signs) ******

                      1                      2                      3
                      A                      A                      A
 Frequencies --   -364.2978               -72.8931               126.7601
 Red. masses --      1.0540                 1.0576                 1.0216
 Frc consts  --      0.0824                 0.0033                 0.0097
 IR Inten    --     39.6175                 0.0847                 1.3332

                      4
                      A
 Frequencies --    126.7601
 Red. masses --      1.0216
 Frc consts  --      0.0097
 IR Inten    --      1.3332

 - Thermochemistry -
 -------------------
 Temperature   298.150 Kelvin.  Pressure   1.00000 Atm.
 Atom     1 has atomic number  1 and mass   1.00783

 Molecular mass:    21.01405 amu.
 Principal axes and moments of inertia in atomic units:
                           1         2         3
     Eigenvalues --     0.00000 189.14367 189.14367
           X            1.00000  -0.00000   0.00000
           Y            0.00000   1.00000   0.00000
           Z            0.00000   0.00000   1.00000
 This molecule is a prolate symmetric top.
 Rotational symmetry number  1.
 Rotational temperature (Kelvin)      0.45793
 Rotational constant (GHZ):           9.541642
    2 imaginary frequencies ignored.
 Zero-point vibrational energy       1516.4 (Joules/Mol)
                                    0.36243 (Kcal/Mol)
 Warning -- explicit consideration of   2 degrees of freedom as
           vibrations may cause significant error
 Vibrational temperatures:    182.38   182.38
          (Kelvin)

 Zero-point correction=                           0.000578 (Hartree/Particle)
 Thermal correction to Energy=                    0.004307
 Thermal correction to Enthalpy=                  0.005252
 Thermal correction to Gibbs Free Energy=        -0.021972
 Sum of electronic and zero-point Energies=           -100.760253
 Sum of electronic and thermal Energies=              -100.756523
 Sum of electronic and thermal Enthalpies=            -100.755579
 Sum of electronic and thermal Free Energies=         -100.782802

                     E (Thermal)             CV                S
                      KCal/Mol        Cal/Mol-Kelvin    Cal/Mol-Kelvin
 Total                    2.703              8.821             57.296
 Electronic               0.000              0.000              1.377
 Translational            0.889              2.981             35.068
 Rotational               0.592              1.987             14.862
 Vibrational              1.222              3.853              5.989
 Vibration     1          0.611              1.926              2.995
 Vibration     2          0.611              1.926              2.995

 Normal termination of Gaussian 16 at Fri Aug 22 19:33:36 2025.
