 Gaussian 16, Revision C.01,
 Gaussian 16:  ES64L-G16RevC.01  3-Jul-2019

 -----------------------------------------
 # sp b3lyp/6-311g** Force nosymm scf=(qc)
 -----------------------------------------

 -------------------
 Title Card Required
 -------------------
 Symbolic Z-matrix:
 Charge =  0 Multiplicity = 2

                          Input orientation:
 ---------------------------------------------------------------------
 Center     Atomic      Atomic             Coordinates (Angstroms)
 Number     Number       Type             X           Y           Z
 ---------------------------------------------------------------------
      1          1           0        0.000000    0.000000    0.000000
      2          1           0       -3.300000    0.000000    0.000000
      3          9           0        2.150000    0.000000    0.000000
 ---------------------------------------------------------------------

 SCF Done:  E(UB3LYP) =  -100.778248979     a.u. after   17 cycles

 Alpha  occ. eigenvalues --  -24.66707  -1.08377  -0.38104  -0.38104  -0.37102
 Alpha  occ. eigenvalues --   -0.33247
 Alpha virt. eigenvalues --   -0.21603   0.20677   0.27942   0.91005   0.95685
 Alpha virt. eigenvalues --    0.95685   1.08296   1.21532   1.21532   1.24153
 Alpha virt. eigenvalues --    1.24153   1.24330   1.44798   2.11732   2.14917

  Beta  occ. eigenvalues --  -24.69271  -1.15596  -0.48310  -0.40643  -0.40643
  Beta virt. eigenvalues --   -0.13040  -0.04755   0.30906   0.39923   0.88551
  Beta virt. eigenvalues --    0.94696   0.94696   1.06137   1.37050   1.37050
  Beta virt. eigenvalues --    1.47557   1.47557   1.47769   1.53974   2.31999

 Mulliken charges and spin densities:
               1          2
     1  H    0.155771   0.809074
     2  H    0.002053   0.997997
     3  F   -0.157824  -0.807071
 Sum of Mulliken charges =   0.00000   1.00000

 Dipole moment (field-independent basis, Debye):
    X=             -1.7270    Y=              0.0000    Z=             -0.0000  Tot=              1.7270
 Quadrupole moment (field-independent basis, Debye-Ang):
   XX=             -9.9168   YY=             -7.5071   ZZ=             -7.5071
   XY=              0.0000   XZ=             -0.0000   YZ=             -0.0000

  Exact polarizability:      29.446       0.000       2.045      -0.000       0.000       2.045
 Approx polarizability:      40.946       0.000       1.933      -0.000      -0.000       1.933

 ******    1 imaginary frequencies (negative Signs) ******

                      1                      2                      3
                      A                      A                      A
 Frequencies --   -908.1823                92.0122               380.6014
 Red. masses --      1.0599                 1.0516                 1.0239
 Frc consts  --      0.5151                 0.0052                 0.0874
 IR Inten    --     96.6349                 0.5510                22.6134

                      4
                      A
 Frequencies --    380.6014
 Red. masses --      1.0239
 Frc consts  --      0.0874
 IR Inten    --     22.6134

 - Thermochemistry -
 -------------------
 Temperature   298.150 Kelvin.  Pressure   1.00000 Atm.
 Atom     1 has atomic number  1 and mass   1.00783

 Molecular mass:    21.01405 amu.
 Principal axes and moments of inertia in atomic units:
                           1         2         3
     Eigenvalues --     0.00000 113.56619 113.56619
           X            1.00000  -0.00000   0.00000
           Y            0.00000   1.00000   0.00000
           Z            0.00000   0.00000   1.00000
 This molecule is a prolate symmetric top.
 Rotational symmetry number  1.
 Rotational temperature (Kelvin)      0.76267
 Rotational constant (GHZ):          15.891536
    1 imaginary frequencies ignored.
 Zero-point vibrational energy       5103.4 (Joules/Mol)
                                    1.21973 (Kcal/Mol)
 Warning -- explicit consideration of   3 degrees of freedom as
           vibrations may cause significant error
 Vibrational temperatures:    132.38   547.60   547.60
          (Kelvin)

 Zero-point correction=                           0.001944 (Hartree/Particle)
 Thermal correction to Energy=                    0.005712
 Thermal correction to Enthalpy=                  0.006656
 Thermal correction to Gibbs Free Energy=        -0.019944
 Sum of electronic and zero-point Energies=           -100.776305
 Sum of electronic and thermal Energies=              -100.772537
 Sum of electronic and thermal Enthalpies=            -100.771593
 Sum of electronic and thermal Free Energies=         -100.798193

                     E (Thermal)             CV                S
                      KCal/Mol        Cal/Mol-Kelvin    Cal/Mol-Kelvin
 Total                    3.584              9.946             55.984
 Electronic               0.000              0.000              1.377
 Translational            0.889              2.981             35.068
 Rotational               0.592              1.987             13.848
 Vibrational              2.103              4.978              5.690
 Vibration     1          0.602              1.955              3.617
 Vibration     2          0.750              1.512              1.037
 Vibration     3          0.750              1.512              1.037

 Normal termination of Gaussian 16 at Fri Aug 22 17:08:56 2025.
