 Gaussian 16, Revision C.01,
 Gaussian 16:  ES64L-G16RevC.01  3-Jul-2019

 -----------------------------------------
 # sp b3lyp/6-311g** Force nosymm scf=(qc)
 -----------------------------------------

 -------------------
 Title Card Required
 -------------------
 Symbolic Z-matrix:
 Charge =  0 Multiplicity = 2

                          Input orientation:
 ---------------------------------------------------------------------
 Center     Atomic      Atomic             Coordinates (Angstroms)
 Number     Number       Type             X           Y           Z
 ---------------------------------------------------------------------
      1          1           0        0.000000    0.000000    0.000000
      2          1           0       -0.950000    0.000000    0.000000
      3          9           0        1.500000    0.000000    0.000000
 ---------------------------------------------------------------------

 SCF Done:  E(UB3LYP) =  -100.928990071     a.u. after    8 cycles

 Alpha  occ. eigenvalues --  -24.69466  -1.16562  -0.53528  -0.41294  -0.41294
 Alpha  occ. eigenvalues --   -0.41012
 Alpha virt. eigenvalues --    0.04618   0.19974   0.36264   0.89637   0.89637
 Alpha virt. eigenvalues --    0.98212   1.07441   1.07441   1.20948   1.65556
 Alpha virt. eigenvalues --    1.66853   1.66853   2.20885   2.33774   2.54395

  Beta  occ. eigenvalues --  -24.67094  -1.10079  -0.44820  -0.38995  -0.38995
  Beta virt. eigenvalues --   -0.23399   0.06790   0.21364   0.38350   0.90668
  Beta virt. eigenvalues --    0.90668   1.03959   1.10362   1.10362   1.24509
  Beta virt. eigenvalues --    1.68594   1.68594   1.69059   2.23037   2.37339

 Mulliken charges and spin densities:
               1          2
     1  H    0.150511  -0.085719
     2  H    0.044043   0.365118
     3  F   -0.194554   0.720601
 Sum of Mulliken charges =   0.00000   1.00000

 Dipole moment (field-independent basis, Debye):
    X=             -1.6262    Y=              0.0000    Z=             -0.0000  Tot=              1.6262
 Quadrupole moment (field-independent basis, Debye-Ang):
   XX=             -7.2467   YY=             -6.9746   ZZ=             -6.9746
   XY=              0.0000   XZ=             -0.0000   YZ=              0.0000

  Exact polarizability:      26.553       0.000       2.363      -0.000       0.000       2.363
 Approx polarizability:      37.612       0.000       2.366      -0.000       0.000       2.366

 ******    1 imaginary frequencies (negative Signs) ******

                      1                      2                      3
                      A                      A                      A
 Frequencies --  -1350.7040              1201.7248              1201.7248
 Red. masses --      1.0722                 1.0134                 1.0134
 Frc consts  --      1.1525                 0.8622                 0.8622
 IR Inten    --    636.8437                 3.3612                 3.3612

                      4
                      A
 Frequencies --   1440.8841
 Red. masses --      1.0398
 Frc consts  --      1.2720
 IR Inten    --    407.8680

 - Thermochemistry -
 -------------------
 Temperature   298.150 Kelvin.  Pressure   1.00000 Atm.
 Atom     1 has atomic number  1 and mass   1.00783

 Molecular mass:    21.01405 amu.
 Principal axes and moments of inertia in atomic units:
                           1         2         3
     Eigenvalues --     0.00000  27.00772  27.00772
           X            1.00000  -0.00000   0.00000
           Y            0.00000   1.00000   0.00000
           Z            0.00000   0.00000   1.00000
 This molecule is a prolate symmetric top.
 Rotational symmetry number  1.
 Rotational temperature (Kelvin)      3.20701
 Rotational constant (GHZ):          66.823164
    1 imaginary frequencies ignored.
 Zero-point vibrational energy      22994.2 (Joules/Mol)
                                    5.49575 (Kcal/Mol)
 Vibrational temperatures:   1729.01  1729.01  2073.11
          (Kelvin)

 Zero-point correction=                           0.008758 (Hartree/Particle)
 Thermal correction to Energy=                    0.011158
 Thermal correction to Enthalpy=                  0.012102
 Thermal correction to Gibbs Free Energy=        -0.010484
 Sum of electronic and zero-point Energies=           -100.920232
 Sum of electronic and thermal Energies=              -100.917832
 Sum of electronic and thermal Enthalpies=            -100.916888
 Sum of electronic and thermal Free Energies=         -100.939474

                     E (Thermal)             CV                S
                      KCal/Mol        Cal/Mol-Kelvin    Cal/Mol-Kelvin
 Total                    7.002              5.467             47.536
 Electronic               0.000              0.000              1.377
 Translational            0.889              2.981             35.068
 Rotational               0.592              1.987             10.994
 Vibrational              5.521              0.499              0.097

 Normal termination of Gaussian 16 at Fri Aug 22 16:24:34 2025.
