 Gaussian 16, Revision C.01,
 Gaussian 16:  ES64L-G16RevC.01  3-Jul-2019

 -----------------------------------------
 # sp b3lyp/6-311g** Force nosymm scf=(qc)
 -----------------------------------------

 -------------------
 Title Card Required
 -------------------
 Symbolic Z-matrix:
 Charge =  0 Multiplicity = 2

                          Input orientation:
 ---------------------------------------------------------------------
 Center     Atomic      Atomic             Coordinates (Angstroms)
 Number     Number       Type             X           Y           Z
 ---------------------------------------------------------------------
      1          1           0        0.000000    0.000000    0.000000
      2          1           0       -0.850000    0.000000    0.000000
      3          9           0        3.800000    0.000000    0.000000
 ---------------------------------------------------------------------

 SCF Done:  E(UB3LYP) =  -100.927702640     a.u. after  133 cycles

 Alpha  occ. eigenvalues --  -24.76231  -1.22118  -0.55321  -0.46501  -0.46477
 Alpha  occ. eigenvalues --   -0.41276
 Alpha virt. eigenvalues --    0.03685   0.20429   0.43198   0.86058   0.90935
 Alpha virt. eigenvalues --    0.91862   1.01164   1.08229   1.08231   1.48915
 Alpha virt. eigenvalues --    1.75567   1.75569   2.11204   2.37692   2.87597

  Beta  occ. eigenvalues --  -24.73075  -1.13043  -0.43340  -0.43312  -0.41272
  Beta virt. eigenvalues --   -0.25968   0.03691   0.20433   0.43225   0.92436
  Beta virt. eigenvalues --    0.93354   0.95524   1.05293   1.08228   1.08231
  Beta virt. eigenvalues --    1.48918   1.75567   1.75569   2.11211   2.37693

 Mulliken charges and spin densities:
               1          2
     1  H    0.000169  -0.000178
     2  H   -0.001979  -0.000021
     3  F    0.001810   1.000198
 Sum of Mulliken charges =   0.00000   1.00000

 Dipole moment (field-independent basis, Debye):
    X=              0.0276    Y=              0.0000    Z=             -0.0000  Tot=              0.0276
 Quadrupole moment (field-independent basis, Debye-Ang):
   XX=             -6.2970   YY=             -6.9473   ZZ=             -6.3593
   XY=              0.0000   XZ=             -0.0000   YZ=             -0.3169

  Exact polarizability:       9.532       0.000       2.081      -0.000      -0.171       2.397
 Approx polarizability:      11.577       0.000       2.166      -0.000      -0.214       2.562

 ******    1 imaginary frequencies (negative Signs) ******

                      1                      2                      3
                      A                      A                      A
 Frequencies --    -59.9845              1323.3194              1325.2610
 Red. masses --      1.1085                 1.0088                 1.0088
 Frc consts  --      0.0024                 1.0409                 1.0439
 IR Inten    --      0.0695                 0.0003                 0.0001

                      4
                      A
 Frequencies --   3135.7415
 Red. masses --      1.0078
 Frc consts  --      5.8387
 IR Inten    --      0.0505

 - Thermochemistry -
 -------------------
 Temperature   298.150 Kelvin.  Pressure   1.00000 Atm.
 Atom     1 has atomic number  1 and mass   1.00783

 Molecular mass:    21.01405 amu.
 Principal axes and moments of inertia in atomic units:
                           1         2         3
     Eigenvalues --     0.00000 117.46468 117.46468
           X            1.00000  -0.00000   0.00000
           Y            0.00000   1.00000   0.00000
           Z            0.00000   0.00000   1.00000
 This molecule is a prolate symmetric top.
 Rotational symmetry number  1.
 Rotational temperature (Kelvin)      0.73736
 Rotational constant (GHZ):          15.364118
    1 imaginary frequencies ignored.
 Zero-point vibrational energy      34597.9 (Joules/Mol)
                                    8.26910 (Kcal/Mol)
 Vibrational temperatures:   1903.96  1906.75  4511.63
          (Kelvin)

 Zero-point correction=                           0.013178 (Hartree/Particle)
 Thermal correction to Energy=                    0.015558
 Thermal correction to Enthalpy=                  0.016503
 Thermal correction to Gibbs Free Energy=        -0.007449
 Sum of electronic and zero-point Energies=           -100.914525
 Sum of electronic and thermal Energies=              -100.912144
 Sum of electronic and thermal Enthalpies=            -100.911200
 Sum of electronic and thermal Free Energies=         -100.935151

                     E (Thermal)             CV                S
                      KCal/Mol        Cal/Mol-Kelvin    Cal/Mol-Kelvin
 Total                    9.763              5.241             50.410
 Electronic               0.000              0.000              1.377
 Translational            0.889              2.981             35.068
 Rotational               0.592              1.987             13.915
 Vibrational              8.282              0.273              0.049

 Normal termination of Gaussian 16 at Sat Aug 23 00:31:14 2025.
