 Gaussian 16, Revision C.01,
 Gaussian 16:  ES64L-G16RevC.01  3-Jul-2019

 -----------------------------------------
 # sp b3lyp/6-311g** Force nosymm scf=(qc)
 -----------------------------------------

 -------------------
 Title Card Required
 -------------------
 Symbolic Z-matrix:
 Charge =  0 Multiplicity = 2

                          Input orientation:
 ---------------------------------------------------------------------
 Center     Atomic      Atomic             Coordinates (Angstroms)
 Number     Number       Type             X           Y           Z
 ---------------------------------------------------------------------
      1          1           0        0.000000    0.000000    0.000000
      2          1           0       -2.600000    0.000000    0.000000
      3          9           0        1.950000    0.000000    0.000000
 ---------------------------------------------------------------------

 SCF Done:  E(UB3LYP) =  -100.793375241     a.u. after   13 cycles

 Alpha  occ. eigenvalues --  -24.67727  -1.14032  -0.46687  -0.39319  -0.39319
 Alpha  occ. eigenvalues --   -0.34752
 Alpha virt. eigenvalues --   -0.14051   0.23673   0.30590   0.90220   0.94972
 Alpha virt. eigenvalues --    0.94972   1.06178   1.22862   1.22862   1.25174
 Alpha virt. eigenvalues --    1.34703   1.34703   1.62882   2.13900   2.28482

  Beta  occ. eigenvalues --  -24.65446  -1.07676  -0.38084  -0.37076  -0.37076
  Beta virt. eigenvalues --   -0.20474  -0.09524   0.24390   0.35115   0.91936
  Beta virt. eigenvalues --    0.95479   0.95479   1.08604   1.22575   1.22575
  Beta virt. eigenvalues --    1.41932   1.41932   1.42680   1.57127   2.13247

 Mulliken charges and spin densities:
               1          2
     1  H    0.192458  -0.693820
     2  H    0.014978   0.976620
     3  F   -0.207436   0.717200
 Sum of Mulliken charges =  -0.00000   1.00000

 Dipole moment (field-independent basis, Debye):
    X=             -2.1798    Y=              0.0000    Z=              0.0000  Tot=              2.1798
 Quadrupole moment (field-independent basis, Debye-Ang):
   XX=             -9.5470   YY=             -7.5043   ZZ=             -7.5043
   XY=              0.0000   XZ=             -0.0000   YZ=             -0.0000

  Exact polarizability:      34.737      -0.000       2.067       0.000      -0.000       2.067
 Approx polarizability:      43.691      -0.000       1.958       0.000       0.000       1.958

 ******    2 imaginary frequencies (negative Signs) ******

                      1                      2                      3
                      A                      A                      A
 Frequencies --  -1268.5353              -351.3682               533.4659
 Red. masses --      1.0481                 1.0636                 1.0218
 Frc consts  --      0.9937                 0.0774                 0.1713
 IR Inten    --    102.6460                10.4735                31.2237

                      4
                      A
 Frequencies --    533.4659
 Red. masses --      1.0218
 Frc consts  --      0.1713
 IR Inten    --     31.2237

 - Thermochemistry -
 -------------------
 Temperature   298.150 Kelvin.  Pressure   1.00000 Atm.
 Atom     1 has atomic number  1 and mass   1.00783

 Molecular mass:    21.01405 amu.
 Principal axes and moments of inertia in atomic units:
                           1         2         3
     Eigenvalues --     0.00000  80.90106  80.90106
           X            1.00000  -0.00000   0.00000
           Y            0.00000   1.00000   0.00000
           Z            0.00000   0.00000   1.00000
 This molecule is a prolate symmetric top.
 Rotational symmetry number  1.
 Rotational temperature (Kelvin)      1.07062
 Rotational constant (GHZ):          22.308004
    2 imaginary frequencies ignored.
 Zero-point vibrational energy       6381.7 (Joules/Mol)
                                    1.52526 (Kcal/Mol)
 Warning -- explicit consideration of   2 degrees of freedom as
           vibrations may cause significant error
 Vibrational temperatures:    767.54   767.54
          (Kelvin)

 Zero-point correction=                           0.002431 (Hartree/Particle)
 Thermal correction to Energy=                    0.005192
 Thermal correction to Enthalpy=                  0.006136
 Thermal correction to Gibbs Free Energy=        -0.017990
 Sum of electronic and zero-point Energies=           -100.790945
 Sum of electronic and thermal Energies=              -100.788183
 Sum of electronic and thermal Enthalpies=            -100.787239
 Sum of electronic and thermal Free Energies=         -100.811365

                     E (Thermal)             CV                S
                      KCal/Mol        Cal/Mol-Kelvin    Cal/Mol-Kelvin
 Total                    3.258              7.320             50.778
 Electronic               0.000              0.000              1.377
 Translational            0.889              2.981             35.068
 Rotational               0.592              1.987             13.174
 Vibrational              1.777              2.352              1.159
 Vibration     1          0.888              1.176              0.580
 Vibration     2          0.888              1.176              0.580

 Normal termination of Gaussian 16 at Fri Aug 22 16:53:49 2025.
