 Gaussian 16, Revision C.01,
 Gaussian 16:  ES64L-G16RevC.01  3-Jul-2019

 -----------------------------------------
 # sp b3lyp/6-311g** Force nosymm scf=(qc)
 -----------------------------------------

 -------------------
 Title Card Required
 -------------------
 Symbolic Z-matrix:
 Charge =  0 Multiplicity = 2

                          Input orientation:
 ---------------------------------------------------------------------
 Center     Atomic      Atomic             Coordinates (Angstroms)
 Number     Number       Type             X           Y           Z
 ---------------------------------------------------------------------
      1          1           0        0.000000    0.000000    0.000000
      2          1           0       -2.850000    0.000000    0.000000
      3          9           0        0.600000    0.000000    0.000000
 ---------------------------------------------------------------------

 SCF Done:  E(UB3LYP) =  -100.688015631     a.u. after    6 cycles

 Alpha  occ. eigenvalues --  -24.62716  -1.34707  -0.61018  -0.42961  -0.42961
 Alpha  occ. eigenvalues --   -0.33878
 Alpha virt. eigenvalues --    0.07979   0.25634   0.58313   0.92143   0.92143
 Alpha virt. eigenvalues --    0.93159   1.21422   1.23654   1.23654   1.39699
 Alpha virt. eigenvalues --    1.50284   1.50284   1.95646   2.14847   3.36508

  Beta  occ. eigenvalues --  -24.62714  -1.34698  -0.61012  -0.42960  -0.42960
  Beta virt. eigenvalues --   -0.06546   0.09063   0.39024   0.58330   0.92139
  Beta virt. eigenvalues --    0.92139   0.93190   1.33115   1.49786   1.49786
  Beta virt. eigenvalues --    1.50286   1.50286   1.53006   1.95360   2.44527

 Mulliken charges and spin densities:
               1          2
     1  H    0.235675   0.001630
     2  H    0.002445   0.996768
     3  F   -0.238120   0.001603
 Sum of Mulliken charges =   0.00000   1.00000

 Dipole moment (field-independent basis, Debye):
    X=             -1.4641    Y=              0.0000    Z=             -0.0000  Tot=              1.4641
 Quadrupole moment (field-independent basis, Debye-Ang):
   XX=             -6.8758   YY=             -6.5504   ZZ=             -6.5504
   XY=              0.0000   XZ=              0.0000   YZ=             -0.0000

  Exact polarizability:       4.213       0.000       2.451      -0.000       0.000       2.451
 Approx polarizability:       4.335      -0.000       2.432       0.000       0.000       2.432

 ******    2 imaginary frequencies (negative Signs) ******

                      1                      2                      3
                      A                      A                      A
 Frequencies --  -5860.3081             -5860.3081                44.0743
 Red. masses --      1.0413                 1.0413                 1.0532
 Frc consts  --     21.0701                21.0701                 0.0012
 IR Inten    --    232.8118               232.8118                 0.1093

                      4
                      A
 Frequencies --  13070.7525
 Red. masses --      1.0583
 Frc consts  --    106.5283
 IR Inten    --    103.3512

 - Thermochemistry -
 -------------------
 Temperature   298.150 Kelvin.  Pressure   1.00000 Atm.
 Atom     1 has atomic number  1 and mass   1.00783

 Molecular mass:    21.01405 amu.
 Principal axes and moments of inertia in atomic units:
                           1         2         3
     Eigenvalues --     0.00000  41.30166  41.30166
           X            1.00000  -0.00000   0.00000
           Y            0.00000   1.00000   0.00000
           Z            0.00000   0.00000   1.00000
 This molecule is a prolate symmetric top.
 Rotational symmetry number  1.
 Rotational temperature (Kelvin)      2.09711
 Rotational constant (GHZ):          43.696581
    2 imaginary frequencies ignored.
 Zero-point vibrational energy      78444.1 (Joules/Mol)
                                   18.74859 (Kcal/Mol)
 Warning -- explicit consideration of   1 degrees of freedom as
           vibrations may cause significant error
 Vibrational temperatures:     63.41 18805.90
          (Kelvin)

 Zero-point correction=                           0.029878 (Hartree/Particle)
 Thermal correction to Energy=                    0.033086
 Thermal correction to Enthalpy=                  0.034030
 Thermal correction to Gibbs Free Energy=         0.008681
 Sum of electronic and zero-point Energies=           -100.658138
 Sum of electronic and thermal Energies=              -100.654930
 Sum of electronic and thermal Enthalpies=            -100.653986
 Sum of electronic and thermal Free Energies=         -100.679334

                     E (Thermal)             CV                S
                      KCal/Mol        Cal/Mol-Kelvin    Cal/Mol-Kelvin
 Total                   20.762              6.948             53.350
 Electronic               0.000              0.000              1.377
 Translational            0.889              2.981             35.068
 Rotational               0.592              1.987             11.838
 Vibrational             19.280              1.980              5.067
 Vibration     1          0.595              1.980              5.067

 Normal termination of Gaussian 16 at Fri Aug 22 15:42:15 2025.
