 Gaussian 16, Revision C.01,
 Gaussian 16:  ES64L-G16RevC.01  3-Jul-2019

 -----------------------------------------
 # sp b3lyp/6-311g** Force nosymm scf=(qc)
 -----------------------------------------

 -------------------
 Title Card Required
 -------------------
 Symbolic Z-matrix:
 Charge =  0 Multiplicity = 2

                          Input orientation:
 ---------------------------------------------------------------------
 Center     Atomic      Atomic             Coordinates (Angstroms)
 Number     Number       Type             X           Y           Z
 ---------------------------------------------------------------------
      1          1           0        0.000000    0.000000    0.000000
      2          1           0       -1.050000    0.000000    0.000000
      3          9           0        2.450000    0.000000    0.000000
 ---------------------------------------------------------------------

 SCF Done:  E(UB3LYP) =  -100.899363311     a.u. after  164 cycles

 Alpha  occ. eigenvalues --  -24.76081  -1.21968  -0.55176  -0.46521  -0.46352
 Alpha  occ. eigenvalues --   -0.38615
 Alpha virt. eigenvalues --   -0.00503   0.21974   0.38422   0.87413   0.90893
 Alpha virt. eigenvalues --    0.92235   1.09385   1.09401   1.09838   1.34787
 Alpha virt. eigenvalues --    1.62302   1.62311   2.20348   2.35421   2.56653

  Beta  occ. eigenvalues --  -24.72972  -1.13048  -0.43488  -0.43239  -0.38413
  Beta virt. eigenvalues --   -0.26236  -0.00144   0.22187   0.38730   0.92360
  Beta virt. eigenvalues --    0.93072   0.96914   1.09591   1.09592   1.13640
  Beta virt. eigenvalues --    1.35293   1.62450   1.62458   2.20618   2.35624

 Mulliken charges and spin densities:
               1          2
     1  H   -0.004014  -0.014895
     2  H    0.009038   0.031833
     3  F   -0.005024   0.983062
 Sum of Mulliken charges =  -0.00000   1.00000

 Dipole moment (field-independent basis, Debye):
    X=             -0.1324    Y=              0.0017    Z=              0.0025  Tot=              0.1324
 Quadrupole moment (field-independent basis, Debye-Ang):
   XX=             -6.0331   YY=             -7.2076   ZZ=             -7.0767
   XY=              0.2356   XZ=              0.3431   YZ=              0.1699

  Exact polarizability:      72.420       0.290       2.167       0.097       0.079       2.225
 Approx polarizability:      28.010       0.050       2.216       0.073       0.112       2.302

 ******    1 imaginary frequencies (negative Signs) ******

                      1                      2                      3
                      A                      A                      A
 Frequencies --   -398.6944              1181.5997              1485.9092
 Red. masses --      1.1048                 1.0109                 1.0109
 Frc consts  --      0.1035                 0.8316                 1.3150
 IR Inten    --    454.3651              1074.2777                 0.7977

                      4
                      A
 Frequencies --   1522.7925
 Red. masses --      1.0109
 Frc consts  --      1.3811
 IR Inten    --      1.0346

 - Thermochemistry -
 -------------------
 Temperature   298.150 Kelvin.  Pressure   1.00000 Atm.
 Atom     1 has atomic number  1 and mass   1.00783

 Molecular mass:    21.01405 amu.
 Principal axes and moments of inertia in atomic units:
                           1         2         3
     Eigenvalues --     0.00000  59.58019  59.58019
           X            1.00000  -0.00000   0.00000
           Y            0.00000   1.00000   0.00000
           Z            0.00000   0.00000   1.00000
 This molecule is a prolate symmetric top.
 Rotational symmetry number  1.
 Rotational temperature (Kelvin)      1.45374
 Rotational constant (GHZ):          30.290962
    1 imaginary frequencies ignored.
 Zero-point vibrational energy      25063.6 (Joules/Mol)
                                    5.99034 (Kcal/Mol)
 Vibrational temperatures:   1700.06  2137.89  2190.96
          (Kelvin)

 Zero-point correction=                           0.009546 (Hartree/Particle)
 Thermal correction to Energy=                    0.011934
 Thermal correction to Enthalpy=                  0.012879
 Thermal correction to Gibbs Free Energy=        -0.010441
 Sum of electronic and zero-point Energies=           -100.889817
 Sum of electronic and thermal Energies=              -100.887429
 Sum of electronic and thermal Enthalpies=            -100.886485
 Sum of electronic and thermal Free Energies=         -100.909804

                     E (Thermal)             CV                S
                      KCal/Mol        Cal/Mol-Kelvin    Cal/Mol-Kelvin
 Total                    7.489              5.333             49.079
 Electronic               0.000              0.000              1.377
 Translational            0.889              2.981             35.068
 Rotational               0.592              1.987             12.566
 Vibrational              6.008              0.365              0.068

 Normal termination of Gaussian 16 at Fri Aug 22 17:36:53 2025.
