 Gaussian 16, Revision C.01,
 Gaussian 16:  ES64L-G16RevC.01  3-Jul-2019

 -----------------------------------------
 # sp b3lyp/6-311g** Force nosymm scf=(qc)
 -----------------------------------------

 -------------------
 Title Card Required
 -------------------
 Symbolic Z-matrix:
 Charge =  0 Multiplicity = 2

                          Input orientation:
 ---------------------------------------------------------------------
 Center     Atomic      Atomic             Coordinates (Angstroms)
 Number     Number       Type             X           Y           Z
 ---------------------------------------------------------------------
      1          1           0        0.000000    0.000000    0.000000
      2          1           0       -0.700000    0.000000    0.000000
      3          9           0        3.300000    0.000000    0.000000
 ---------------------------------------------------------------------

 SCF Done:  E(UB3LYP) =  -100.932761352     a.u. after   97 cycles

 Alpha  occ. eigenvalues --  -24.76445  -1.22279  -0.55477  -0.46702  -0.46629
 Alpha  occ. eigenvalues --   -0.44143
 Alpha virt. eigenvalues --    0.06821   0.19533   0.48238   0.85955   0.90830
 Alpha virt. eigenvalues --    0.93493   1.03275   1.08985   1.08990   1.57777
 Alpha virt. eigenvalues --    1.85888   1.85893   1.90854   2.38128   3.56979

  Beta  occ. eigenvalues --  -24.73285  -1.13197  -0.44273  -0.43461  -0.43401
  Beta virt. eigenvalues --   -0.26109   0.06850   0.19551   0.48322   0.92329
  Beta virt. eigenvalues --    0.95131   0.95416   1.07155   1.08985   1.08989
  Beta virt. eigenvalues --    1.57788   1.85888   1.85893   1.90886   2.38131

 Mulliken charges and spin densities:
               1          2
     1  H   -0.003708  -0.000785
     2  H   -0.002465   0.000033
     3  F    0.006173   1.000753
 Sum of Mulliken charges =   0.00000   1.00000

 Dipole moment (field-independent basis, Debye):
    X=              0.0653    Y=             -0.0000    Z=             -0.0000  Tot=              0.0653
 Quadrupole moment (field-independent basis, Debye-Ang):
   XX=             -6.1213   YY=             -6.8669   ZZ=             -6.0424
   XY=             -0.0000   XZ=              0.0000   YZ=             -0.1290

  Exact polarizability:       7.798       0.000       1.941       0.000      -0.069       2.383
 Approx polarizability:       8.749      -0.000       2.023       0.000      -0.087       2.577

 ******    2 imaginary frequencies (negative Signs) ******

                      1                      2                      3
                      A                      A                      A
 Frequencies --  -1171.8042             -1170.7126                23.4922
 Red. masses --      1.0087                 1.0087                 1.1085
 Frc consts  --      0.8161                 0.8146                 0.0004
 IR Inten    --      0.0065                 0.0055                 0.1750

                      4
                      A
 Frequencies --   5087.7495
 Red. masses --      1.0078
 Frc consts  --     15.3705
 IR Inten    --      0.1180

 - Thermochemistry -
 -------------------
 Temperature   298.150 Kelvin.  Pressure   1.00000 Atm.
 Atom     1 has atomic number  1 and mass   1.00783

 Molecular mass:    21.01405 amu.
 Principal axes and moments of inertia in atomic units:
                           1         2         3
     Eigenvalues --     0.00000  87.57912  87.57912
           X            1.00000  -0.00000   0.00000
           Y            0.00000   1.00000   0.00000
           Z            0.00000   0.00000   1.00000
 This molecule is a prolate symmetric top.
 Rotational symmetry number  1.
 Rotational temperature (Kelvin)      0.98898
 Rotational constant (GHZ):          20.606981
    2 imaginary frequencies ignored.
 Zero-point vibrational energy      30572.0 (Joules/Mol)
                                    7.30689 (Kcal/Mol)
 Warning -- explicit consideration of   1 degrees of freedom as
           vibrations may cause significant error
 Vibrational temperatures:     33.80  7320.14
          (Kelvin)

 Zero-point correction=                           0.011644 (Hartree/Particle)
 Thermal correction to Energy=                    0.014896
 Thermal correction to Enthalpy=                  0.015841
 Thermal correction to Gibbs Free Energy=        -0.010810
 Sum of electronic and zero-point Energies=           -100.921117
 Sum of electronic and thermal Energies=              -100.917865
 Sum of electronic and thermal Enthalpies=            -100.916921
 Sum of electronic and thermal Free Energies=         -100.943572

                     E (Thermal)             CV                S
                      KCal/Mol        Cal/Mol-Kelvin    Cal/Mol-Kelvin
 Total                    9.348              6.953             56.092
 Electronic               0.000              0.000              1.377
 Translational            0.889              2.981             35.068
 Rotational               0.592              1.987             13.332
 Vibrational              7.866              1.985              6.315
 Vibration     1          0.593              1.985              6.315

 Normal termination of Gaussian 16 at Fri Aug 22 20:38:43 2025.
