 Gaussian 16, Revision C.01,
 Gaussian 16:  ES64L-G16RevC.01  3-Jul-2019

 -----------------------------------------
 # sp b3lyp/6-311g** Force nosymm scf=(qc)
 -----------------------------------------

 -------------------
 Title Card Required
 -------------------
 Symbolic Z-matrix:
 Charge =  0 Multiplicity = 2

                          Input orientation:
 ---------------------------------------------------------------------
 Center     Atomic      Atomic             Coordinates (Angstroms)
 Number     Number       Type             X           Y           Z
 ---------------------------------------------------------------------
      1          1           0        0.000000    0.000000    0.000000
      2          1           0       -2.350000    0.000000    0.000000
      3          9           0        3.000000    0.000000    0.000000
 ---------------------------------------------------------------------

 SCF Done:  E(UB3LYP) =  -100.766793708     a.u. after   21 cycles

 Alpha  occ. eigenvalues --  -24.74185  -1.20233  -0.53302  -0.44755  -0.44755
 Alpha  occ. eigenvalues --   -0.33239
 Alpha virt. eigenvalues --   -0.10904   0.25474   0.33165   0.89563   0.92219
 Alpha virt. eigenvalues --    0.92219   1.03957   1.24490   1.24490   1.25749
 Alpha virt. eigenvalues --    1.39009   1.39009   1.42269   2.14616   2.35670

  Beta  occ. eigenvalues --  -24.71153  -1.11543  -0.41720  -0.41720  -0.33812
  Beta virt. eigenvalues --   -0.24856  -0.09845   0.25715   0.34247   0.93681
  Beta virt. eigenvalues --    0.93681   0.98335   1.07880   1.23782   1.23782
  Beta virt. eigenvalues --    1.24918   1.40723   1.40723   1.43882   2.15729

 Mulliken charges and spin densities:
               1          2
     1  H    0.027202  -0.914636
     2  H    0.007899   0.953921
     3  F   -0.035101   0.960715
 Sum of Mulliken charges =  -0.00000   1.00000

 Dipole moment (field-independent basis, Debye):
    X=             -0.6288    Y=              0.0000    Z=              0.0000  Tot=              0.6288
 Quadrupole moment (field-independent basis, Debye-Ang):
   XX=             -7.7988   YY=             -7.6663   ZZ=             -7.6663
   XY=             -0.0000   XZ=             -0.0000   YZ=             -0.0000

  Exact polarizability:      48.205      -0.000       2.011      -0.000      -0.000       2.011
 Approx polarizability:      42.428      -0.000       1.922      -0.000       0.000       1.922

 ******    2 imaginary frequencies (negative Signs) ******

                      1                      2                      3
                      A                      A                      A
 Frequencies --   -852.3946              -240.8514               322.8779
 Red. masses --      1.0088                 1.1074                 1.0153
 Frc consts  --      0.4318                 0.0378                 0.0624
 IR Inten    --     22.2590                22.7935                 0.5165

                      4
                      A
 Frequencies --    322.8779
 Red. masses --      1.0153
 Frc consts  --      0.0624
 IR Inten    --      0.5165

 - Thermochemistry -
 -------------------
 Temperature   298.150 Kelvin.  Pressure   1.00000 Atm.
 Atom     1 has atomic number  1 and mass   1.00783

 Molecular mass:    21.01405 amu.
 Principal axes and moments of inertia in atomic units:
                           1         2         3
     Eigenvalues --     0.00000 123.36911 123.36911
           X            1.00000  -0.00000   0.00000
           Y            0.00000   1.00000   0.00000
           Z            0.00000   0.00000   1.00000
 This molecule is a prolate symmetric top.
 Rotational symmetry number  1.
 Rotational temperature (Kelvin)      0.70207
 Rotational constant (GHZ):          14.628793
    2 imaginary frequencies ignored.
 Zero-point vibrational energy       3862.5 (Joules/Mol)
                                    0.92315 (Kcal/Mol)
 Warning -- explicit consideration of   2 degrees of freedom as
           vibrations may cause significant error
 Vibrational temperatures:    464.55   464.55
          (Kelvin)

 Zero-point correction=                           0.001471 (Hartree/Particle)
 Thermal correction to Energy=                    0.004616
 Thermal correction to Enthalpy=                  0.005560
 Thermal correction to Gibbs Free Energy=        -0.019645
 Sum of electronic and zero-point Energies=           -100.765323
 Sum of electronic and thermal Energies=              -100.762177
 Sum of electronic and thermal Enthalpies=            -100.761233
 Sum of electronic and thermal Free Energies=         -100.786438

                     E (Thermal)             CV                S
                      KCal/Mol        Cal/Mol-Kelvin    Cal/Mol-Kelvin
 Total                    2.897              8.227             53.049
 Electronic               0.000              0.000              1.377
 Translational            0.889              2.981             35.068
 Rotational               0.592              1.987             14.012
 Vibrational              1.416              3.259              2.591
 Vibration     1          0.708              1.630              1.295
 Vibration     2          0.708              1.630              1.295

 Normal termination of Gaussian 16 at Fri Aug 22 19:31:53 2025.
