 Gaussian 16, Revision C.01,
 Gaussian 16:  ES64L-G16RevC.01  3-Jul-2019

 -----------------------------------------
 # sp b3lyp/6-311g** Force nosymm scf=(qc)
 -----------------------------------------

 -------------------
 Title Card Required
 -------------------
 Symbolic Z-matrix:
 Charge =  0 Multiplicity = 2

                          Input orientation:
 ---------------------------------------------------------------------
 Center     Atomic      Atomic             Coordinates (Angstroms)
 Number     Number       Type             X           Y           Z
 ---------------------------------------------------------------------
      1          1           0        0.000000    0.000000    0.000000
      2          1           0       -1.300000    0.000000    0.000000
      3          9           0        0.500000    0.000000    0.000000
 ---------------------------------------------------------------------

 SCF Done:  E(UB3LYP) =  -100.249935998     a.u. after    6 cycles

 Alpha  occ. eigenvalues --  -24.63894  -1.43860  -0.65138  -0.45234  -0.45234
 Alpha  occ. eigenvalues --   -0.35024
 Alpha virt. eigenvalues --    0.15456   0.21414   0.71587   0.87813   0.88450
 Alpha virt. eigenvalues --    0.88450   1.15551   1.15551   1.49178   1.67381
 Alpha virt. eigenvalues --    1.67381   1.75960   2.01950   2.34144   3.75792

  Beta  occ. eigenvalues --  -24.63746  -1.43347  -0.64535  -0.45136  -0.45136
  Beta virt. eigenvalues --   -0.11071   0.16387   0.29981   0.77452   0.87981
  Beta virt. eigenvalues --    0.88928   0.88928   1.28506   1.28506   1.50169
  Beta virt. eigenvalues --    1.71543   1.71543   1.84930   2.08257   2.56078

 Mulliken charges and spin densities:
               1          2
     1  H    0.124716   0.009909
     2  H   -0.002290   0.985262
     3  F   -0.122426   0.004829
 Sum of Mulliken charges =   0.00000   1.00000

 Dipole moment (field-independent basis, Debye):
    X=             -1.1385    Y=              0.0000    Z=             -0.0000  Tot=              1.1385
 Quadrupole moment (field-independent basis, Debye-Ang):
   XX=             -6.7840   YY=             -6.3482   ZZ=             -6.3482
   XY=              0.0000   XZ=             -0.0000   YZ=              0.0000

  Exact polarizability:       5.632      -0.000       2.484      -0.000       0.000       2.484
 Approx polarizability:       5.303       0.000       2.518       0.000       0.000       2.518

 ******    2 imaginary frequencies (negative Signs) ******

                      1                      2                      3
                      A                      A                      A
 Frequencies --  -9349.6677             -9349.6677              1379.8142
 Red. masses --      1.0323                 1.0323                 1.0535
 Frc consts  --     53.1681                53.1681                 1.1818
 IR Inten    --    197.9686               197.9686                27.4155

                      4
                      A
 Frequencies --  19168.3910
 Red. masses --      1.0580
 Frc consts  --    229.0452
 IR Inten    --     57.4557

 - Thermochemistry -
 -------------------
 Temperature   298.150 Kelvin.  Pressure   1.00000 Atm.
 Atom     1 has atomic number  1 and mass   1.00783

 Molecular mass:    21.01405 amu.
 Principal axes and moments of inertia in atomic units:
                           1         2         3
     Eigenvalues --     0.00000  11.64745  11.64745
           X            1.00000  -0.00000   0.00000
           Y            0.00000   1.00000   0.00000
           Z            0.00000   0.00000   1.00000
 This molecule is a prolate symmetric top.
 Rotational symmetry number  1.
 Rotational temperature (Kelvin)      7.43630
 Rotational constant (GHZ):         154.947334
    2 imaginary frequencies ignored.
 Zero-point vibrational energy     122905.6 (Joules/Mol)
                                   29.37513 (Kcal/Mol)
 Vibrational temperatures:   1985.24 27579.04
          (Kelvin)

 Zero-point correction=                           0.046812 (Hartree/Particle)
 Thermal correction to Energy=                    0.049181
 Thermal correction to Enthalpy=                  0.050125
 Thermal correction to Gibbs Free Energy=         0.028370
 Sum of electronic and zero-point Energies=           -100.203124
 Sum of electronic and thermal Energies=              -100.200755
 Sum of electronic and thermal Enthalpies=            -100.199811
 Sum of electronic and thermal Free Energies=         -100.221566

                     E (Thermal)             CV                S
                      KCal/Mol        Cal/Mol-Kelvin    Cal/Mol-Kelvin
 Total                   30.861              5.081             45.787
 Electronic               0.000              0.000              1.377
 Translational            0.889              2.981             35.068
 Rotational               0.592              1.987              9.322
 Vibrational             29.380              0.113              0.020

 Normal termination of Gaussian 16 at Fri Aug 22 15:36:25 2025.
