 Gaussian 16, Revision C.01,
 Gaussian 16:  ES64L-G16RevC.01  3-Jul-2019

 -----------------------------------------
 # sp b3lyp/6-311g** Force nosymm scf=(qc)
 -----------------------------------------

 -------------------
 Title Card Required
 -------------------
 Symbolic Z-matrix:
 Charge =  0 Multiplicity = 2

                          Input orientation:
 ---------------------------------------------------------------------
 Center     Atomic      Atomic             Coordinates (Angstroms)
 Number     Number       Type             X           Y           Z
 ---------------------------------------------------------------------
      1          1           0        0.000000    0.000000    0.000000
      2          1           0       -2.500000    0.000000    0.000000
      3          9           0        3.250000    0.000000    0.000000
 ---------------------------------------------------------------------

 SCF Done:  E(UB3LYP) =  -100.763611758     a.u. after   28 cycles

 Alpha  occ. eigenvalues --  -24.74930  -1.20925  -0.54050  -0.45382  -0.45382
 Alpha  occ. eigenvalues --   -0.32839
 Alpha virt. eigenvalues --   -0.09919   0.25548   0.33909   0.88532   0.91762
 Alpha virt. eigenvalues --    0.91762   1.02639   1.24813   1.24813   1.26482
 Alpha virt. eigenvalues --    1.40739   1.40739   1.42383   2.15587   2.36780

  Beta  occ. eigenvalues --  -24.71847  -1.12076  -0.42294  -0.42294  -0.33313
  Beta virt. eigenvalues --   -0.25258  -0.09138   0.25450   0.34942   0.93241
  Beta virt. eigenvalues --    0.93241   0.97532   1.06606   1.24236   1.24236
  Beta virt. eigenvalues --    1.25759   1.41982   1.41982   1.43624   2.16422

 Mulliken charges and spin densities:
               1          2
     1  H    0.016740  -0.947462
     2  H    0.003687   0.970239
     3  F   -0.020426   0.977222
 Sum of Mulliken charges =  -0.00000   1.00000

 Dipole moment (field-independent basis, Debye):
    X=             -0.3847    Y=             -0.0000    Z=             -0.0000  Tot=              0.3847
 Quadrupole moment (field-independent basis, Debye-Ang):
   XX=             -7.4851   YY=             -7.6608   ZZ=             -7.6608
   XY=             -0.0000   XZ=             -0.0000   YZ=              0.0000

  Exact polarizability:      40.010      -0.000       2.018      -0.000      -0.000       2.018
 Approx polarizability:      32.432      -0.000       1.926      -0.000      -0.000       1.926

 ******    2 imaginary frequencies (negative Signs) ******

                      1                      2                      3
                      A                      A                      A
 Frequencies --   -682.8319              -184.4744               252.0060
 Red. masses --      1.0086                 1.1076                 1.0151
 Frc consts  --      0.2771                 0.0222                 0.0380
 IR Inten    --     13.1738                12.4347                 0.2055

                      4
                      A
 Frequencies --    252.0060
 Red. masses --      1.0151
 Frc consts  --      0.0380
 IR Inten    --      0.2055

 - Thermochemistry -
 -------------------
 Temperature   298.150 Kelvin.  Pressure   1.00000 Atm.
 Atom     1 has atomic number  1 and mass   1.00783

 Molecular mass:    21.01405 amu.
 Principal axes and moments of inertia in atomic units:
                           1         2         3
     Eigenvalues --     0.00000 143.02559 143.02559
           X            1.00000  -0.00000   0.00000
           Y            0.00000   1.00000   0.00000
           Z            0.00000   0.00000   1.00000
 This molecule is a prolate symmetric top.
 Rotational symmetry number  1.
 Rotational temperature (Kelvin)      0.60558
 Rotational constant (GHZ):          12.618310
    2 imaginary frequencies ignored.
 Zero-point vibrational energy       3014.7 (Joules/Mol)
                                    0.72052 (Kcal/Mol)
 Warning -- explicit consideration of   2 degrees of freedom as
           vibrations may cause significant error
 Vibrational temperatures:    362.58   362.58
          (Kelvin)

 Zero-point correction=                           0.001148 (Hartree/Particle)
 Thermal correction to Energy=                    0.004476
 Thermal correction to Enthalpy=                  0.005420
 Thermal correction to Gibbs Free Energy=        -0.020325
 Sum of electronic and zero-point Energies=           -100.762464
 Sum of electronic and thermal Energies=              -100.759136
 Sum of electronic and thermal Enthalpies=            -100.758192
 Sum of electronic and thermal Free Energies=         -100.783936

                     E (Thermal)             CV                S
                      KCal/Mol        Cal/Mol-Kelvin    Cal/Mol-Kelvin
 Total                    2.809              8.487             54.185
 Electronic               0.000              0.000              1.377
 Translational            0.889              2.981             35.068
 Rotational               0.592              1.987             14.306
 Vibrational              1.328              3.519              3.433
 Vibration     1          0.664              1.759              1.717
 Vibration     2          0.664              1.759              1.717

 Normal termination of Gaussian 16 at Fri Aug 22 20:35:03 2025.
