 Gaussian 16, Revision C.01,
 Gaussian 16:  ES64L-G16RevC.01  3-Jul-2019

 -----------------------------------------
 # sp b3lyp/6-311g** Force nosymm scf=(qc)
 -----------------------------------------

 -------------------
 Title Card Required
 -------------------
 Symbolic Z-matrix:
 Charge =  0 Multiplicity = 2

                          Input orientation:
 ---------------------------------------------------------------------
 Center     Atomic      Atomic             Coordinates (Angstroms)
 Number     Number       Type             X           Y           Z
 ---------------------------------------------------------------------
      1          1           0        0.000000    0.000000    0.000000
      2          1           0       -1.750000    0.000000    0.000000
      3          9           0        1.750000    0.000000    0.000000
 ---------------------------------------------------------------------

 SCF Done:  E(UB3LYP) =  -100.831540729     a.u. after   12 cycles

 Alpha  occ. eigenvalues --  -24.66289  -1.12647  -0.45923  -0.38132  -0.38132
 Alpha  occ. eigenvalues --   -0.38026
 Alpha virt. eigenvalues --   -0.11897   0.22584   0.29520   0.89077   0.94671
 Alpha virt. eigenvalues --    0.94671   1.03785   1.19083   1.19083   1.33626
 Alpha virt. eigenvalues --    1.35037   1.35037   1.74595   2.14217   2.34542

  Beta  occ. eigenvalues --  -24.64335  -1.07273  -0.38971  -0.36227  -0.36227
  Beta virt. eigenvalues --   -0.21384  -0.09552   0.25398   0.30149   0.92074
  Beta virt. eigenvalues --    0.94858   0.94858   1.07583   1.24214   1.24214
  Beta virt. eigenvalues --    1.35682   1.35682   1.41041   1.75475   2.15380

 Mulliken charges and spin densities:
               1          2
     1  H    0.189952  -0.426401
     2  H    0.063761   0.814176
     3  F   -0.253713   0.612225
 Sum of Mulliken charges =  -0.00000   1.00000

 Dipole moment (field-independent basis, Debye):
    X=             -2.7127    Y=             -0.0000    Z=              0.0000  Tot=              2.7127
 Quadrupole moment (field-independent basis, Debye-Ang):
   XX=             -8.4739   YY=             -7.4383   ZZ=             -7.4383
   XY=             -0.0000   XZ=              0.0000   YZ=              0.0000

  Exact polarizability:      45.208       0.000       2.150      -0.000       0.000       2.150
 Approx polarizability:      61.731      -0.000       2.069       0.000       0.000       2.069

 ******    2 imaginary frequencies (negative Signs) ******

                      1                      2                      3
                      A                      A                      A
 Frequencies --  -2138.9521              -616.9379               873.3938
 Red. masses --      1.0221                 1.0917                 1.0179
 Frc consts  --      2.7553                 0.2448                 0.4575
 IR Inten    --    266.4986                 7.5353                19.1300

                      4
                      A
 Frequencies --    873.3938
 Red. masses --      1.0179
 Frc consts  --      0.4575
 IR Inten    --     19.1300

 - Thermochemistry -
 -------------------
 Temperature   298.150 Kelvin.  Pressure   1.00000 Atm.
 Atom     1 has atomic number  1 and mass   1.00783

 Molecular mass:    21.01405 amu.
 Principal axes and moments of inertia in atomic units:
                           1         2         3
     Eigenvalues --     0.00000  50.35234  50.35234
           X            1.00000  -0.00000   0.00000
           Y            0.00000   1.00000   0.00000
           Z            0.00000   0.00000   1.00000
 This molecule is a prolate symmetric top.
 Rotational symmetry number  1.
 Rotational temperature (Kelvin)      1.72016
 Rotational constant (GHZ):          35.842251
    2 imaginary frequencies ignored.
 Zero-point vibrational energy      10448.1 (Joules/Mol)
                                    2.49716 (Kcal/Mol)
 Vibrational temperatures:   1256.62  1256.62
          (Kelvin)

 Zero-point correction=                           0.003979 (Hartree/Particle)
 Thermal correction to Energy=                    0.006459
 Thermal correction to Enthalpy=                  0.007403
 Thermal correction to Gibbs Free Energy=        -0.015872
 Sum of electronic and zero-point Energies=           -100.827561
 Sum of electronic and thermal Energies=              -100.825081
 Sum of electronic and thermal Enthalpies=            -100.824137
 Sum of electronic and thermal Free Energies=         -100.847413

                     E (Thermal)             CV                S
                      KCal/Mol        Cal/Mol-Kelvin    Cal/Mol-Kelvin
 Total                    4.053              6.043             48.987
 Electronic               0.000              0.000              1.377
 Translational            0.889              2.981             35.068
 Rotational               0.592              1.987             12.232
 Vibrational              2.572              1.075              0.310

 Normal termination of Gaussian 16 at Fri Aug 22 16:40:14 2025.
