 Gaussian 16, Revision C.01,
 Gaussian 16:  ES64L-G16RevC.01  3-Jul-2019

 -----------------------------------------
 # sp b3lyp/6-311g** Force nosymm scf=(qc)
 -----------------------------------------

 -------------------
 Title Card Required
 -------------------
 Symbolic Z-matrix:
 Charge =  0 Multiplicity = 2

                          Input orientation:
 ---------------------------------------------------------------------
 Center     Atomic      Atomic             Coordinates (Angstroms)
 Number     Number       Type             X           Y           Z
 ---------------------------------------------------------------------
      1          1           0        0.000000    0.000000    0.000000
      2          1           0       -2.600000    0.000000    0.000000
      3          9           0        3.050000    0.000000    0.000000
 ---------------------------------------------------------------------

 SCF Done:  E(UB3LYP) =  -100.763607770     a.u. after   22 cycles

 Alpha  occ. eigenvalues --  -24.74317  -1.20358  -0.53435  -0.44867  -0.44867
 Alpha  occ. eigenvalues --   -0.32932
 Alpha virt. eigenvalues --   -0.10019   0.25297   0.33927   0.89327   0.92137
 Alpha virt. eigenvalues --    0.92137   1.03654   1.24684   1.24684   1.26439
 Alpha virt. eigenvalues --    1.40724   1.40724   1.41927   2.15635   2.37223

  Beta  occ. eigenvalues --  -24.71275  -1.11636  -0.41822  -0.41822  -0.33679
  Beta virt. eigenvalues --   -0.24918  -0.08861   0.25351   0.35252   0.93603
  Beta virt. eigenvalues --    0.93603   0.98147   1.07553   1.23790   1.23790
  Beta virt. eigenvalues --    1.25399   1.42593   1.42593   1.43674   2.16501

 Mulliken charges and spin densities:
               1          2
     1  H    0.028337  -0.941895
     2  H    0.004075   0.977898
     3  F   -0.032412   0.963997
 Sum of Mulliken charges =  -0.00000   1.00000

 Dipole moment (field-independent basis, Debye):
    X=             -0.5580    Y=              0.0000    Z=             -0.0000  Tot=              0.5580
 Quadrupole moment (field-independent basis, Debye-Ang):
   XX=             -7.9115   YY=             -7.6461   ZZ=             -7.6461
   XY=             -0.0000   XZ=              0.0000   YZ=             -0.0000

  Exact polarizability:      40.940      -0.000       2.017       0.000       0.000       2.017
 Approx polarizability:      36.655      -0.000       1.923       0.000      -0.000       1.923

 ******    2 imaginary frequencies (negative Signs) ******

                      1                      2                      3
                      A                      A                      A
 Frequencies --   -619.9580              -219.7963               230.7148
 Red. masses --      1.0107                 1.1050                 1.0161
 Frc consts  --      0.2289                 0.0315                 0.0319
 IR Inten    --     22.2271                15.6960                 0.6443

                      4
                      A
 Frequencies --    230.7148
 Red. masses --      1.0161
 Frc consts  --      0.0319
 IR Inten    --      0.6443

 - Thermochemistry -
 -------------------
 Temperature   298.150 Kelvin.  Pressure   1.00000 Atm.
 Atom     1 has atomic number  1 and mass   1.00783

 Molecular mass:    21.01405 amu.
 Principal axes and moments of inertia in atomic units:
                           1         2         3
     Eigenvalues --     0.00000 135.30451 135.30451
           X            1.00000  -0.00000   0.00000
           Y            0.00000   1.00000   0.00000
           Z            0.00000   0.00000   1.00000
 This molecule is a prolate symmetric top.
 Rotational symmetry number  1.
 Rotational temperature (Kelvin)      0.64014
 Rotational constant (GHZ):          13.338367
    2 imaginary frequencies ignored.
 Zero-point vibrational energy       2760.0 (Joules/Mol)
                                    0.65965 (Kcal/Mol)
 Warning -- explicit consideration of   2 degrees of freedom as
           vibrations may cause significant error
 Vibrational temperatures:    331.95   331.95
          (Kelvin)

 Zero-point correction=                           0.001051 (Hartree/Particle)
 Thermal correction to Energy=                    0.004440
 Thermal correction to Enthalpy=                  0.005384
 Thermal correction to Gibbs Free Energy=        -0.020457
 Sum of electronic and zero-point Energies=           -100.762557
 Sum of electronic and thermal Energies=              -100.759168
 Sum of electronic and thermal Enthalpies=            -100.758224
 Sum of electronic and thermal Free Energies=         -100.784065

                     E (Thermal)             CV                S
                      KCal/Mol        Cal/Mol-Kelvin    Cal/Mol-Kelvin
 Total                    2.786              8.556             54.388
 Electronic               0.000              0.000              1.377
 Translational            0.889              2.981             35.068
 Rotational               0.592              1.987             14.196
 Vibrational              1.305              3.588              3.747
 Vibration     1          0.652              1.794              1.873
 Vibration     2          0.652              1.794              1.873

 Normal termination of Gaussian 16 at Fri Aug 22 19:44:20 2025.
