 Gaussian 16, Revision C.01,
 Gaussian 16:  ES64L-G16RevC.01  3-Jul-2019

 -----------------------------------------
 # sp b3lyp/6-311g** Force nosymm scf=(qc)
 -----------------------------------------

 -------------------
 Title Card Required
 -------------------
 Symbolic Z-matrix:
 Charge =  0 Multiplicity = 2

                          Input orientation:
 ---------------------------------------------------------------------
 Center     Atomic      Atomic             Coordinates (Angstroms)
 Number     Number       Type             X           Y           Z
 ---------------------------------------------------------------------
      1          1           0        0.000000    0.000000    0.000000
      2          1           0       -3.550000    0.000000    0.000000
      3          9           0        1.050000    0.000000    0.000000
 ---------------------------------------------------------------------

 SCF Done:  E(UB3LYP) =  -100.958272560     a.u. after    6 cycles

 Alpha  occ. eigenvalues --  -24.64249  -1.14877  -0.50612  -0.38436  -0.38436
 Alpha  occ. eigenvalues --   -0.33697
 Alpha virt. eigenvalues --   -0.00906   0.23486   0.32761   0.93807   0.93807
 Alpha virt. eigenvalues --    0.99060   1.23728   1.23816   1.23816   1.29182
 Alpha virt. eigenvalues --    1.35525   1.35525   1.84509   2.14050   2.32977

  Beta  occ. eigenvalues --  -24.64247  -1.14872  -0.50607  -0.38434  -0.38434
  Beta virt. eigenvalues --   -0.06054  -0.00232   0.31287   0.39304   0.93807
  Beta virt. eigenvalues --    0.93807   0.99064   1.29074   1.35523   1.35523
  Beta virt. eigenvalues --    1.49680   1.49776   1.49776   1.84535   2.32698

 Mulliken charges and spin densities:
               1          2
     1  H    0.330896   0.000424
     2  H    0.000943   0.998917
     3  F   -0.331839   0.000659
 Sum of Mulliken charges =   0.00000   1.00000

 Dipole moment (field-independent basis, Debye):
    X=             -2.1043    Y=             -0.0000    Z=             -0.0000  Tot=              2.1043
 Quadrupole moment (field-independent basis, Debye-Ang):
   XX=             -8.3876   YY=             -7.0062   ZZ=             -7.0062
   XY=              0.0000   XZ=             -0.0000   YZ=              0.0000

  Exact polarizability:       7.288       0.000       2.382       0.000      -0.000       2.382
 Approx polarizability:       9.236       0.000       2.350       0.000      -0.000       2.350

 ******    1 imaginary frequencies (negative Signs) ******

                      1                      2                      3
                      A                      A                      A
 Frequencies --    -46.9950              1121.9029              1121.9029
 Red. masses --      1.0532                 1.0364                 1.0364
 Frc consts  --      0.0014                 0.7686                 0.7686
 IR Inten    --      0.0532               163.1558               163.1558

                      4
                      A
 Frequencies --   2452.4428
 Red. masses --      1.0584
 Frc consts  --      3.7504
 IR Inten    --     83.4491

 - Thermochemistry -
 -------------------
 Temperature   298.150 Kelvin.  Pressure   1.00000 Atm.
 Atom     1 has atomic number  1 and mass   1.00783

 Molecular mass:    21.01405 amu.
 Principal axes and moments of inertia in atomic units:
                           1         2         3
     Eigenvalues --     0.00000  74.61288  74.61288
           X            1.00000  -0.00000   0.00000
           Y            0.00000   1.00000   0.00000
           Z            0.00000   0.00000   1.00000
 This molecule is a prolate symmetric top.
 Rotational symmetry number  1.
 Rotational temperature (Kelvin)      1.16084
 Rotational constant (GHZ):          24.188064
    1 imaginary frequencies ignored.
 Zero-point vibrational energy      28089.8 (Joules/Mol)
                                    6.71362 (Kcal/Mol)
 Vibrational temperatures:   1614.17  1614.17  3528.52
          (Kelvin)

 Zero-point correction=                           0.010699 (Hartree/Particle)
 Thermal correction to Energy=                    0.013105
 Thermal correction to Enthalpy=                  0.014049
 Thermal correction to Gibbs Free Energy=        -0.009504
 Sum of electronic and zero-point Energies=           -100.947574
 Sum of electronic and thermal Energies=              -100.945167
 Sum of electronic and thermal Enthalpies=            -100.944223
 Sum of electronic and thermal Free Energies=         -100.967777

                     E (Thermal)             CV                S
                      KCal/Mol        Cal/Mol-Kelvin    Cal/Mol-Kelvin
 Total                    8.224              5.494             49.573
 Electronic               0.000              0.000              1.377
 Translational            0.889              2.981             35.068
 Rotational               0.592              1.987             13.013
 Vibrational              6.742              0.526              0.114

 Normal termination of Gaussian 16 at Fri Aug 22 16:03:57 2025.
