 Gaussian 16, Revision C.01,
 Gaussian 16:  ES64L-G16RevC.01  3-Jul-2019

 -----------------------------------------
 # sp b3lyp/6-311g** Force nosymm scf=(qc)
 -----------------------------------------

 -------------------
 Title Card Required
 -------------------
 Symbolic Z-matrix:
 Charge =  0 Multiplicity = 2

                          Input orientation:
 ---------------------------------------------------------------------
 Center     Atomic      Atomic             Coordinates (Angstroms)
 Number     Number       Type             X           Y           Z
 ---------------------------------------------------------------------
      1          1           0        0.000000    0.000000    0.000000
      2          1           0       -2.500000    0.000000    0.000000
      3          9           0        1.050000    0.000000    0.000000
 ---------------------------------------------------------------------

 SCF Done:  E(UB3LYP) =  -100.958755436     a.u. after    6 cycles

 Alpha  occ. eigenvalues --  -24.64096  -1.14757  -0.50561  -0.38305  -0.38305
 Alpha  occ. eigenvalues --   -0.35085
 Alpha virt. eigenvalues --    0.00190   0.25000   0.32259   0.93931   0.93931
 Alpha virt. eigenvalues --    0.99072   1.20020   1.22461   1.22461   1.35667
 Alpha virt. eigenvalues --    1.35667   1.36991   1.85395   2.13500   2.33716

  Beta  occ. eigenvalues --  -24.64070  -1.14690  -0.50445  -0.38282  -0.38282
  Beta virt. eigenvalues --   -0.10297   0.02099   0.32223   0.36989   0.93934
  Beta virt. eigenvalues --    0.93934   0.99153   1.28947   1.35618   1.35618
  Beta virt. eigenvalues --    1.43952   1.43952   1.49024   1.85500   2.33103

 Mulliken charges and spin densities:
               1          2
     1  H    0.325433   0.002390
     2  H    0.007802   0.989434
     3  F   -0.333235   0.008175
 Sum of Mulliken charges =   0.00000   1.00000

 Dipole moment (field-independent basis, Debye):
    X=             -2.1945    Y=              0.0000    Z=             -0.0000  Tot=              2.1945
 Quadrupole moment (field-independent basis, Debye-Ang):
   XX=             -8.1174   YY=             -6.9991   ZZ=             -6.9991
   XY=              0.0000   XZ=             -0.0000   YZ=             -0.0000

  Exact polarizability:       9.692       0.000       2.409      -0.000      -0.000       2.409
 Approx polarizability:      11.340      -0.000       2.382       0.000      -0.000       2.382

 ******    1 imaginary frequencies (negative Signs) ******

                      1                      2                      3
                      A                      A                      A
 Frequencies --   -113.1613              1099.8235              1099.8235
 Red. masses --      1.0525                 1.0309                 1.0309
 Frc consts  --      0.0079                 0.7347                 0.7347
 IR Inten    --      1.4200               148.1184               148.1184

                      4
                      A
 Frequencies --   2433.3435
 Red. masses --      1.0591
 Frc consts  --      3.6947
 IR Inten    --    124.3660

 - Thermochemistry -
 -------------------
 Temperature   298.150 Kelvin.  Pressure   1.00000 Atm.
 Atom     1 has atomic number  1 and mass   1.00783

 Molecular mass:    21.01405 amu.
 Principal axes and moments of inertia in atomic units:
                           1         2         3
     Eigenvalues --     0.00000  45.67205  45.67205
           X            1.00000  -0.00000   0.00000
           Y            0.00000   1.00000   0.00000
           Z            0.00000   0.00000   1.00000
 This molecule is a prolate symmetric top.
 Rotational symmetry number  1.
 Rotational temperature (Kelvin)      1.89643
 Rotational constant (GHZ):          39.515222
    1 imaginary frequencies ignored.
 Zero-point vibrational energy      27711.4 (Joules/Mol)
                                    6.62319 (Kcal/Mol)
 Vibrational temperatures:   1582.40  1582.40  3501.04
          (Kelvin)

 Zero-point correction=                           0.010555 (Hartree/Particle)
 Thermal correction to Energy=                    0.012965
 Thermal correction to Enthalpy=                  0.013909
 Thermal correction to Gibbs Free Energy=        -0.009186
 Sum of electronic and zero-point Energies=           -100.948201
 Sum of electronic and thermal Energies=              -100.945790
 Sum of electronic and thermal Enthalpies=            -100.944846
 Sum of electronic and thermal Free Energies=         -100.967941

                     E (Thermal)             CV                S
                      KCal/Mol        Cal/Mol-Kelvin    Cal/Mol-Kelvin
 Total                    8.136              5.530             48.608
 Electronic               0.000              0.000              1.377
 Translational            0.889              2.981             35.068
 Rotational               0.592              1.987             12.038
 Vibrational              6.655              0.562              0.125

 Normal termination of Gaussian 16 at Fri Aug 22 16:03:16 2025.
