 Gaussian 16, Revision C.01,
 Gaussian 16:  ES64L-G16RevC.01  3-Jul-2019

 -----------------------------------------
 # sp b3lyp/6-311g** Force nosymm scf=(qc)
 -----------------------------------------

 -------------------
 Title Card Required
 -------------------
 Symbolic Z-matrix:
 Charge =  0 Multiplicity = 2

                          Input orientation:
 ---------------------------------------------------------------------
 Center     Atomic      Atomic             Coordinates (Angstroms)
 Number     Number       Type             X           Y           Z
 ---------------------------------------------------------------------
      1          1           0        0.000000    0.000000    0.000000
      2          1           0       -3.350000    0.000000    0.000000
      3          9           0        2.900000    0.000000    0.000000
 ---------------------------------------------------------------------

 SCF Done:  E(UB3LYP) =  -100.762003146     a.u. after   20 cycles

 Alpha  occ. eigenvalues --  -24.73708  -1.19795  -0.52826  -0.44358  -0.44358
 Alpha  occ. eigenvalues --   -0.32647
 Alpha virt. eigenvalues --   -0.08705   0.24084   0.35762   0.89698   0.92501
 Alpha virt. eigenvalues --    0.92501   1.04500   1.24866   1.24866   1.25147
 Alpha virt. eigenvalues --    1.43216   1.43216   1.43654   2.14966   2.39161

  Beta  occ. eigenvalues --  -24.70707  -1.11204  -0.41357  -0.41357  -0.34001
  Beta virt. eigenvalues --   -0.24558  -0.06876   0.24149   0.37627   0.93953
  Beta virt. eigenvalues --    0.93953   0.98215   1.08123   1.23327   1.23327
  Beta virt. eigenvalues --    1.24262   1.45472   1.45731   1.45731   2.15001

 Mulliken charges and spin densities:
               1          2
     1  H    0.044257  -0.947431
     2  H    0.000770   0.997003
     3  F   -0.045026   0.950428
 Sum of Mulliken charges =  -0.00000   1.00000

 Dipole moment (field-independent basis, Debye):
    X=             -0.6825    Y=              0.0000    Z=             -0.0000  Tot=              0.6825
 Quadrupole moment (field-independent basis, Debye-Ang):
   XX=             -8.4845   YY=             -7.6071   ZZ=             -7.6071
   XY=             -0.0000   XZ=              0.0000   YZ=             -0.0000

  Exact polarizability:      32.920      -0.000       2.024      -0.000       0.000       2.024
 Approx polarizability:      34.865      -0.000       1.924       0.000       0.000       1.924

 ******    2 imaginary frequencies (negative Signs) ******

                      1                      2                      3
                      A                      A                      A
 Frequencies --   -425.4976              -139.5870               153.9035
 Red. masses --      1.0446                 1.0672                 1.0198
 Frc consts  --      0.1114                 0.0123                 0.0142
 IR Inten    --     46.1610                 1.1217                 1.8234

                      4
                      A
 Frequencies --    153.9035
 Red. masses --      1.0198
 Frc consts  --      0.0142
 IR Inten    --      1.8234

 - Thermochemistry -
 -------------------
 Temperature   298.150 Kelvin.  Pressure   1.00000 Atm.
 Atom     1 has atomic number  1 and mass   1.00783

 Molecular mass:    21.01405 amu.
 Principal axes and moments of inertia in atomic units:
                           1         2         3
     Eigenvalues --     0.00000 156.40285 156.40285
           X            1.00000  -0.00000   0.00000
           Y            0.00000   1.00000   0.00000
           Z            0.00000   0.00000   1.00000
 This molecule is a prolate symmetric top.
 Rotational symmetry number  1.
 Rotational temperature (Kelvin)      0.55379
 Rotational constant (GHZ):          11.539056
    2 imaginary frequencies ignored.
 Zero-point vibrational energy       1841.1 (Joules/Mol)
                                    0.44003 (Kcal/Mol)
 Warning -- explicit consideration of   2 degrees of freedom as
           vibrations may cause significant error
 Vibrational temperatures:    221.43   221.43
          (Kelvin)

 Zero-point correction=                           0.000701 (Hartree/Particle)
 Thermal correction to Energy=                    0.004335
 Thermal correction to Enthalpy=                  0.005279
 Thermal correction to Gibbs Free Energy=        -0.021412
 Sum of electronic and zero-point Energies=           -100.761302
 Sum of electronic and thermal Energies=              -100.757668
 Sum of electronic and thermal Enthalpies=            -100.756724
 Sum of electronic and thermal Free Energies=         -100.783415

                     E (Thermal)             CV                S
                      KCal/Mol        Cal/Mol-Kelvin    Cal/Mol-Kelvin
 Total                    2.720              8.765             56.176
 Electronic               0.000              0.000              1.377
 Translational            0.889              2.981             35.068
 Rotational               0.592              1.987             14.484
 Vibrational              1.239              3.797              5.247
 Vibration     1          0.619              1.898              2.623
 Vibration     2          0.619              1.898              2.623

 Normal termination of Gaussian 16 at Fri Aug 22 19:04:38 2025.
