 Gaussian 16, Revision C.01,
 Gaussian 16:  ES64L-G16RevC.01  3-Jul-2019

 -----------------------------------------
 # sp b3lyp/6-311g** Force nosymm scf=(qc)
 -----------------------------------------

 -------------------
 Title Card Required
 -------------------
 Symbolic Z-matrix:
 Charge =  0 Multiplicity = 2

                          Input orientation:
 ---------------------------------------------------------------------
 Center     Atomic      Atomic             Coordinates (Angstroms)
 Number     Number       Type             X           Y           Z
 ---------------------------------------------------------------------
      1          1           0        0.000000    0.000000    0.000000
      2          1           0       -3.800000    0.000000    0.000000
      3          9           0        0.750000    0.000000    0.000000
 ---------------------------------------------------------------------

 SCF Done:  E(UB3LYP) =  -100.921923529     a.u. after    6 cycles

 Alpha  occ. eigenvalues --  -24.63457  -1.25481  -0.57385  -0.41197  -0.41197
 Alpha  occ. eigenvalues --   -0.33283
 Alpha virt. eigenvalues --    0.05824   0.24417   0.49282   0.93918   0.93918
 Alpha virt. eigenvalues --    0.96506   1.24105   1.24223   1.24223   1.29862
 Alpha virt. eigenvalues --    1.41700   1.41700   2.00127   2.14372   2.67701

  Beta  occ. eigenvalues --  -24.63457  -1.25480  -0.57385  -0.41197  -0.41197
  Beta virt. eigenvalues --   -0.05007   0.06062   0.39222   0.49262   0.93918
  Beta virt. eigenvalues --    0.93918   0.96501   1.29677   1.41700   1.41700
  Beta virt. eigenvalues --    1.50692   1.50773   1.50773   2.00216   2.44755

 Mulliken charges and spin densities:
               1          2
     1  H    0.267976   0.000365
     2  H    0.000435   0.999498
     3  F   -0.268411   0.000137
 Sum of Mulliken charges =   0.00000   1.00000

 Dipole moment (field-independent basis, Debye):
    X=             -1.6609    Y=              0.0000    Z=              0.0000  Tot=              1.6609
 Quadrupole moment (field-independent basis, Debye-Ang):
   XX=             -7.4705   YY=             -6.7169   ZZ=             -6.7169
   XY=              0.0000   XZ=              0.0000   YZ=              0.0000

  Exact polarizability:       4.109       0.000       2.444       0.000      -0.000       2.444
 Approx polarizability:       4.578      -0.000       2.424      -0.000       0.000       2.424

 ******    3 imaginary frequencies (negative Signs) ******

                      1                      2                      3
                      A                      A                      A
 Frequencies --  -2711.9152             -2711.9152               -34.0332
 Red. masses --      1.0421                 1.0421                 1.0532
 Frc consts  --      4.5157                 4.5157                 0.0007
 IR Inten    --    206.2456               206.2456                 0.0132

                      4
                      A
 Frequencies --   7586.7835
 Red. masses --      1.0583
 Frc consts  --     35.8905
 IR Inten    --    104.9592

 - Thermochemistry -
 -------------------
 Temperature   298.150 Kelvin.  Pressure   1.00000 Atm.
 Atom     1 has atomic number  1 and mass   1.00783

 Molecular mass:    21.01405 amu.
 Principal axes and moments of inertia in atomic units:
                           1         2         3
     Eigenvalues --     0.00000  71.68439  71.68439
           X            1.00000  -0.00000   0.00000
           Y            0.00000   1.00000   0.00000
           Z            0.00000   0.00000   1.00000
 This molecule is a prolate symmetric top.
 Rotational symmetry number  1.
 Rotational temperature (Kelvin)      1.20827
 Rotational constant (GHZ):          25.176210
    3 imaginary frequencies ignored.
 Zero-point vibrational energy      45379.0 (Joules/Mol)
                                   10.84585 (Kcal/Mol)
 Vibrational temperatures:  10915.69
          (Kelvin)

 Zero-point correction=                           0.017284 (Hartree/Particle)
 Thermal correction to Energy=                    0.019644
 Thermal correction to Enthalpy=                  0.020589
 Thermal correction to Gibbs Free Energy=        -0.002873
 Sum of electronic and zero-point Energies=           -100.904640
 Sum of electronic and thermal Energies=              -100.902279
 Sum of electronic and thermal Enthalpies=            -100.901335
 Sum of electronic and thermal Free Energies=         -100.924796

                     E (Thermal)             CV                S
                      KCal/Mol        Cal/Mol-Kelvin    Cal/Mol-Kelvin
 Total                   12.327              4.968             49.379
 Electronic               0.000              0.000              1.377
 Translational            0.889              2.981             35.068
 Rotational               0.592              1.987             12.934
 Vibrational             10.846              0.000              0.000

 Normal termination of Gaussian 16 at Fri Aug 22 15:49:53 2025.
