 Gaussian 16, Revision C.01,
 Gaussian 16:  ES64L-G16RevC.01  3-Jul-2019

 -----------------------------------------
 # sp b3lyp/6-311g** Force nosymm scf=(qc)
 -----------------------------------------

 -------------------
 Title Card Required
 -------------------
 Symbolic Z-matrix:
 Charge =  0 Multiplicity = 2

                          Input orientation:
 ---------------------------------------------------------------------
 Center     Atomic      Atomic             Coordinates (Angstroms)
 Number     Number       Type             X           Y           Z
 ---------------------------------------------------------------------
      1          1           0        0.000000    0.000000    0.000000
      2          1           0       -2.950000    0.000000    0.000000
      3          9           0        3.700000    0.000000    0.000000
 ---------------------------------------------------------------------

 SCF Done:  E(UB3LYP) =  -100.759867505     a.u. after   29 cycles

 Alpha  occ. eigenvalues --  -24.75675  -1.21616  -0.54798  -0.46010  -0.46010
 Alpha  occ. eigenvalues --   -0.32402
 Alpha virt. eigenvalues --   -0.07974   0.25098   0.36081   0.87063   0.91299
 Alpha virt. eigenvalues --    0.91299   1.01394   1.25140   1.25140   1.25944
 Alpha virt. eigenvalues --    1.43973   1.43973   1.44012   2.15834   2.39348

  Beta  occ. eigenvalues --  -24.72543  -1.12613  -0.42870  -0.42870  -0.32688
  Beta virt. eigenvalues --   -0.25634  -0.07613   0.24897   0.36625   0.92794
  Beta virt. eigenvalues --    0.92794   0.96329   1.05475   1.24816   1.24816
  Beta virt. eigenvalues --    1.25591   1.44534   1.44534   1.44571   2.16004

 Mulliken charges and spin densities:
               1          2
     1  H    0.005753  -0.984357
     2  H    0.000503   0.991323
     3  F   -0.006257   0.993034
 Sum of Mulliken charges =   0.00000   1.00000

 Dipole moment (field-independent basis, Debye):
    X=             -0.1263    Y=             -0.0000    Z=             -0.0000  Tot=              0.1263
 Quadrupole moment (field-independent basis, Debye-Ang):
   XX=             -7.0544   YY=             -7.6378   ZZ=             -7.6378
   XY=              0.0000   XZ=             -0.0000   YZ=             -0.0000

  Exact polarizability:      20.957      -0.000       2.024       0.000      -0.000       2.024
 Approx polarizability:      15.548       0.000       1.933      -0.000      -0.000       1.933

 ******    2 imaginary frequencies (negative Signs) ******

                      1                      2                      3
                      A                      A                      A
 Frequencies --   -367.0469              -106.5161               130.1064
 Red. masses --      1.0088                 1.1074                 1.0154
 Frc consts  --      0.0801                 0.0074                 0.0101
 IR Inten    --      2.9726                 2.2860                 0.0300

                      4
                      A
 Frequencies --    130.1064
 Red. masses --      1.0154
 Frc consts  --      0.0101
 IR Inten    --      0.0300

 - Thermochemistry -
 -------------------
 Temperature   298.150 Kelvin.  Pressure   1.00000 Atm.
 Atom     1 has atomic number  1 and mass   1.00783

 Molecular mass:    21.01405 amu.
 Principal axes and moments of inertia in atomic units:
                           1         2         3
     Eigenvalues --     0.00000 189.93750 189.93750
           X            1.00000  -0.00000   0.00000
           Y            0.00000   1.00000   0.00000
           Z            0.00000   0.00000   1.00000
 This molecule is a prolate symmetric top.
 Rotational symmetry number  1.
 Rotational temperature (Kelvin)      0.45601
 Rotational constant (GHZ):           9.501764
    2 imaginary frequencies ignored.
 Zero-point vibrational energy       1556.4 (Joules/Mol)
                                    0.37199 (Kcal/Mol)
 Warning -- explicit consideration of   2 degrees of freedom as
           vibrations may cause significant error
 Vibrational temperatures:    187.19   187.19
          (Kelvin)

 Zero-point correction=                           0.000593 (Hartree/Particle)
 Thermal correction to Energy=                    0.004310
 Thermal correction to Enthalpy=                  0.005255
 Thermal correction to Gibbs Free Energy=        -0.021925
 Sum of electronic and zero-point Energies=           -100.759275
 Sum of electronic and thermal Energies=              -100.755557
 Sum of electronic and thermal Enthalpies=            -100.754613
 Sum of electronic and thermal Free Energies=         -100.781792

                     E (Thermal)             CV                S
                      KCal/Mol        Cal/Mol-Kelvin    Cal/Mol-Kelvin
 Total                    2.705              8.814             57.204
 Electronic               0.000              0.000              1.377
 Translational            0.889              2.981             35.068
 Rotational               0.592              1.987             14.870
 Vibrational              1.224              3.846              5.889
 Vibration     1          0.612              1.923              2.944
 Vibration     2          0.612              1.923              2.944

 Normal termination of Gaussian 16 at Sat Aug 23 00:04:03 2025.
