 Gaussian 16, Revision C.01,
 Gaussian 16:  ES64L-G16RevC.01  3-Jul-2019

 -----------------------------------------
 # sp b3lyp/6-311g** Force nosymm scf=(qc)
 -----------------------------------------

 -------------------
 Title Card Required
 -------------------
 Symbolic Z-matrix:
 Charge =  0 Multiplicity = 2

                          Input orientation:
 ---------------------------------------------------------------------
 Center     Atomic      Atomic             Coordinates (Angstroms)
 Number     Number       Type             X           Y           Z
 ---------------------------------------------------------------------
      1          1           0        0.000000    0.000000    0.000000
      2          1           0       -1.350000    0.000000    0.000000
      3          9           0        0.600000    0.000000    0.000000
 ---------------------------------------------------------------------

 SCF Done:  E(UB3LYP) =  -100.674829139     a.u. after    6 cycles

 Alpha  occ. eigenvalues --  -24.63206  -1.35625  -0.62462  -0.43483  -0.43483
 Alpha  occ. eigenvalues --   -0.35509
 Alpha virt. eigenvalues --    0.14858   0.21251   0.63537   0.90979   0.90979
 Alpha virt. eigenvalues --    0.91693   1.15404   1.15404   1.45483   1.57903
 Alpha virt. eigenvalues --    1.57903   1.68940   1.95062   2.27048   3.70752

  Beta  occ. eigenvalues --  -24.63055  -1.35146  -0.61674  -0.43374  -0.43374
  Beta virt. eigenvalues --   -0.11945   0.15862   0.29308   0.68797   0.91347
  Beta virt. eigenvalues --    0.91347   0.92009   1.27959   1.27959   1.47189
  Beta virt. eigenvalues --    1.62514   1.62514   1.80691   1.95998   2.49320

 Mulliken charges and spin densities:
               1          2
     1  H    0.228350   0.013616
     2  H    0.005259   0.972151
     3  F   -0.233609   0.014233
 Sum of Mulliken charges =   0.00000   1.00000

 Dipole moment (field-independent basis, Debye):
    X=             -1.3707    Y=             -0.0000    Z=              0.0000  Tot=              1.3707
 Quadrupole moment (field-independent basis, Debye-Ang):
   XX=             -6.9492   YY=             -6.4546   ZZ=             -6.4546
   XY=             -0.0000   XZ=              0.0000   YZ=             -0.0000

  Exact polarizability:       6.431      -0.000       2.525       0.000       0.000       2.525
 Approx polarizability:       6.140      -0.000       2.550      -0.000       0.000       2.550

 ******    2 imaginary frequencies (negative Signs) ******

                      1                      2                      3
                      A                      A                      A
 Frequencies --  -5723.0831             -5723.0831              1176.0794
 Red. masses --      1.0300                 1.0300                 1.0536
 Frc consts  --     19.8762                19.8762                 0.8586
 IR Inten    --    166.0398               166.0398                15.7382

                      4
                      A
 Frequencies --  13068.3799
 Red. masses --      1.0579
 Frc consts  --    106.4516
 IR Inten    --     98.6858

 - Thermochemistry -
 -------------------
 Temperature   298.150 Kelvin.  Pressure   1.00000 Atm.
 Atom     1 has atomic number  1 and mass   1.00783

 Molecular mass:    21.01405 amu.
 Principal axes and moments of inertia in atomic units:
                           1         2         3
     Eigenvalues --     0.00000  13.85850  13.85850
           X            1.00000  -0.00000   0.00000
           Y            0.00000   1.00000   0.00000
           Z            0.00000   0.00000   1.00000
 This molecule is a prolate symmetric top.
 Rotational symmetry number  1.
 Rotational temperature (Kelvin)      6.24988
 Rotational constant (GHZ):         130.226334
    2 imaginary frequencies ignored.
 Zero-point vibrational energy      85200.8 (Joules/Mol)
                                   20.36348 (Kcal/Mol)
 Vibrational temperatures:   1692.12 18802.48
          (Kelvin)

 Zero-point correction=                           0.032451 (Hartree/Particle)
 Thermal correction to Energy=                    0.034830
 Thermal correction to Enthalpy=                  0.035774
 Thermal correction to Gibbs Free Energy=         0.013843
 Sum of electronic and zero-point Energies=           -100.642378
 Sum of electronic and thermal Energies=              -100.639999
 Sum of electronic and thermal Enthalpies=            -100.639055
 Sum of electronic and thermal Free Energies=         -100.660986

                     E (Thermal)             CV                S
                      KCal/Mol        Cal/Mol-Kelvin    Cal/Mol-Kelvin
 Total                   21.856              5.189             46.159
 Electronic               0.000              0.000              1.377
 Translational            0.889              2.981             35.068
 Rotational               0.592              1.987              9.668
 Vibrational             20.375              0.221              0.046

 Normal termination of Gaussian 16 at Fri Aug 22 15:41:15 2025.
