 Gaussian 16, Revision C.01,
 Gaussian 16:  ES64L-G16RevC.01  3-Jul-2019

 -----------------------------------------
 # sp b3lyp/6-311g** Force nosymm scf=(qc)
 -----------------------------------------

 -------------------
 Title Card Required
 -------------------
 Symbolic Z-matrix:
 Charge =  0 Multiplicity = 2

                          Input orientation:
 ---------------------------------------------------------------------
 Center     Atomic      Atomic             Coordinates (Angstroms)
 Number     Number       Type             X           Y           Z
 ---------------------------------------------------------------------
      1          1           0        0.000000    0.000000    0.000000
      2          1           0       -2.100000    0.000000    0.000000
      3          9           0        1.700000    0.000000    0.000000
 ---------------------------------------------------------------------

 SCF Done:  E(UB3LYP) =  -100.825344410     a.u. after   17 cycles

 Alpha  occ. eigenvalues --  -24.65400  -1.11563  -0.44539  -0.37314  -0.37314
 Alpha  occ. eigenvalues --   -0.36918
 Alpha virt. eigenvalues --   -0.13537   0.23513   0.28687   0.94864   0.94864
 Alpha virt. eigenvalues --    0.95452   1.05683   1.20770   1.20770   1.28678
 Alpha virt. eigenvalues --    1.33667   1.33667   1.72219   2.10691   2.26796

  Beta  occ. eigenvalues --  -24.63786  -1.07161  -0.39589  -0.35750  -0.35750
  Beta virt. eigenvalues --   -0.19472  -0.10157   0.25253   0.32497   0.94732
  Beta virt. eigenvalues --    0.94732   0.97342   1.08245   1.26212   1.26212
  Beta virt. eigenvalues --    1.37440   1.37440   1.42437   1.69657   2.12836

 Mulliken charges and spin densities:
               1          2
     1  H    0.245759  -0.434656
     2  H    0.042773   0.927443
     3  F   -0.288532   0.507213
 Sum of Mulliken charges =   0.00000   1.00000

 Dipole moment (field-independent basis, Debye):
    X=             -2.8261    Y=             -0.0000    Z=              0.0000  Tot=              2.8261
 Quadrupole moment (field-independent basis, Debye-Ang):
   XX=             -9.0254   YY=             -7.4282   ZZ=             -7.4282
   XY=              0.0000   XZ=             -0.0000   YZ=             -0.0000

  Exact polarizability:      37.881       0.000       2.140      -0.000      -0.000       2.140
 Approx polarizability:      49.303       0.000       2.048      -0.000       0.000       2.048

 ******    2 imaginary frequencies (negative Signs) ******

                      1                      2                      3
                      A                      A                      A
 Frequencies --  -1883.7225              -522.6623               793.2055
 Red. masses --      1.0389                 1.0732                 1.0207
 Frc consts  --      2.1720                 0.1727                 0.3784
 IR Inten    --     74.7926                13.1673                43.4000

                      4
                      A
 Frequencies --    793.2055
 Red. masses --      1.0207
 Frc consts  --      0.3784
 IR Inten    --     43.4000

 - Thermochemistry -
 -------------------
 Temperature   298.150 Kelvin.  Pressure   1.00000 Atm.
 Atom     1 has atomic number  1 and mass   1.00783

 Molecular mass:    21.01405 amu.
 Principal axes and moments of inertia in atomic units:
                           1         2         3
     Eigenvalues --     0.00000  57.14946  57.14946
           X            1.00000  -0.00000   0.00000
           Y            0.00000   1.00000   0.00000
           Z            0.00000   0.00000   1.00000
 This molecule is a prolate symmetric top.
 Rotational symmetry number  1.
 Rotational temperature (Kelvin)      1.51557
 Rotational constant (GHZ):          31.579323
    2 imaginary frequencies ignored.
 Zero-point vibrational energy       9488.8 (Joules/Mol)
                                    2.26789 (Kcal/Mol)
 Vibrational temperatures:   1141.25  1141.25
          (Kelvin)

 Zero-point correction=                           0.003614 (Hartree/Particle)
 Thermal correction to Energy=                    0.006135
 Thermal correction to Enthalpy=                  0.007080
 Thermal correction to Gibbs Free Energy=        -0.016370
 Sum of electronic and zero-point Energies=           -100.821730
 Sum of electronic and thermal Energies=              -100.819209
 Sum of electronic and thermal Enthalpies=            -100.818265
 Sum of electronic and thermal Free Energies=         -100.841715

                     E (Thermal)             CV                S
                      KCal/Mol        Cal/Mol-Kelvin    Cal/Mol-Kelvin
 Total                    3.850              6.292             49.354
 Electronic               0.000              0.000              1.377
 Translational            0.889              2.981             35.068
 Rotational               0.592              1.987             12.483
 Vibrational              2.369              1.324              0.426

 Normal termination of Gaussian 16 at Fri Aug 22 16:37:31 2025.
