 Gaussian 16, Revision C.01,
 Gaussian 16:  ES64L-G16RevC.01  3-Jul-2019

 -----------------------------------------
 # sp b3lyp/6-311g** Force nosymm scf=(qc)
 -----------------------------------------

 -------------------
 Title Card Required
 -------------------
 Symbolic Z-matrix:
 Charge =  0 Multiplicity = 2

                          Input orientation:
 ---------------------------------------------------------------------
 Center     Atomic      Atomic             Coordinates (Angstroms)
 Number     Number       Type             X           Y           Z
 ---------------------------------------------------------------------
      1          1           0        0.000000    0.000000    0.000000
      2          1           0       -2.150000    0.000000    0.000000
      3          9           0        3.700000    0.000000    0.000000
 ---------------------------------------------------------------------

 SCF Done:  E(UB3LYP) =  -100.769037182     a.u. after   36 cycles

 Alpha  occ. eigenvalues --  -24.75769  -1.21705  -0.54893  -0.46093  -0.46093
 Alpha  occ. eigenvalues --   -0.32847
 Alpha virt. eigenvalues --   -0.10487   0.25965   0.33230   0.87034   0.91231
 Alpha virt. eigenvalues --    0.91231   1.01332   1.22280   1.25039   1.25039
 Alpha virt. eigenvalues --    1.39080   1.39080   1.46570   2.13799   2.35518

  Beta  occ. eigenvalues --  -24.72634  -1.12692  -0.42950  -0.42950  -0.32953
  Beta virt. eigenvalues --   -0.25708  -0.10262   0.25813   0.33597   0.92726
  Beta virt. eigenvalues --    0.92726   0.96319   1.05427   1.22200   1.24914
  Beta virt. eigenvalues --    1.24914   1.39397   1.39397   1.46815   2.14147

 Mulliken charges and spin densities:
               1          2
     1  H    0.001965  -0.905755
     2  H    0.003175   0.911712
     3  F   -0.005139   0.994042
 Sum of Mulliken charges =   0.00000   1.00000

 Dipole moment (field-independent basis, Debye):
    X=             -0.1298    Y=              0.0000    Z=             -0.0000  Tot=              0.1298
 Quadrupole moment (field-independent basis, Debye-Ang):
   XX=             -6.5998   YY=             -7.7064   ZZ=             -7.7064
   XY=              0.0000   XZ=             -0.0000   YZ=             -0.0000

  Exact polarizability:      33.730       0.000       2.010       0.000      -0.000       2.010
 Approx polarizability:      27.688       0.000       1.932      -0.000       0.000       1.932

 ******    2 imaginary frequencies (negative Signs) ******

                      1                      2                      3
                      A                      A                      A
 Frequencies --  -1097.8320              -105.7631               430.3655
 Red. masses --      1.0078                 1.1085                 1.0127
 Frc consts  --      0.7157                 0.0073                 0.1105
 IR Inten    --      3.0887                 2.8571                 0.0005

                      4
                      A
 Frequencies --    430.3655
 Red. masses --      1.0127
 Frc consts  --      0.1105
 IR Inten    --      0.0005

 - Thermochemistry -
 -------------------
 Temperature   298.150 Kelvin.  Pressure   1.00000 Atm.
 Atom     1 has atomic number  1 and mass   1.00783

 Molecular mass:    21.01405 amu.
 Principal axes and moments of inertia in atomic units:
                           1         2         3
     Eigenvalues --     0.00000 156.69531 156.69531
           X            1.00000  -0.00000   0.00000
           Y            0.00000   1.00000   0.00000
           Z            0.00000   0.00000   1.00000
 This molecule is a prolate symmetric top.
 Rotational symmetry number  1.
 Rotational temperature (Kelvin)      0.55275
 Rotational constant (GHZ):          11.517519
    2 imaginary frequencies ignored.
 Zero-point vibrational energy       5148.3 (Joules/Mol)
                                    1.23048 (Kcal/Mol)
 Warning -- explicit consideration of   2 degrees of freedom as
           vibrations may cause significant error
 Vibrational temperatures:    619.20   619.20
          (Kelvin)

 Zero-point correction=                           0.001961 (Hartree/Particle)
 Thermal correction to Energy=                    0.004883
 Thermal correction to Enthalpy=                  0.005827
 Thermal correction to Gibbs Free Energy=        -0.019187
 Sum of electronic and zero-point Energies=           -100.767076
 Sum of electronic and thermal Energies=              -100.764154
 Sum of electronic and thermal Enthalpies=            -100.763210
 Sum of electronic and thermal Free Energies=         -100.788224

                     E (Thermal)             CV                S
                      KCal/Mol        Cal/Mol-Kelvin    Cal/Mol-Kelvin
 Total                    3.064              7.776             52.648
 Electronic               0.000              0.000              1.377
 Translational            0.889              2.981             35.068
 Rotational               0.592              1.987             14.488
 Vibrational              1.583              2.808              1.715
 Vibration     1          0.792              1.404              0.857
 Vibration     2          0.792              1.404              0.857

 Normal termination of Gaussian 16 at Sat Aug 23 00:02:45 2025.
