 Gaussian 16, Revision C.01,
 Gaussian 16:  ES64L-G16RevC.01  3-Jul-2019

 -----------------------------------------
 # sp b3lyp/6-311g** Force nosymm scf=(qc)
 -----------------------------------------

 -------------------
 Title Card Required
 -------------------
 Symbolic Z-matrix:
 Charge =  0 Multiplicity = 2

                          Input orientation:
 ---------------------------------------------------------------------
 Center     Atomic      Atomic             Coordinates (Angstroms)
 Number     Number       Type             X           Y           Z
 ---------------------------------------------------------------------
      1          1           0        0.000000    0.000000    0.000000
      2          1           0       -1.200000    0.000000    0.000000
      3          9           0        1.600000    0.000000    0.000000
 ---------------------------------------------------------------------

 SCF Done:  E(UB3LYP) =  -100.894542287     a.u. after   12 cycles

 Alpha  occ. eigenvalues --  -24.68248  -1.15021  -0.50292  -0.40071  -0.40071
 Alpha  occ. eigenvalues --   -0.39904
 Alpha virt. eigenvalues --   -0.02567   0.20492   0.31704   0.91667   0.91667
 Alpha virt. eigenvalues --    0.97450   1.07044   1.09886   1.09886   1.51816
 Alpha virt. eigenvalues --    1.51816   1.53794   2.07974   2.25415   2.51705

  Beta  occ. eigenvalues --  -24.66036  -1.08945  -0.41642  -0.37917  -0.37917
  Beta virt. eigenvalues --   -0.23428   0.00217   0.22463   0.32839   0.92377
  Beta virt. eigenvalues --    0.92377   1.03422   1.09784   1.13317   1.13317
  Beta virt. eigenvalues --    1.53485   1.53485   1.57918   2.11124   2.28974

 Mulliken charges and spin densities:
               1          2
     1  H    0.153068  -0.166052
     2  H    0.065548   0.483149
     3  F   -0.218616   0.682903
 Sum of Mulliken charges =   0.00000   1.00000

 Dipole moment (field-independent basis, Debye):
    X=             -2.0720    Y=              0.0000    Z=             -0.0000  Tot=              2.0720
 Quadrupole moment (field-independent basis, Debye-Ang):
   XX=             -7.5798   YY=             -7.1998   ZZ=             -7.1998
   XY=              0.0000   XZ=             -0.0000   YZ=             -0.0000

  Exact polarizability:      35.592       0.000       2.315      -0.000      -0.000       2.315
 Approx polarizability:      54.674       0.000       2.283      -0.000       0.000       2.283

 ******    1 imaginary frequencies (negative Signs) ******

                      1                      2                      3
                      A                      A                      A
 Frequencies --  -2323.1201               281.2503              1261.5977
 Red. masses --      1.0227                 1.0911                 1.0148
 Frc consts  --      3.2519                 0.0508                 0.9517
 IR Inten    --   1109.5724                16.9958                 5.8259

                      4
                      A
 Frequencies --   1261.5977
 Red. masses --      1.0148
 Frc consts  --      0.9517
 IR Inten    --      5.8259

 - Thermochemistry -
 -------------------
 Temperature   298.150 Kelvin.  Pressure   1.00000 Atm.
 Atom     1 has atomic number  1 and mass   1.00783

 Molecular mass:    21.01405 amu.
 Principal axes and moments of inertia in atomic units:
                           1         2         3
     Eigenvalues --     0.00000  34.08802  34.08802
           X            1.00000  -0.00000   0.00000
           Y            0.00000   1.00000   0.00000
           Z            0.00000   0.00000   1.00000
 This molecule is a prolate symmetric top.
 Rotational symmetry number  1.
 Rotational temperature (Kelvin)      2.54089
 Rotational constant (GHZ):          52.943564
    1 imaginary frequencies ignored.
 Zero-point vibrational energy      16774.3 (Joules/Mol)
                                    4.00916 (Kcal/Mol)
 Warning -- explicit consideration of   1 degrees of freedom as
           vibrations may cause significant error
 Vibrational temperatures:    404.66  1815.16  1815.16
          (Kelvin)

 Zero-point correction=                           0.006389 (Hartree/Particle)
 Thermal correction to Energy=                    0.009220
 Thermal correction to Enthalpy=                  0.010164
 Thermal correction to Gibbs Free Energy=        -0.013351
 Sum of electronic and zero-point Energies=           -100.888153
 Sum of electronic and thermal Energies=              -100.885323
 Sum of electronic and thermal Enthalpies=            -100.884378
 Sum of electronic and thermal Free Energies=         -100.907894

                     E (Thermal)             CV                S
                      KCal/Mol        Cal/Mol-Kelvin    Cal/Mol-Kelvin
 Total                    5.785              7.012             49.492
 Electronic               0.000              0.000              1.377
 Translational            0.889              2.981             35.068
 Rotational               0.592              1.987             11.456
 Vibrational              4.304              2.044              1.590
 Vibration     1          0.681              1.708              1.526

 Normal termination of Gaussian 16 at Fri Aug 22 16:30:25 2025.
