 Gaussian 16, Revision C.01,
 Gaussian 16:  ES64L-G16RevC.01  3-Jul-2019

 -----------------------------------------
 # sp b3lyp/6-311g** Force nosymm scf=(qc)
 -----------------------------------------

 -------------------
 Title Card Required
 -------------------
 Symbolic Z-matrix:
 Charge =  0 Multiplicity = 2

                          Input orientation:
 ---------------------------------------------------------------------
 Center     Atomic      Atomic             Coordinates (Angstroms)
 Number     Number       Type             X           Y           Z
 ---------------------------------------------------------------------
      1          1           0        0.000000    0.000000    0.000000
      2          1           0       -3.550000    0.000000    0.000000
      3          9           0        3.300000    0.000000    0.000000
 ---------------------------------------------------------------------

 SCF Done:  E(UB3LYP) =  -100.759593166     a.u. after   24 cycles

 Alpha  occ. eigenvalues --  -24.74977  -1.20970  -0.54098  -0.45422  -0.45422
 Alpha  occ. eigenvalues --   -0.32396
 Alpha virt. eigenvalues --   -0.07270   0.24169   0.36668   0.88284   0.91734
 Alpha virt. eigenvalues --    0.91734   1.02454   1.25107   1.25107   1.25235
 Alpha virt. eigenvalues --    1.44946   1.44946   1.45134   2.14888   2.41185

  Beta  occ. eigenvalues --  -24.71889  -1.12106  -0.42329  -0.42329  -0.33113
  Beta virt. eigenvalues --   -0.25267  -0.06426   0.23946   0.37961   0.93215
  Beta virt. eigenvalues --    0.93215   0.97275   1.06374   1.24279   1.24279
  Beta virt. eigenvalues --    1.24410   1.45965   1.46200   1.46200   2.15177

 Mulliken charges and spin densities:
               1          2
     1  H    0.019087  -0.976965
     2  H    0.000235   0.998151
     3  F   -0.019323   0.978814
 Sum of Mulliken charges =  -0.00000   1.00000

 Dipole moment (field-independent basis, Debye):
    X=             -0.3317    Y=             -0.0000    Z=              0.0000  Tot=              0.3317
 Quadrupole moment (field-independent basis, Debye-Ang):
   XX=             -7.7300   YY=             -7.6180   ZZ=             -7.6180
   XY=             -0.0000   XZ=              0.0000   YZ=              0.0000

  Exact polarizability:      28.086      -0.000       2.031       0.000      -0.000       2.031
 Approx polarizability:      24.401      -0.000       1.931       0.000      -0.000       1.931

 ******    2 imaginary frequencies (negative Signs) ******

                      1                      2                      3
                      A                      A                      A
 Frequencies --   -286.1796              -106.6664                92.4241
 Red. masses --      1.0389                 1.0732                 1.0189
 Frc consts  --      0.0501                 0.0072                 0.0051
 IR Inten    --     20.2888                 0.8567                 0.3334

                      4
                      A
 Frequencies --     92.4241
 Red. masses --      1.0189
 Frc consts  --      0.0051
 IR Inten    --      0.3334

 - Thermochemistry -
 -------------------
 Temperature   298.150 Kelvin.  Pressure   1.00000 Atm.
 Atom     1 has atomic number  1 and mass   1.00783

 Molecular mass:    21.01405 amu.
 Principal axes and moments of inertia in atomic units:
                           1         2         3
     Eigenvalues --     0.00000 190.28529 190.28529
           X            1.00000  -0.00000   0.00000
           Y            0.00000   1.00000   0.00000
           Z            0.00000   0.00000   1.00000
 This molecule is a prolate symmetric top.
 Rotational symmetry number  1.
 Rotational temperature (Kelvin)      0.45518
 Rotational constant (GHZ):           9.484397
    2 imaginary frequencies ignored.
 Zero-point vibrational energy       1105.6 (Joules/Mol)
                                    0.26425 (Kcal/Mol)
 Warning -- explicit consideration of   2 degrees of freedom as
           vibrations may cause significant error
 Vibrational temperatures:    132.98   132.98
          (Kelvin)

 Zero-point correction=                           0.000421 (Hartree/Particle)
 Thermal correction to Energy=                    0.004280
 Thermal correction to Enthalpy=                  0.005224
 Thermal correction to Gibbs Free Energy=        -0.022588
 Sum of electronic and zero-point Energies=           -100.759172
 Sum of electronic and thermal Energies=              -100.755313
 Sum of electronic and thermal Enthalpies=            -100.754369
 Sum of electronic and thermal Free Energies=         -100.782181

                     E (Thermal)             CV                S
                      KCal/Mol        Cal/Mol-Kelvin    Cal/Mol-Kelvin
 Total                    2.686              8.877             58.535
 Electronic               0.000              0.000              1.377
 Translational            0.889              2.981             35.068
 Rotational               0.592              1.987             14.874
 Vibrational              1.205              3.909              7.216
 Vibration     1          0.602              1.955              3.608
 Vibration     2          0.602              1.955              3.608

 Normal termination of Gaussian 16 at Fri Aug 22 20:50:08 2025.
