 Gaussian 16, Revision C.01,
 Gaussian 16:  ES64L-G16RevC.01  3-Jul-2019

 -----------------------------------------
 # sp b3lyp/6-311g** Force nosymm scf=(qc)
 -----------------------------------------

 -------------------
 Title Card Required
 -------------------
 Symbolic Z-matrix:
 Charge =  0 Multiplicity = 2

                          Input orientation:
 ---------------------------------------------------------------------
 Center     Atomic      Atomic             Coordinates (Angstroms)
 Number     Number       Type             X           Y           Z
 ---------------------------------------------------------------------
      1          1           0        0.000000    0.000000    0.000000
      2          1           0       -3.650000    0.000000    0.000000
      3          9           0        0.950000    0.000000    0.000000
 ---------------------------------------------------------------------

 SCF Done:  E(UB3LYP) =  -100.971006149     a.u. after    6 cycles

 Alpha  occ. eigenvalues --  -24.64109  -1.17446  -0.52743  -0.39217  -0.39217
 Alpha  occ. eigenvalues --   -0.33543
 Alpha virt. eigenvalues --    0.01913   0.23963   0.36941   0.94217   0.94217
 Alpha virt. eigenvalues --    0.98129   1.23856   1.23968   1.23968   1.29305
 Alpha virt. eigenvalues --    1.36471   1.36471   1.95733   2.14219   2.34835

  Beta  occ. eigenvalues --  -24.64108  -1.17443  -0.52741  -0.39216  -0.39216
  Beta virt. eigenvalues --   -0.05416   0.02359   0.35612   0.39951   0.94218
  Beta virt. eigenvalues --    0.94218   0.98129   1.29167   1.36470   1.36470
  Beta virt. eigenvalues --    1.50279   1.50750   1.50750   1.95804   2.34664

 Mulliken charges and spin densities:
               1          2
     1  H    0.307977   0.000439
     2  H    0.000688   0.999203
     3  F   -0.308666   0.000358
 Sum of Mulliken charges =   0.00000   1.00000

 Dipole moment (field-independent basis, Debye):
    X=             -1.9625    Y=              0.0000    Z=              0.0000  Tot=              1.9625
 Quadrupole moment (field-independent basis, Debye-Ang):
   XX=             -8.0835   YY=             -6.9164   ZZ=             -6.9164
   XY=              0.0000   XZ=              0.0000   YZ=              0.0000

  Exact polarizability:       5.982       0.000       2.412      -0.000       0.000       2.412
 Approx polarizability:       7.181      -0.000       2.387      -0.000      -0.000       2.387

 ******    1 imaginary frequencies (negative Signs) ******

                      1                      2                      3
                      A                      A                      A
 Frequencies --    -42.7695               677.3331               677.3331
 Red. masses --      1.0532                 1.0383                 1.0383
 Frc consts  --      0.0011                 0.2807                 0.2807
 IR Inten    --      0.0295               175.8755               175.8755

                      4
                      A
 Frequencies --   3679.8575
 Red. masses --      1.0583
 Frc consts  --      8.4437
 IR Inten    --     93.6666

 - Thermochemistry -
 -------------------
 Temperature   298.150 Kelvin.  Pressure   1.00000 Atm.
 Atom     1 has atomic number  1 and mass   1.00783

 Molecular mass:    21.01405 amu.
 Principal axes and moments of inertia in atomic units:
                           1         2         3
     Eigenvalues --     0.00000  74.08640  74.08640
           X            1.00000  -0.00000   0.00000
           Y            0.00000   1.00000   0.00000
           Z            0.00000   0.00000   1.00000
 This molecule is a prolate symmetric top.
 Rotational symmetry number  1.
 Rotational temperature (Kelvin)      1.16909
 Rotational constant (GHZ):          24.359952
    1 imaginary frequencies ignored.
 Zero-point vibrational energy      30113.1 (Joules/Mol)
                                    7.19721 (Kcal/Mol)
 Vibrational temperatures:    974.53   974.53  5294.49
          (Kelvin)

 Zero-point correction=                           0.011469 (Hartree/Particle)
 Thermal correction to Energy=                    0.014074
 Thermal correction to Enthalpy=                  0.015018
 Thermal correction to Gibbs Free Energy=        -0.008792
 Sum of electronic and zero-point Energies=           -100.959537
 Sum of electronic and thermal Energies=              -100.956932
 Sum of electronic and thermal Enthalpies=            -100.955988
 Sum of electronic and thermal Free Energies=         -100.979798

                     E (Thermal)             CV                S
                      KCal/Mol        Cal/Mol-Kelvin    Cal/Mol-Kelvin
 Total                    8.832              6.715             50.113
 Electronic               0.000              0.000              1.377
 Translational            0.889              2.981             35.068
 Rotational               0.592              1.987             12.999
 Vibrational              7.350              1.747              0.668

 Normal termination of Gaussian 16 at Fri Aug 22 15:59:14 2025.
