 Gaussian 16, Revision C.01,
 Gaussian 16:  ES64L-G16RevC.01  3-Jul-2019

 -----------------------------------------
 # sp b3lyp/6-311g** Force nosymm scf=(qc)
 -----------------------------------------

 -------------------
 Title Card Required
 -------------------
 Symbolic Z-matrix:
 Charge =  0 Multiplicity = 2

                          Input orientation:
 ---------------------------------------------------------------------
 Center     Atomic      Atomic             Coordinates (Angstroms)
 Number     Number       Type             X           Y           Z
 ---------------------------------------------------------------------
      1          1           0        0.000000    0.000000    0.000000
      2          1           0       -1.050000    0.000000    0.000000
      3          9           0        1.250000    0.000000    0.000000
 ---------------------------------------------------------------------

 SCF Done:  E(UB3LYP) =  -100.939594691     a.u. after    8 cycles

 Alpha  occ. eigenvalues --  -24.65935  -1.14475  -0.54175  -0.38955  -0.38955
 Alpha  occ. eigenvalues --   -0.38393
 Alpha virt. eigenvalues --    0.06317   0.19306   0.35002   0.90110   0.90110
 Alpha virt. eigenvalues --    0.99086   1.08131   1.08131   1.28498   1.59910
 Alpha virt. eigenvalues --    1.59910   1.60995   2.21862   2.30978   2.50000

  Beta  occ. eigenvalues --  -24.64396  -1.10468  -0.47022  -0.37516  -0.37516
  Beta virt. eigenvalues --   -0.21565   0.08994   0.21499   0.38614   0.91167
  Beta virt. eigenvalues --    0.91167   1.02553   1.13017   1.13017   1.33262
  Beta virt. eigenvalues --    1.63080   1.63080   1.64881   2.28757   2.33493

 Mulliken charges and spin densities:
               1          2
     1  H    0.251473  -0.076775
     2  H    0.045218   0.627849
     3  F   -0.296690   0.448926
 Sum of Mulliken charges =   0.00000   1.00000

 Dipole moment (field-independent basis, Debye):
    X=             -2.1870    Y=              0.0000    Z=              0.0000  Tot=              2.1870
 Quadrupole moment (field-independent basis, Debye-Ang):
   XX=             -7.6737   YY=             -6.8827   ZZ=             -6.8827
   XY=             -0.0000   XZ=              0.0000   YZ=             -0.0000

  Exact polarizability:      22.825       0.000       2.492      -0.000       0.000       2.492
 Approx polarizability:      31.508       0.000       2.487      -0.000       0.000       2.487

 ******    1 imaginary frequencies (negative Signs) ******

                      1                      2                      3
                      A                      A                      A
 Frequencies --  -2331.9054              1047.7322              1063.9938
 Red. masses --      1.0291                 1.0838                 1.0160
 Frc consts  --      3.2972                 0.7010                 0.6777
 IR Inten    --    376.3452                68.7113                23.7218

                      4
                      A
 Frequencies --   1063.9938
 Red. masses --      1.0160
 Frc consts  --      0.6777
 IR Inten    --     23.7218

 - Thermochemistry -
 -------------------
 Temperature   298.150 Kelvin.  Pressure   1.00000 Atm.
 Atom     1 has atomic number  1 and mass   1.00783

 Molecular mass:    21.01405 amu.
 Principal axes and moments of inertia in atomic units:
                           1         2         3
     Eigenvalues --     0.00000  22.48693  22.48693
           X            1.00000  -0.00000   0.00000
           Y            0.00000   1.00000   0.00000
           Z            0.00000   0.00000   1.00000
 This molecule is a prolate symmetric top.
 Rotational symmetry number  1.
 Rotational temperature (Kelvin)      3.85175
 Rotational constant (GHZ):          80.257350
    1 imaginary frequencies ignored.
 Zero-point vibrational energy      18995.0 (Joules/Mol)
                                    4.53992 (Kcal/Mol)
 Vibrational temperatures:   1507.45  1530.85  1530.85
          (Kelvin)

 Zero-point correction=                           0.007235 (Hartree/Particle)
 Thermal correction to Energy=                    0.009683
 Thermal correction to Enthalpy=                  0.010628
 Thermal correction to Gibbs Free Energy=        -0.011845
 Sum of electronic and zero-point Energies=           -100.932360
 Sum of electronic and thermal Energies=              -100.929911
 Sum of electronic and thermal Enthalpies=            -100.928967
 Sum of electronic and thermal Free Energies=         -100.951439

                     E (Thermal)             CV                S
                      KCal/Mol        Cal/Mol-Kelvin    Cal/Mol-Kelvin
 Total                    6.076              5.920             47.297
 Electronic               0.000              0.000              1.377
 Translational            0.889              2.981             35.068
 Rotational               0.592              1.987             10.630
 Vibrational              4.595              0.952              0.222

 Normal termination of Gaussian 16 at Fri Aug 22 16:11:53 2025.
