 Gaussian 16, Revision C.01,
 Gaussian 16:  ES64L-G16RevC.01  3-Jul-2019

 -----------------------------------------
 # sp b3lyp/6-311g** Force nosymm scf=(qc)
 -----------------------------------------

 -------------------
 Title Card Required
 -------------------
 Symbolic Z-matrix:
 Charge =  0 Multiplicity = 2

                          Input orientation:
 ---------------------------------------------------------------------
 Center     Atomic      Atomic             Coordinates (Angstroms)
 Number     Number       Type             X           Y           Z
 ---------------------------------------------------------------------
      1          1           0        0.000000    0.000000    0.000000
      2          1           0       -0.800000    0.000000    0.000000
      3          9           0        2.250000    0.000000    0.000000
 ---------------------------------------------------------------------

 SCF Done:  E(UB3LYP) =  -100.932488438     a.u. after    6 cycles

 Alpha  occ. eigenvalues --  -24.75548  -1.21517  -0.54959  -0.45926  -0.45926
 Alpha  occ. eigenvalues --   -0.43242
 Alpha virt. eigenvalues --    0.05393   0.20409   0.44999   0.89833   0.91006
 Alpha virt. eigenvalues --    0.91006   1.07234   1.07234   1.13253   1.54011
 Alpha virt. eigenvalues --    1.77873   1.77873   2.04098   2.38817   3.04401

  Beta  occ. eigenvalues --  -24.72462  -1.12677  -0.43252  -0.42840  -0.42840
  Beta virt. eigenvalues --   -0.25996   0.06035   0.20823   0.45281   0.92445
  Beta virt. eigenvalues --    0.92445   0.98085   1.07572   1.07572   1.17202
  Beta virt. eigenvalues --    1.54741   1.78069   1.78069   2.04410   2.39184

 Mulliken charges and spin densities:
               1          2
     1  H   -0.008928  -0.016979
     2  H    0.024332   0.043877
     3  F   -0.015404   0.973103
 Sum of Mulliken charges =   0.00000   1.00000

 Dipole moment (field-independent basis, Debye):
    X=             -0.2627    Y=             -0.0000    Z=             -0.0000  Tot=              0.2627
 Quadrupole moment (field-independent basis, Debye-Ang):
   XX=             -5.8102   YY=             -7.0011   ZZ=             -7.0011
   XY=             -0.0000   XZ=             -0.0000   YZ=             -0.0000

  Exact polarizability:      16.899      -0.000       1.913      -0.000       0.000       1.913
 Approx polarizability:      18.456       0.000       2.113       0.000       0.000       2.113

 ******    1 imaginary frequencies (negative Signs) ******

                      1                      2                      3
                      A                      A                      A
 Frequencies --   -178.5445              1576.9917              1576.9917
 Red. masses --      1.1085                 1.0101                 1.0101
 Frc consts  --      0.0208                 1.4800                 1.4800
 IR Inten    --     12.6860                10.6968                10.6968

                      4
                      A
 Frequencies --   3646.3094
 Red. masses --      1.0078
 Frc consts  --      7.8949
 IR Inten    --    121.5445

 - Thermochemistry -
 -------------------
 Temperature   298.150 Kelvin.  Pressure   1.00000 Atm.
 Atom     1 has atomic number  1 and mass   1.00783

 Molecular mass:    21.01405 amu.
 Principal axes and moments of inertia in atomic units:
                           1         2         3
     Eigenvalues --     0.00000  46.85123  46.85123
           X            1.00000  -0.00000   0.00000
           Y            0.00000   1.00000   0.00000
           Z            0.00000   0.00000   1.00000
 This molecule is a prolate symmetric top.
 Rotational symmetry number  1.
 Rotational temperature (Kelvin)      1.84870
 Rotational constant (GHZ):          38.520680
    1 imaginary frequencies ignored.
 Zero-point vibrational energy      40674.8 (Joules/Mol)
                                    9.72151 (Kcal/Mol)
 Vibrational temperatures:   2268.94  2268.94  5246.23
          (Kelvin)

 Zero-point correction=                           0.015492 (Hartree/Particle)
 Thermal correction to Energy=                    0.017860
 Thermal correction to Enthalpy=                  0.018804
 Thermal correction to Gibbs Free Energy=        -0.004264
 Sum of electronic and zero-point Energies=           -100.916996
 Sum of electronic and thermal Energies=              -100.914629
 Sum of electronic and thermal Enthalpies=            -100.913684
 Sum of electronic and thermal Free Energies=         -100.936753

                     E (Thermal)             CV                S
                      KCal/Mol        Cal/Mol-Kelvin    Cal/Mol-Kelvin
 Total                   11.207              5.082             48.551
 Electronic               0.000              0.000              1.377
 Translational            0.889              2.981             35.068
 Rotational               0.592              1.987             12.088
 Vibrational              9.726              0.114              0.017

 Normal termination of Gaussian 16 at Fri Aug 22 17:15:19 2025.
