 Gaussian 16, Revision C.01,
 Gaussian 16:  ES64L-G16RevC.01  3-Jul-2019

 -----------------------------------------
 # sp b3lyp/6-311g** Force nosymm scf=(qc)
 -----------------------------------------

 -------------------
 Title Card Required
 -------------------
 Symbolic Z-matrix:
 Charge =  0 Multiplicity = 2

                          Input orientation:
 ---------------------------------------------------------------------
 Center     Atomic      Atomic             Coordinates (Angstroms)
 Number     Number       Type             X           Y           Z
 ---------------------------------------------------------------------
      1          1           0        0.000000    0.000000    0.000000
      2          1           0       -1.050000    0.000000    0.000000
      3          9           0        4.000000    0.000000    0.000000
 ---------------------------------------------------------------------

 SCF Done:  E(UB3LYP) =  -100.898311303     a.u. after  149 cycles

 Alpha  occ. eigenvalues --  -24.76187  -1.22089  -0.55293  -0.46466  -0.46449
 Alpha  occ. eigenvalues --   -0.38187
 Alpha virt. eigenvalues --   -0.00779   0.21780   0.37479   0.86072   0.90950
 Alpha virt. eigenvalues --    0.91370   1.00916   1.09912   1.09914   1.33584
 Alpha virt. eigenvalues --    1.62819   1.62821   2.19543   2.35089   2.56143

  Beta  occ. eigenvalues --  -24.73032  -1.13016  -0.43303  -0.43286  -0.38187
  Beta virt. eigenvalues --   -0.25944  -0.00777   0.21783   0.37490   0.92450
  Beta virt. eigenvalues --    0.92864   0.95539   1.05066   1.09912   1.09914
  Beta virt. eigenvalues --    1.33586   1.62819   1.62821   2.19545   2.35089

 Mulliken charges and spin densities:
               1          2
     1  H    0.000878  -0.000070
     2  H   -0.001744  -0.000023
     3  F    0.000866   1.000094
 Sum of Mulliken charges =   0.00000   1.00000

 Dipole moment (field-independent basis, Debye):
    X=              0.0184    Y=              0.0000    Z=              0.0000  Tot=              0.0184
 Quadrupole moment (field-independent basis, Debye-Ang):
   XX=             -6.3522   YY=             -7.1554   ZZ=             -6.6404
   XY=             -0.0000   XZ=             -0.0000   YZ=              0.3473

  Exact polarizability:      12.813      -0.000       2.163      -0.000       0.189       2.443
 Approx polarizability:      17.509      -0.000       2.229      -0.000       0.234       2.576

 ******    1 imaginary frequencies (negative Signs) ******

                      1                      2                      3
                      A                      A                      A
 Frequencies --    -64.4367              1410.6560              1542.1404
 Red. masses --      1.1085                 1.0078                 1.0092
 Frc consts  --      0.0027                 1.1816                 1.4140
 IR Inten    --      0.0338                 0.0396                 0.0040

                      4
                      A
 Frequencies --   1544.9501
 Red. masses --      1.0092
 Frc consts  --      1.4192
 IR Inten    --      0.0007

 - Thermochemistry -
 -------------------
 Temperature   298.150 Kelvin.  Pressure   1.00000 Atm.
 Atom     1 has atomic number  1 and mass   1.00783

 Molecular mass:    21.01405 amu.
 Principal axes and moments of inertia in atomic units:
                           1         2         3
     Eigenvalues --     0.00000 135.23091 135.23091
           X            1.00000  -0.00000   0.00000
           Y            0.00000   1.00000   0.00000
           Z            0.00000   0.00000   1.00000
 This molecule is a prolate symmetric top.
 Rotational symmetry number  1.
 Rotational temperature (Kelvin)      0.64049
 Rotational constant (GHZ):          13.345626
    1 imaginary frequencies ignored.
 Zero-point vibrational energy      26902.5 (Joules/Mol)
                                    6.42985 (Kcal/Mol)
 Vibrational temperatures:   2029.62  2218.80  2222.84
          (Kelvin)

 Zero-point correction=                           0.010247 (Hartree/Particle)
 Thermal correction to Energy=                    0.012622
 Thermal correction to Enthalpy=                  0.013567
 Thermal correction to Gibbs Free Energy=        -0.010512
 Sum of electronic and zero-point Energies=           -100.888065
 Sum of electronic and thermal Energies=              -100.885689
 Sum of electronic and thermal Enthalpies=            -100.884745
 Sum of electronic and thermal Free Energies=         -100.908823

                     E (Thermal)             CV                S
                      KCal/Mol        Cal/Mol-Kelvin    Cal/Mol-Kelvin
 Total                    7.921              5.199             50.677
 Electronic               0.000              0.000              1.377
 Translational            0.889              2.981             35.068
 Rotational               0.592              1.987             14.195
 Vibrational              6.439              0.231              0.037

 Normal termination of Gaussian 16 at Sat Aug 23 01:45:57 2025.
