 Gaussian 16, Revision C.01,
 Gaussian 16:  ES64L-G16RevC.01  3-Jul-2019

 -----------------------------------------
 # sp b3lyp/6-311g** Force nosymm scf=(qc)
 -----------------------------------------

 -------------------
 Title Card Required
 -------------------
 Symbolic Z-matrix:
 Charge =  0 Multiplicity = 2

                          Input orientation:
 ---------------------------------------------------------------------
 Center     Atomic      Atomic             Coordinates (Angstroms)
 Number     Number       Type             X           Y           Z
 ---------------------------------------------------------------------
      1          1           0        0.000000    0.000000    0.000000
      2          1           0       -2.750000    0.000000    0.000000
      3          9           0        1.150000    0.000000    0.000000
 ---------------------------------------------------------------------

 SCF Done:  E(UB3LYP) =  -100.937693893     a.u. after    6 cycles

 Alpha  occ. eigenvalues --  -24.64225  -1.12925  -0.48612  -0.37711  -0.37711
 Alpha  occ. eigenvalues --   -0.34757
 Alpha virt. eigenvalues --   -0.03595   0.24387   0.29430   0.93438   0.93438
 Alpha virt. eigenvalues --    1.00247   1.22099   1.22780   1.22780   1.31100
 Alpha virt. eigenvalues --    1.35034   1.35034   1.76459   2.14020   2.30970

  Beta  occ. eigenvalues --  -24.64204  -1.12874  -0.48533  -0.37693  -0.37693
  Beta virt. eigenvalues --   -0.09870  -0.01657   0.29085   0.37235   0.93439
  Beta virt. eigenvalues --    0.93439   1.00288   1.28747   1.34995   1.34995
  Beta virt. eigenvalues --    1.44938   1.44938   1.45872   1.76731   2.30881

 Mulliken charges and spin densities:
               1          2
     1  H    0.343966   0.000723
     2  H    0.005794   0.992808
     3  F   -0.349759   0.006469
 Sum of Mulliken charges =   0.00000   1.00000

 Dipole moment (field-independent basis, Debye):
    X=             -2.2997    Y=             -0.0000    Z=             -0.0000  Tot=              2.2997
 Quadrupole moment (field-independent basis, Debye-Ang):
   XX=             -8.5009   YY=             -7.0873   ZZ=             -7.0873
   XY=             -0.0000   XZ=             -0.0000   YZ=              0.0000

  Exact polarizability:      10.618       0.000       2.360       0.000       0.000       2.360
 Approx polarizability:      13.535       0.000       2.322       0.000       0.000       2.322

 ******    1 imaginary frequencies (negative Signs) ******

                      1                      2                      3
                      A                      A                      A
 Frequencies --   -122.8066              1191.0895              1191.0895
 Red. masses --      1.0517                 1.0310                 1.0310
 Frc consts  --      0.0093                 0.8617                 0.8617
 IR Inten    --      1.2698               142.3378               142.3378

                      4
                      A
 Frequencies --   1446.9795
 Red. masses --      1.0599
 Frc consts  --      1.3075
 IR Inten    --    100.2743

 - Thermochemistry -
 -------------------
 Temperature   298.150 Kelvin.  Pressure   1.00000 Atm.
 Atom     1 has atomic number  1 and mass   1.00783

 Molecular mass:    21.01405 amu.
 Principal axes and moments of inertia in atomic units:
                           1         2         3
     Eigenvalues --     0.00000  55.09870  55.09870
           X            1.00000  -0.00000   0.00000
           Y            0.00000   1.00000   0.00000
           Z            0.00000   0.00000   1.00000
 This molecule is a prolate symmetric top.
 Rotational symmetry number  1.
 Rotational temperature (Kelvin)      1.57198
 Rotational constant (GHZ):          32.754696
    1 imaginary frequencies ignored.
 Zero-point vibrational energy      22903.5 (Joules/Mol)
                                    5.47406 (Kcal/Mol)
 Vibrational temperatures:   1713.71  1713.71  2081.88
          (Kelvin)

 Zero-point correction=                           0.008723 (Hartree/Particle)
 Thermal correction to Energy=                    0.011125
 Thermal correction to Enthalpy=                  0.012069
 Thermal correction to Gibbs Free Energy=        -0.011192
 Sum of electronic and zero-point Energies=           -100.928970
 Sum of electronic and thermal Energies=              -100.926569
 Sum of electronic and thermal Enthalpies=            -100.925625
 Sum of electronic and thermal Free Energies=         -100.948886

                     E (Thermal)             CV                S
                      KCal/Mol        Cal/Mol-Kelvin    Cal/Mol-Kelvin
 Total                    6.981              5.480             48.957
 Electronic               0.000              0.000              1.377
 Translational            0.889              2.981             35.068
 Rotational               0.592              1.987             12.411
 Vibrational              5.500              0.512              0.101

 Normal termination of Gaussian 16 at Fri Aug 22 16:08:15 2025.
