 Gaussian 16, Revision C.01,
 Gaussian 16:  ES64L-G16RevC.01  3-Jul-2019

 -----------------------------------------
 # sp b3lyp/6-311g** Force nosymm scf=(qc)
 -----------------------------------------

 -------------------
 Title Card Required
 -------------------
 Symbolic Z-matrix:
 Charge =  0 Multiplicity = 2

                          Input orientation:
 ---------------------------------------------------------------------
 Center     Atomic      Atomic             Coordinates (Angstroms)
 Number     Number       Type             X           Y           Z
 ---------------------------------------------------------------------
      1          1           0        0.000000    0.000000    0.000000
      2          1           0       -1.450000    0.000000    0.000000
      3          9           0        1.200000    0.000000    0.000000
 ---------------------------------------------------------------------

 SCF Done:  E(UB3LYP) =  -100.933566516     a.u. after    7 cycles

 Alpha  occ. eigenvalues --  -24.63571  -1.12175  -0.50038  -0.37700  -0.37011
 Alpha  occ. eigenvalues --   -0.37011
 Alpha virt. eigenvalues --    0.01639   0.20446   0.30067   0.93354   0.93354
 Alpha virt. eigenvalues --    1.00963   1.10236   1.14164   1.14164   1.42393
 Alpha virt. eigenvalues --    1.42393   1.54185   1.92598   2.27252   2.40056

  Beta  occ. eigenvalues --  -24.62955  -1.10610  -0.46461  -0.36446  -0.36446
  Beta virt. eigenvalues --   -0.19067   0.04971   0.24560   0.33181   0.93589
  Beta virt. eigenvalues --    0.93589   1.02369   1.17597   1.23241   1.23241
  Beta virt. eigenvalues --    1.46482   1.46482   1.56761   2.01580   2.31037

 Mulliken charges and spin densities:
               1          2
     1  H    0.301450  -0.047281
     2  H    0.054688   0.866669
     3  F   -0.356138   0.180613
 Sum of Mulliken charges =   0.00000   1.00000

 Dipole moment (field-independent basis, Debye):
    X=             -2.6805    Y=              0.0000    Z=              0.0000  Tot=              2.6805
 Quadrupole moment (field-independent basis, Debye-Ang):
   XX=             -7.9524   YY=             -6.9808   ZZ=             -6.9808
   XY=              0.0000   XZ=              0.0000   YZ=             -0.0000

  Exact polarizability:      20.172       0.000       2.452       0.000       0.000       2.452
 Approx polarizability:      25.295       0.000       2.428       0.000       0.000       2.428

 ******    1 imaginary frequencies (negative Signs) ******

                      1                      2                      3
                      A                      A                      A
 Frequencies --  -1648.1958               665.3740              1116.8262
 Red. masses --      1.0147                 1.1003                 1.0204
 Frc consts  --      1.6241                 0.2870                 0.7499
 IR Inten    --     28.1195                39.6337                65.1077

                      4
                      A
 Frequencies --   1116.8262
 Red. masses --      1.0204
 Frc consts  --      0.7499
 IR Inten    --     65.1077

 - Thermochemistry -
 -------------------
 Temperature   298.150 Kelvin.  Pressure   1.00000 Atm.
 Atom     1 has atomic number  1 and mass   1.00783

 Molecular mass:    21.01405 amu.
 Principal axes and moments of inertia in atomic units:
                           1         2         3
     Eigenvalues --     0.00000  27.89814  27.89814
           X            1.00000  -0.00000   0.00000
           Y            0.00000   1.00000   0.00000
           Z            0.00000   0.00000   1.00000
 This molecule is a prolate symmetric top.
 Rotational symmetry number  1.
 Rotational temperature (Kelvin)      3.10465
 Rotational constant (GHZ):          64.690369
    1 imaginary frequencies ignored.
 Zero-point vibrational energy      17340.0 (Joules/Mol)
                                    4.14437 (Kcal/Mol)
 Vibrational temperatures:    957.32  1606.86  1606.86
          (Kelvin)

 Zero-point correction=                           0.006604 (Hartree/Particle)
 Thermal correction to Energy=                    0.009139
 Thermal correction to Enthalpy=                  0.010083
 Thermal correction to Gibbs Free Energy=        -0.012709
 Sum of electronic and zero-point Energies=           -100.926962
 Sum of electronic and thermal Energies=              -100.924428
 Sum of electronic and thermal Enthalpies=            -100.923483
 Sum of electronic and thermal Free Energies=         -100.946275

                     E (Thermal)             CV                S
                      KCal/Mol        Cal/Mol-Kelvin    Cal/Mol-Kelvin
 Total                    5.735              6.397             47.970
 Electronic               0.000              0.000              1.377
 Translational            0.889              2.981             35.068
 Rotational               0.592              1.987             11.058
 Vibrational              4.254              1.429              0.466

 Normal termination of Gaussian 16 at Fri Aug 22 16:09:46 2025.
