 Gaussian 16, Revision C.01,
 Gaussian 16:  ES64L-G16RevC.01  3-Jul-2019

 -----------------------------------------
 # sp b3lyp/6-311g** Force nosymm scf=(qc)
 -----------------------------------------

 -------------------
 Title Card Required
 -------------------
 Symbolic Z-matrix:
 Charge =  0 Multiplicity = 2

                          Input orientation:
 ---------------------------------------------------------------------
 Center     Atomic      Atomic             Coordinates (Angstroms)
 Number     Number       Type             X           Y           Z
 ---------------------------------------------------------------------
      1          1           0        0.000000    0.000000    0.000000
      2          1           0       -3.900000    0.000000    0.000000
      3          9           0        1.150000    0.000000    0.000000
 ---------------------------------------------------------------------

 SCF Done:  E(UB3LYP) =  -100.937324035     a.u. after    6 cycles

 Alpha  occ. eigenvalues --  -24.64338  -1.13013  -0.48662  -0.37808  -0.37808
 Alpha  occ. eigenvalues --   -0.33508
 Alpha virt. eigenvalues --   -0.04140   0.22532   0.29946   0.93343   0.93343
 Alpha virt. eigenvalues --    1.00183   1.23948   1.24000   1.24000   1.27454
 Alpha virt. eigenvalues --    1.34918   1.34918   1.75379   2.13593   2.30149

  Beta  occ. eigenvalues --  -24.64337  -1.13009  -0.48659  -0.37807  -0.37807
  Beta virt. eigenvalues --   -0.06010  -0.03418   0.27886   0.39149   0.93343
  Beta virt. eigenvalues --    0.93343   1.00186   1.27451   1.34915   1.34915
  Beta virt. eigenvalues --    1.49254   1.49254   1.49532   1.75399   2.29522

 Mulliken charges and spin densities:
               1          2
     1  H    0.348143   0.000091
     2  H    0.000481   0.999481
     3  F   -0.348624   0.000428
 Sum of Mulliken charges =   0.00000   1.00000

 Dipole moment (field-independent basis, Debye):
    X=             -2.2234    Y=             -0.0000    Z=             -0.0000  Tot=              2.2234
 Quadrupole moment (field-independent basis, Debye-Ang):
   XX=             -8.7535   YY=             -7.0891   ZZ=             -7.0891
   XY=             -0.0000   XZ=             -0.0000   YZ=              0.0000

  Exact polarizability:       8.382       0.000       2.343       0.000      -0.000       2.343
 Approx polarizability:      11.572       0.000       2.301       0.000      -0.000       2.301

 ******    1 imaginary frequencies (negative Signs) ******

                      1                      2                      3
                      A                      A                      A
 Frequencies --    -34.8322              1212.3059              1212.3059
 Red. masses --      1.0532                 1.0365                 1.0365
 Frc consts  --      0.0008                 0.8975                 0.8975
 IR Inten    --      0.0225               153.8351               153.8351

                      4
                      A
 Frequencies --   1468.4413
 Red. masses --      1.0584
 Frc consts  --      1.3446
 IR Inten    --     69.1963

 - Thermochemistry -
 -------------------
 Temperature   298.150 Kelvin.  Pressure   1.00000 Atm.
 Atom     1 has atomic number  1 and mass   1.00783

 Molecular mass:    21.01405 amu.
 Principal axes and moments of inertia in atomic units:
                           1         2         3
     Eigenvalues --     0.00000  89.90839  89.90839
           X            1.00000  -0.00000   0.00000
           Y            0.00000   1.00000   0.00000
           Z            0.00000   0.00000   1.00000
 This molecule is a prolate symmetric top.
 Rotational symmetry number  1.
 Rotational temperature (Kelvin)      0.96336
 Rotational constant (GHZ):          20.073111
    1 imaginary frequencies ignored.
 Zero-point vibrational energy      23285.6 (Joules/Mol)
                                    5.56540 (Kcal/Mol)
 Vibrational temperatures:   1744.24  1744.24  2112.76
          (Kelvin)

 Zero-point correction=                           0.008869 (Hartree/Particle)
 Thermal correction to Energy=                    0.011267
 Thermal correction to Enthalpy=                  0.012211
 Thermal correction to Gibbs Free Energy=        -0.011508
 Sum of electronic and zero-point Energies=           -100.928455
 Sum of electronic and thermal Energies=              -100.926057
 Sum of electronic and thermal Enthalpies=            -100.925113
 Sum of electronic and thermal Free Energies=         -100.948832

                     E (Thermal)             CV                S
                      KCal/Mol        Cal/Mol-Kelvin    Cal/Mol-Kelvin
 Total                    7.070              5.446             49.921
 Electronic               0.000              0.000              1.377
 Translational            0.889              2.981             35.068
 Rotational               0.592              1.987             13.384
 Vibrational              5.589              0.478              0.092

 Normal termination of Gaussian 16 at Fri Aug 22 16:08:58 2025.
