 Gaussian 16, Revision C.01,
 Gaussian 16:  ES64L-G16RevC.01  3-Jul-2019

 -----------------------------------------
 # sp b3lyp/6-311g** Force nosymm scf=(qc)
 -----------------------------------------

 -------------------
 Title Card Required
 -------------------
 Symbolic Z-matrix:
 Charge =  0 Multiplicity = 2

                          Input orientation:
 ---------------------------------------------------------------------
 Center     Atomic      Atomic             Coordinates (Angstroms)
 Number     Number       Type             X           Y           Z
 ---------------------------------------------------------------------
      1          1           0        0.000000    0.000000    0.000000
      2          1           0       -0.550000    0.000000    0.000000
      3          9           0        2.850000    0.000000    0.000000
 ---------------------------------------------------------------------

 SCF Done:  E(UB3LYP) =  -100.894755950     a.u. after   95 cycles

 Alpha  occ. eigenvalues --  -24.76641  -1.22429  -0.55620  -0.47988  -0.46768
 Alpha  occ. eigenvalues --   -0.46551
 Alpha virt. eigenvalues --    0.09843   0.18927   0.54722   0.85858   0.90729
 Alpha virt. eigenvalues --    0.93908   1.09138   1.11248   1.11258   1.61977
 Alpha virt. eigenvalues --    1.83465   1.96378   1.96390   2.37599   3.64652

  Beta  occ. eigenvalues --  -24.73478  -1.13338  -0.47789  -0.43597  -0.43574
  Beta virt. eigenvalues --   -0.26237   0.09917   0.18973   0.54844   0.92227
  Beta virt. eigenvalues --    0.95312   0.95838   1.11248   1.11257   1.12642
  Beta virt. eigenvalues --    1.62000   1.83496   1.96377   1.96389   2.37607

 Mulliken charges and spin densities:
               1          2
     1  H   -0.009848  -0.002076
     2  H   -0.002049   0.000369
     3  F    0.011896   1.001707
 Sum of Mulliken charges =   0.00000   1.00000

 Dipole moment (field-independent basis, Debye):
    X=              0.1031    Y=             -0.0000    Z=              0.0000  Tot=              0.1031
 Quadrupole moment (field-independent basis, Debye-Ang):
   XX=             -5.9715   YY=             -5.9929   ZZ=             -6.4894
   XY=             -0.0000   XZ=              0.0000   YZ=             -0.3532

  Exact polarizability:       6.377      -0.000       2.207      -0.000      -0.187       1.944
 Approx polarizability:       6.739      -0.000       2.381       0.000      -0.234       2.052

 ******    2 imaginary frequencies (negative Signs) ******

                      1                      2                      3
                      A                      A                      A
 Frequencies --  -3686.8875             -3686.2923                97.7083
 Red. masses --      1.0086                 1.0086                 1.1085
 Frc consts  --      8.0777                 8.0751                 0.0062
 IR Inten    --      0.0716                 0.0732                 0.1789

                      4
                      A
 Frequencies --   8342.7790
 Red. masses --      1.0078
 Frc consts  --     41.3292
 IR Inten    --      0.4885

 - Thermochemistry -
 -------------------
 Temperature   298.150 Kelvin.  Pressure   1.00000 Atm.
 Atom     1 has atomic number  1 and mass   1.00783

 Molecular mass:    21.01405 amu.
 Principal axes and moments of inertia in atomic units:
                           1         2         3
     Eigenvalues --     0.00000  64.09503  64.09503
           X            1.00000  -0.00000   0.00000
           Y            0.00000   1.00000   0.00000
           Z            0.00000   0.00000   1.00000
 This molecule is a prolate symmetric top.
 Rotational symmetry number  1.
 Rotational temperature (Kelvin)      1.35134
 Rotational constant (GHZ):          28.157273
    2 imaginary frequencies ignored.
 Zero-point vibrational energy      50485.3 (Joules/Mol)
                                   12.06628 (Kcal/Mol)
 Warning -- explicit consideration of   1 degrees of freedom as
           vibrations may cause significant error
 Vibrational temperatures:    140.58 12003.40
          (Kelvin)

 Zero-point correction=                           0.019229 (Hartree/Particle)
 Thermal correction to Energy=                    0.022328
 Thermal correction to Enthalpy=                  0.023273
 Thermal correction to Gibbs Free Energy=        -0.001746
 Sum of electronic and zero-point Energies=           -100.875527
 Sum of electronic and thermal Energies=              -100.872428
 Sum of electronic and thermal Enthalpies=            -100.871483
 Sum of electronic and thermal Free Energies=         -100.896502

                     E (Thermal)             CV                S
                      KCal/Mol        Cal/Mol-Kelvin    Cal/Mol-Kelvin
 Total                   14.011              6.919             52.656
 Electronic               0.000              0.000              1.377
 Translational            0.889              2.981             35.068
 Rotational               0.592              1.987             12.711
 Vibrational             12.530              1.951              3.500
 Vibration     1          0.603              1.951              3.500

 Normal termination of Gaussian 16 at Fri Aug 22 18:45:49 2025.
