 Gaussian 16, Revision C.01,
 Gaussian 16:  ES64L-G16RevC.01  3-Jul-2019

 -----------------------------------------
 # sp b3lyp/6-311g** Force nosymm scf=(qc)
 -----------------------------------------

 -------------------
 Title Card Required
 -------------------
 Symbolic Z-matrix:
 Charge =  0 Multiplicity = 2

                          Input orientation:
 ---------------------------------------------------------------------
 Center     Atomic      Atomic             Coordinates (Angstroms)
 Number     Number       Type             X           Y           Z
 ---------------------------------------------------------------------
      1          1           0        0.000000    0.000000    0.000000
      2          1           0       -1.350000    0.000000    0.000000
      3          9           0        2.250000    0.000000    0.000000
 ---------------------------------------------------------------------

 SCF Done:  E(UB3LYP) =  -100.849652406     a.u. after   14 cycles

 Alpha  occ. eigenvalues --  -24.72931  -1.19102  -0.52265  -0.43751  -0.43751
 Alpha  occ. eigenvalues --   -0.37375
 Alpha virt. eigenvalues --   -0.08182   0.22772   0.32565   0.87542   0.92584
 Alpha virt. eigenvalues --    0.92584   1.04974   1.14123   1.14123   1.23488
 Alpha virt. eigenvalues --    1.44905   1.44905   1.92411   2.24654   2.50565

  Beta  occ. eigenvalues --  -24.70042  -1.10877  -0.40871  -0.40871  -0.36867
  Beta virt. eigenvalues --   -0.24949  -0.07018   0.23686   0.32917   0.93931
  Beta virt. eigenvalues --    0.93931   0.94012   1.07979   1.15016   1.15016
  Beta virt. eigenvalues --    1.26838   1.45576   1.45576   1.93401   2.25714

 Mulliken charges and spin densities:
               1          2
     1  H    0.026545  -0.165104
     2  H    0.045027   0.254487
     3  F   -0.071572   0.910617
 Sum of Mulliken charges =  -0.00000   1.00000

 Dipole moment (field-independent basis, Debye):
    X=             -1.0930    Y=             -0.0000    Z=             -0.0000  Tot=              1.0930
 Quadrupole moment (field-independent basis, Debye-Ang):
   XX=             -6.8344   YY=             -7.5447   ZZ=             -7.5447
   XY=             -0.0000   XZ=             -0.0000   YZ=             -0.0000

  Exact polarizability:      50.185      -0.000       2.108      -0.000       0.000       2.108
 Approx polarizability:      72.584       0.000       2.094       0.000       0.000       2.094

 ******    2 imaginary frequencies (negative Signs) ******

                      1                      2                      3
                      A                      A                      A
 Frequencies --  -1696.1198              -303.6533              1284.8217
 Red. masses --      1.0106                 1.1052                 1.0129
 Frc consts  --      1.7129                 0.0600                 0.9852
 IR Inten    --    911.5468                13.6840                 0.0126

                      4
                      A
 Frequencies --   1284.8217
 Red. masses --      1.0129
 Frc consts  --      0.9852
 IR Inten    --      0.0126

 - Thermochemistry -
 -------------------
 Temperature   298.150 Kelvin.  Pressure   1.00000 Atm.
 Atom     1 has atomic number  1 and mass   1.00783

 Molecular mass:    21.01405 amu.
 Principal axes and moments of inertia in atomic units:
                           1         2         3
     Eigenvalues --     0.00000  58.95609  58.95609
           X            1.00000  -0.00000   0.00000
           Y            0.00000   1.00000   0.00000
           Z            0.00000   0.00000   1.00000
 This molecule is a prolate symmetric top.
 Rotational symmetry number  1.
 Rotational temperature (Kelvin)      1.46913
 Rotational constant (GHZ):          30.611616
    2 imaginary frequencies ignored.
 Zero-point vibrational energy      15369.9 (Joules/Mol)
                                    3.67349 (Kcal/Mol)
 Vibrational temperatures:   1848.57  1848.57
          (Kelvin)

 Zero-point correction=                           0.005854 (Hartree/Particle)
 Thermal correction to Energy=                    0.008238
 Thermal correction to Enthalpy=                  0.009183
 Thermal correction to Gibbs Free Energy=        -0.014122
 Sum of electronic and zero-point Energies=           -100.843798
 Sum of electronic and thermal Energies=              -100.841414
 Sum of electronic and thermal Enthalpies=            -100.840470
 Sum of electronic and thermal Free Energies=         -100.863774

                     E (Thermal)             CV                S
                      KCal/Mol        Cal/Mol-Kelvin    Cal/Mol-Kelvin
 Total                    5.170              5.279             49.049
 Electronic               0.000              0.000              1.377
 Translational            0.889              2.981             35.068
 Rotational               0.592              1.987             12.545
 Vibrational              3.688              0.311              0.058

 Normal termination of Gaussian 16 at Fri Aug 22 17:15:49 2025.
