 Gaussian 16, Revision C.01,
 Gaussian 16:  ES64L-G16RevC.01  3-Jul-2019

 -----------------------------------------
 # sp b3lyp/6-311g** Force nosymm scf=(qc)
 -----------------------------------------

 -------------------
 Title Card Required
 -------------------
 Symbolic Z-matrix:
 Charge =  0 Multiplicity = 2

                          Input orientation:
 ---------------------------------------------------------------------
 Center     Atomic      Atomic             Coordinates (Angstroms)
 Number     Number       Type             X           Y           Z
 ---------------------------------------------------------------------
      1          1           0        0.000000    0.000000    0.000000
      2          1           0       -3.800000    0.000000    0.000000
      3          9           0        0.900000    0.000000    0.000000
 ---------------------------------------------------------------------

 SCF Done:  E(UB3LYP) =  -100.971444074     a.u. after    5 cycles

 Alpha  occ. eigenvalues --  -24.64004  -1.19055  -0.53866  -0.39664  -0.39664
 Alpha  occ. eigenvalues --   -0.33404
 Alpha virt. eigenvalues --    0.03113   0.24006   0.39659   0.94325   0.94325
 Alpha virt. eigenvalues --    0.97737   1.24009   1.24103   1.24103   1.29084
 Alpha virt. eigenvalues --    1.37254   1.37254   2.00283   2.14315   2.37178

  Beta  occ. eigenvalues --  -24.64003  -1.19054  -0.53865  -0.39663  -0.39663
  Beta virt. eigenvalues --   -0.05062   0.03405   0.37623   0.40918   0.94325
  Beta virt. eigenvalues --    0.94325   0.97736   1.28983   1.37253   1.37253
  Beta virt. eigenvalues --    1.50539   1.51015   1.51015   2.00443   2.37066

 Mulliken charges and spin densities:
               1          2
     1  H    0.295853   0.000356
     2  H    0.000482   0.999451
     3  F   -0.296335   0.000192
 Sum of Mulliken charges =   0.00000   1.00000

 Dipole moment (field-independent basis, Debye):
    X=             -1.8866    Y=             -0.0000    Z=              0.0000  Tot=              1.8866
 Quadrupole moment (field-independent basis, Debye-Ang):
   XX=             -7.9414   YY=             -6.8690   ZZ=             -6.8690
   XY=             -0.0000   XZ=              0.0000   YZ=              0.0000

  Exact polarizability:       5.354      -0.000       2.423      -0.000       0.000       2.423
 Approx polarizability:       6.306       0.000       2.400      -0.000       0.000       2.400

 ******    3 imaginary frequencies (negative Signs) ******

                      1                      2                      3
                      A                      A                      A
 Frequencies --   -626.7472              -626.7472               -32.8038
 Red. masses --      1.0397                 1.0397                 1.0532
 Frc consts  --      0.2406                 0.2406                 0.0007
 IR Inten    --    183.1545               183.1545                 0.0167

                      4
                      A
 Frequencies --   4432.3030
 Red. masses --      1.0583
 Frc consts  --     12.2497
 IR Inten    --     97.5584

 - Thermochemistry -
 -------------------
 Temperature   298.150 Kelvin.  Pressure   1.00000 Atm.
 Atom     1 has atomic number  1 and mass   1.00783

 Molecular mass:    21.01405 amu.
 Principal axes and moments of inertia in atomic units:
                           1         2         3
     Eigenvalues --     0.00000  77.00434  77.00434
           X            1.00000  -0.00000   0.00000
           Y            0.00000   1.00000   0.00000
           Z            0.00000   0.00000   1.00000
 This molecule is a prolate symmetric top.
 Rotational symmetry number  1.
 Rotational temperature (Kelvin)      1.12479
 Rotational constant (GHZ):          23.436876
    3 imaginary frequencies ignored.
 Zero-point vibrational energy      26511.1 (Joules/Mol)
                                    6.33630 (Kcal/Mol)
 Vibrational temperatures:   6377.10
          (Kelvin)

 Zero-point correction=                           0.010098 (Hartree/Particle)
 Thermal correction to Energy=                    0.012458
 Thermal correction to Enthalpy=                  0.013402
 Thermal correction to Gibbs Free Energy=        -0.010127
 Sum of electronic and zero-point Energies=           -100.961347
 Sum of electronic and thermal Energies=              -100.958986
 Sum of electronic and thermal Enthalpies=            -100.958042
 Sum of electronic and thermal Free Energies=         -100.981571

                     E (Thermal)             CV                S
                      KCal/Mol        Cal/Mol-Kelvin    Cal/Mol-Kelvin
 Total                    7.818              4.968             49.521
 Electronic               0.000              0.000              1.377
 Translational            0.889              2.981             35.068
 Rotational               0.592              1.987             13.076
 Vibrational              6.336              0.000              0.000

 Normal termination of Gaussian 16 at Fri Aug 22 15:56:57 2025.
