 Gaussian 16, Revision C.01,
 Gaussian 16:  ES64L-G16RevC.01  3-Jul-2019

 -----------------------------------------
 # sp b3lyp/6-311g** Force nosymm scf=(qc)
 -----------------------------------------

 -------------------
 Title Card Required
 -------------------
 Symbolic Z-matrix:
 Charge =  0 Multiplicity = 2

                          Input orientation:
 ---------------------------------------------------------------------
 Center     Atomic      Atomic             Coordinates (Angstroms)
 Number     Number       Type             X           Y           Z
 ---------------------------------------------------------------------
      1          1           0        0.000000    0.000000    0.000000
      2          1           0       -1.750000    0.000000    0.000000
      3          9           0        1.950000    0.000000    0.000000
 ---------------------------------------------------------------------

 SCF Done:  E(UB3LYP) =  -100.815607284     a.u. after   14 cycles

 Alpha  occ. eigenvalues --  -24.68153  -1.14513  -0.47433  -0.39696  -0.39696
 Alpha  occ. eigenvalues --   -0.37403
 Alpha virt. eigenvalues --   -0.12519   0.23107   0.30535   0.86024   0.94709
 Alpha virt. eigenvalues --    0.94709   1.03424   1.19858   1.19858   1.29004
 Alpha virt. eigenvalues --    1.34615   1.34615   1.69324   2.13981   2.36065

  Beta  occ. eigenvalues --  -24.65777  -1.07875  -0.37602  -0.37355  -0.37355
  Beta virt. eigenvalues --   -0.22114  -0.10898   0.25740   0.30378   0.89041
  Beta virt. eigenvalues --    0.95426   0.95426   1.07531   1.22575   1.22575
  Beta virt. eigenvalues --    1.35398   1.35398   1.35466   1.69639   2.14775

 Mulliken charges and spin densities:
               1          2
     1  H    0.130054  -0.521414
     2  H    0.059030   0.775369
     3  F   -0.189084   0.746045
 Sum of Mulliken charges =   0.00000   1.00000

 Dipole moment (field-independent basis, Debye):
    X=             -2.3231    Y=              0.0000    Z=              0.0000  Tot=              2.3231
 Quadrupole moment (field-independent basis, Debye-Ang):
   XX=             -8.3163   YY=             -7.5330   ZZ=             -7.5330
   XY=             -0.0000   XZ=             -0.0000   YZ=             -0.0000

  Exact polarizability:      51.831      -0.000       2.090      -0.000       0.000       2.090
 Approx polarizability:      69.640      -0.000       2.012      -0.000      -0.000       2.012

 ******    2 imaginary frequencies (negative Signs) ******

                      1                      2                      3
                      A                      A                      A
 Frequencies --  -1957.5681              -588.2076               827.8877
 Red. masses --      1.0148                 1.1002                 1.0167
 Frc consts  --      2.2911                 0.2243                 0.4106
 IR Inten    --    289.5525                26.0198                 8.0128

                      4
                      A
 Frequencies --    827.8877
 Red. masses --      1.0167
 Frc consts  --      0.4106
 IR Inten    --      8.0128

 - Thermochemistry -
 -------------------
 Temperature   298.150 Kelvin.  Pressure   1.00000 Atm.
 Atom     1 has atomic number  1 and mass   1.00783

 Molecular mass:    21.01405 amu.
 Principal axes and moments of inertia in atomic units:
                           1         2         3
     Eigenvalues --     0.00000  57.44561  57.44561
           X            1.00000  -0.00000   0.00000
           Y            0.00000   1.00000   0.00000
           Z            0.00000   0.00000   1.00000
 This molecule is a prolate symmetric top.
 Rotational symmetry number  1.
 Rotational temperature (Kelvin)      1.50776
 Rotational constant (GHZ):          31.416519
    2 imaginary frequencies ignored.
 Zero-point vibrational energy       9903.7 (Joules/Mol)
                                    2.36705 (Kcal/Mol)
 Vibrational temperatures:   1191.15  1191.15
          (Kelvin)

 Zero-point correction=                           0.003772 (Hartree/Particle)
 Thermal correction to Energy=                    0.006274
 Thermal correction to Enthalpy=                  0.007218
 Thermal correction to Gibbs Free Energy=        -0.016211
 Sum of electronic and zero-point Energies=           -100.811835
 Sum of electronic and thermal Energies=              -100.809333
 Sum of electronic and thermal Enthalpies=            -100.808389
 Sum of electronic and thermal Free Energies=         -100.831818

                     E (Thermal)             CV                S
                      KCal/Mol        Cal/Mol-Kelvin    Cal/Mol-Kelvin
 Total                    3.937              6.180             49.310
 Electronic               0.000              0.000              1.377
 Translational            0.889              2.981             35.068
 Rotational               0.592              1.987             12.494
 Vibrational              2.456              1.212              0.372

 Normal termination of Gaussian 16 at Fri Aug 22 16:53:05 2025.
