 Gaussian 16, Revision C.01,
 Gaussian 16:  ES64L-G16RevC.01  3-Jul-2019

 -----------------------------------------
 # sp b3lyp/6-311g** Force nosymm scf=(qc)
 -----------------------------------------

 -------------------
 Title Card Required
 -------------------
 Symbolic Z-matrix:
 Charge =  0 Multiplicity = 2

                          Input orientation:
 ---------------------------------------------------------------------
 Center     Atomic      Atomic             Coordinates (Angstroms)
 Number     Number       Type             X           Y           Z
 ---------------------------------------------------------------------
      1          1           0        0.000000    0.000000    0.000000
      2          1           0       -0.600000    0.000000    0.000000
      3          9           0        1.350000    0.000000    0.000000
 ---------------------------------------------------------------------

 SCF Done:  E(UB3LYP) =  -100.909742631     a.u. after    7 cycles

 Alpha  occ. eigenvalues --  -24.70636  -1.18583  -0.60225  -0.42692  -0.42692
 Alpha  occ. eigenvalues --   -0.42142
 Alpha virt. eigenvalues --    0.11924   0.19298   0.52542   0.87806   0.87806
 Alpha virt. eigenvalues --    0.96275   1.11418   1.11418   1.44360   1.61962
 Alpha virt. eigenvalues --    1.86376   1.90279   1.90279   2.44353   3.71146

  Beta  occ. eigenvalues --  -24.68034  -1.11608  -0.52223  -0.40202  -0.40202
  Beta virt. eigenvalues --   -0.21864   0.13019   0.20049   0.55527   0.89092
  Beta virt. eigenvalues --    0.89092   1.02021   1.13923   1.13923   1.48242
  Beta virt. eigenvalues --    1.65260   1.87416   1.91922   1.91922   2.48203

 Mulliken charges and spin densities:
               1          2
     1  H    0.181932  -0.023499
     2  H   -0.017488   0.261744
     3  F   -0.164444   0.761755
 Sum of Mulliken charges =   0.00000   1.00000

 Dipole moment (field-independent basis, Debye):
    X=             -1.1002    Y=             -0.0000    Z=             -0.0000  Tot=              1.1002
 Quadrupole moment (field-independent basis, Debye-Ang):
   XX=             -6.8772   YY=             -6.5571   ZZ=             -6.5571
   XY=              0.0000   XZ=             -0.0000   YZ=              0.0000

  Exact polarizability:      15.148       0.000       2.325      -0.000       0.000       2.325
 Approx polarizability:      18.515       0.000       2.379      -0.000       0.000       2.379

 ******    2 imaginary frequencies (negative Signs) ******

                      1                      2                      3
                      A                      A                      A
 Frequencies --  -3008.8009             -3008.8009               727.1569
 Red. masses --      1.0111                 1.0111                 1.1084
 Frc consts  --      5.3928                 5.3928                 0.3453
 IR Inten    --      1.2256                 1.2256                54.9473

                      4
                      A
 Frequencies --   6767.4995
 Red. masses --      1.0079
 Frc consts  --     27.1972
 IR Inten    --    521.8494

 - Thermochemistry -
 -------------------
 Temperature   298.150 Kelvin.  Pressure   1.00000 Atm.
 Atom     1 has atomic number  1 and mass   1.00783

 Molecular mass:    21.01405 amu.
 Principal axes and moments of inertia in atomic units:
                           1         2         3
     Eigenvalues --     0.00000  18.36473  18.36473
           X            1.00000  -0.00000   0.00000
           Y            0.00000   1.00000   0.00000
           Z            0.00000   0.00000   1.00000
 This molecule is a prolate symmetric top.
 Rotational symmetry number  1.
 Rotational temperature (Kelvin)      4.71632
 Rotational constant (GHZ):          98.272114
    2 imaginary frequencies ignored.
 Zero-point vibrational energy      44828.0 (Joules/Mol)
                                   10.71415 (Kcal/Mol)
 Vibrational temperatures:   1046.22  9736.92
          (Kelvin)

 Zero-point correction=                           0.017074 (Hartree/Particle)
 Thermal correction to Energy=                    0.019537
 Thermal correction to Enthalpy=                  0.020481
 Thermal correction to Gibbs Free Energy=        -0.001826
 Sum of electronic and zero-point Energies=           -100.892669
 Sum of electronic and thermal Energies=              -100.890206
 Sum of electronic and thermal Enthalpies=            -100.889262
 Sum of electronic and thermal Free Energies=         -100.911568

                     E (Thermal)             CV                S
                      KCal/Mol        Cal/Mol-Kelvin    Cal/Mol-Kelvin
 Total                   12.259              5.746             46.948
 Electronic               0.000              0.000              1.377
 Translational            0.889              2.981             35.068
 Rotational               0.592              1.987             10.227
 Vibrational             10.778              0.778              0.275

 Normal termination of Gaussian 16 at Fri Aug 22 16:16:30 2025.
