 Gaussian 16, Revision C.01,
 Gaussian 16:  ES64L-G16RevC.01  3-Jul-2019

 -----------------------------------------
 # sp b3lyp/6-311g** Force nosymm scf=(qc)
 -----------------------------------------

 -------------------
 Title Card Required
 -------------------
 Symbolic Z-matrix:
 Charge =  0 Multiplicity = 2

                          Input orientation:
 ---------------------------------------------------------------------
 Center     Atomic      Atomic             Coordinates (Angstroms)
 Number     Number       Type             X           Y           Z
 ---------------------------------------------------------------------
      1          1           0        0.000000    0.000000    0.000000
      2          1           0       -1.100000    0.000000    0.000000
      3          9           0        1.950000    0.000000    0.000000
 ---------------------------------------------------------------------

 SCF Done:  E(UB3LYP) =  -100.895655206     a.u. after   12 cycles

 Alpha  occ. eigenvalues --  -24.72549  -1.18827  -0.52469  -0.43493  -0.43493
 Alpha  occ. eigenvalues --   -0.40186
 Alpha virt. eigenvalues --   -0.01839   0.21361   0.35316   0.90373   0.91703
 Alpha virt. eigenvalues --    0.91703   1.08077   1.08487   1.08487   1.45499
 Alpha virt. eigenvalues --    1.57472   1.57472   2.15914   2.30884   2.55461

  Beta  occ. eigenvalues --  -24.69729  -1.10849  -0.40694  -0.40694  -0.40103
  Beta virt. eigenvalues --   -0.24919  -0.00292   0.22261   0.35889   0.92934
  Beta virt. eigenvalues --    0.92934   0.97407   1.09779   1.09779   1.10960
  Beta virt. eigenvalues --    1.48397   1.58335   1.58335   2.17537   2.32255

 Mulliken charges and spin densities:
               1          2
     1  H    0.041756  -0.087922
     2  H    0.048299   0.204856
     3  F   -0.090055   0.883067
 Sum of Mulliken charges =   0.00000   1.00000

 Dipole moment (field-independent basis, Debye):
    X=             -1.1041    Y=             -0.0000    Z=              0.0000  Tot=              1.1041
 Quadrupole moment (field-independent basis, Debye-Ang):
   XX=             -6.7810   YY=             -7.2809   ZZ=             -7.2809
   XY=             -0.0000   XZ=              0.0000   YZ=              0.0000

  Exact polarizability:      35.898       0.000       2.191       0.000      -0.000       2.191
 Approx polarizability:      49.753       0.000       2.197      -0.000      -0.000       2.197

 ******    1 imaginary frequencies (negative Signs) ******

                      1                      2                      3
                      A                      A                      A
 Frequencies --   -961.4322               568.5549              1425.2390
 Red. masses --      1.0492                 1.0624                 1.0125
 Frc consts  --      0.5714                 0.2023                 1.2118
 IR Inten    --    753.2747               144.2707                 0.0421

                      4
                      A
 Frequencies --   1425.2390
 Red. masses --      1.0125
 Frc consts  --      1.2118
 IR Inten    --      0.0421

 - Thermochemistry -
 -------------------
 Temperature   298.150 Kelvin.  Pressure   1.00000 Atm.
 Atom     1 has atomic number  1 and mass   1.00783

 Molecular mass:    21.01405 amu.
 Principal axes and moments of inertia in atomic units:
                           1         2         3
     Eigenvalues --     0.00000  42.84983  42.84983
           X            1.00000  -0.00000   0.00000
           Y            0.00000   1.00000   0.00000
           Z            0.00000   0.00000   1.00000
 This molecule is a prolate symmetric top.
 Rotational symmetry number  1.
 Rotational temperature (Kelvin)      2.02134
 Rotational constant (GHZ):          42.117811
    1 imaginary frequencies ignored.
 Zero-point vibrational energy      20450.4 (Joules/Mol)
                                    4.88775 (Kcal/Mol)
 Warning -- explicit consideration of   1 degrees of freedom as
           vibrations may cause significant error
 Vibrational temperatures:    818.02  2050.60  2050.60
          (Kelvin)

 Zero-point correction=                           0.007789 (Hartree/Particle)
 Thermal correction to Energy=                    0.010341
 Thermal correction to Enthalpy=                  0.011285
 Thermal correction to Gibbs Free Energy=        -0.011947
 Sum of electronic and zero-point Energies=           -100.887866
 Sum of electronic and thermal Energies=              -100.885314
 Sum of electronic and thermal Enthalpies=            -100.884370
 Sum of electronic and thermal Free Energies=         -100.907602

                     E (Thermal)             CV                S
                      KCal/Mol        Cal/Mol-Kelvin    Cal/Mol-Kelvin
 Total                    6.489              6.261             48.896
 Electronic               0.000              0.000              1.377
 Translational            0.889              2.981             35.068
 Rotational               0.592              1.987             11.911
 Vibrational              5.008              1.293              0.539
 Vibration     1          0.925              1.099              0.507

 Normal termination of Gaussian 16 at Fri Aug 22 16:52:27 2025.
