 Gaussian 16, Revision C.01,
 Gaussian 16:  ES64L-G16RevC.01  3-Jul-2019

 -----------------------------------------
 # sp b3lyp/6-311g** Force nosymm scf=(qc)
 -----------------------------------------

 -------------------
 Title Card Required
 -------------------
 Symbolic Z-matrix:
 Charge =  0 Multiplicity = 2

                          Input orientation:
 ---------------------------------------------------------------------
 Center     Atomic      Atomic             Coordinates (Angstroms)
 Number     Number       Type             X           Y           Z
 ---------------------------------------------------------------------
      1          1           0        0.000000    0.000000    0.000000
      2          1           0       -2.900000    0.000000    0.000000
      3          9           0        1.700000    0.000000    0.000000
 ---------------------------------------------------------------------

 SCF Done:  E(UB3LYP) =  -100.818307497     a.u. after   17 cycles

 Alpha  occ. eigenvalues --  -24.65662  -1.11677  -0.44348  -0.37511  -0.37511
 Alpha  occ. eigenvalues --   -0.34665
 Alpha virt. eigenvalues --   -0.15006   0.22221   0.28914   0.94613   0.94613
 Alpha virt. eigenvalues --    0.96593   1.06502   1.22883   1.22883   1.23768
 Alpha virt. eigenvalues --    1.33124   1.33124   1.73337   2.13698   2.24096

  Beta  occ. eigenvalues --  -24.64156  -1.07571  -0.40129  -0.36052  -0.36052
  Beta virt. eigenvalues --   -0.18441  -0.08440   0.23004   0.36437   0.94374
  Beta virt. eigenvalues --    0.94374   0.97457   1.07905   1.25466   1.25466
  Beta virt. eigenvalues --    1.43605   1.43783   1.43783   1.69909   2.13362

 Mulliken charges and spin densities:
               1          2
     1  H    0.284797  -0.463753
     2  H    0.008856   0.988948
     3  F   -0.293653   0.474805
 Sum of Mulliken charges =  -0.00000   1.00000

 Dipole moment (field-independent basis, Debye):
    X=             -2.5551    Y=              0.0000    Z=             -0.0000  Tot=              2.5551
 Quadrupole moment (field-independent basis, Debye-Ang):
   XX=             -9.8776   YY=             -7.4172   ZZ=             -7.4172
   XY=             -0.0000   XZ=             -0.0000   YZ=             -0.0000

  Exact polarizability:      26.097      -0.000       2.122       0.000       0.000       2.122
 Approx polarizability:      38.697       0.000       2.023      -0.000      -0.000       2.023

 ******    2 imaginary frequencies (negative Signs) ******

                      1                      2                      3
                      A                      A                      A
 Frequencies --  -1740.1987              -225.4935               765.7267
 Red. masses --      1.0556                 1.0560                 1.0255
 Frc consts  --      1.8833                 0.0316                 0.3543
 IR Inten    --     94.7350                 3.2690                72.1724

                      4
                      A
 Frequencies --    765.7267
 Red. masses --      1.0255
 Frc consts  --      0.3543
 IR Inten    --     72.1724

 - Thermochemistry -
 -------------------
 Temperature   298.150 Kelvin.  Pressure   1.00000 Atm.
 Atom     1 has atomic number  1 and mass   1.00783

 Molecular mass:    21.01405 amu.
 Principal axes and moments of inertia in atomic units:
                           1         2         3
     Eigenvalues --     0.00000  79.70539  79.70539
           X            1.00000  -0.00000   0.00000
           Y            0.00000   1.00000   0.00000
           Z            0.00000   0.00000   1.00000
 This molecule is a prolate symmetric top.
 Rotational symmetry number  1.
 Rotational temperature (Kelvin)      1.08668
 Rotational constant (GHZ):          22.642650
    2 imaginary frequencies ignored.
 Zero-point vibrational energy       9160.1 (Joules/Mol)
                                    2.18932 (Kcal/Mol)
 Vibrational temperatures:   1101.71  1101.71
          (Kelvin)

 Zero-point correction=                           0.003489 (Hartree/Particle)
 Thermal correction to Energy=                    0.006027
 Thermal correction to Enthalpy=                  0.006971
 Thermal correction to Gibbs Free Energy=        -0.016816
 Sum of electronic and zero-point Energies=           -100.814819
 Sum of electronic and thermal Energies=              -100.812280
 Sum of electronic and thermal Enthalpies=            -100.811336
 Sum of electronic and thermal Free Energies=         -100.835123

                     E (Thermal)             CV                S
                      KCal/Mol        Cal/Mol-Kelvin    Cal/Mol-Kelvin
 Total                    3.782              6.386             50.064
 Electronic               0.000              0.000              1.377
 Translational            0.889              2.981             35.068
 Rotational               0.592              1.987             13.144
 Vibrational              2.301              1.418              0.474

 Normal termination of Gaussian 16 at Fri Aug 22 16:38:15 2025.
