 Gaussian 16, Revision C.01,
 Gaussian 16:  ES64L-G16RevC.01  3-Jul-2019

 -----------------------------------------
 # sp b3lyp/6-311g** Force nosymm scf=(qc)
 -----------------------------------------

 -------------------
 Title Card Required
 -------------------
 Symbolic Z-matrix:
 Charge =  0 Multiplicity = 2

                          Input orientation:
 ---------------------------------------------------------------------
 Center     Atomic      Atomic             Coordinates (Angstroms)
 Number     Number       Type             X           Y           Z
 ---------------------------------------------------------------------
      1          1           0        0.000000    0.000000    0.000000
      2          1           0       -1.450000    0.000000    0.000000
      3          9           0        1.850000    0.000000    0.000000
 ---------------------------------------------------------------------

 SCF Done:  E(UB3LYP) =  -100.848447725     a.u. after   13 cycles

 Alpha  occ. eigenvalues --  -24.68753  -1.15192  -0.48644  -0.40285  -0.40285
 Alpha  occ. eigenvalues --   -0.38661
 Alpha virt. eigenvalues --   -0.09223   0.21815   0.30785   0.87294   0.93633
 Alpha virt. eigenvalues --    0.93633   1.03264   1.15049   1.15049   1.35753
 Alpha virt. eigenvalues --    1.40623   1.40623   1.88904   2.21163   2.45465

  Beta  occ. eigenvalues --  -24.66351  -1.08490  -0.38552  -0.37920  -0.37920
  Beta virt. eigenvalues --   -0.23301  -0.07077   0.24005   0.30895   0.91391
  Beta virt. eigenvalues --    0.94398   0.94398   1.07284   1.17841   1.17841
  Beta virt. eigenvalues --    1.40349   1.41599   1.41599   1.91268   2.22150

 Mulliken charges and spin densities:
               1          2
     1  H    0.115116  -0.310480
     2  H    0.067971   0.558783
     3  F   -0.183087   0.751697
 Sum of Mulliken charges =   0.00000   1.00000

 Dipole moment (field-independent basis, Debye):
    X=             -2.1342    Y=             -0.0000    Z=              0.0000  Tot=              2.1342
 Quadrupole moment (field-independent basis, Debye-Ang):
   XX=             -7.7729   YY=             -7.4437   ZZ=             -7.4437
   XY=             -0.0000   XZ=              0.0000   YZ=              0.0000

  Exact polarizability:      47.510      -0.000       2.169       0.000      -0.000       2.169
 Approx polarizability:      73.525       0.000       2.118      -0.000      -0.000       2.118

 ******    2 imaginary frequencies (negative Signs) ******

                      1                      2                      3
                      A                      A                      A
 Frequencies --  -2269.0461              -485.5634              1112.8845
 Red. masses --      1.0147                 1.1003                 1.0153
 Frc consts  --      3.0782                 0.1528                 0.7408
 IR Inten    --    873.9345                 4.1395                 3.8538

                      4
                      A
 Frequencies --   1112.8845
 Red. masses --      1.0153
 Frc consts  --      0.7408
 IR Inten    --      3.8538

 - Thermochemistry -
 -------------------
 Temperature   298.150 Kelvin.  Pressure   1.00000 Atm.
 Atom     1 has atomic number  1 and mass   1.00783

 Molecular mass:    21.01405 amu.
 Principal axes and moments of inertia in atomic units:
                           1         2         3
     Eigenvalues --     0.00000  46.93284  46.93284
           X            1.00000  -0.00000   0.00000
           Y            0.00000   1.00000   0.00000
           Z            0.00000   0.00000   1.00000
 This molecule is a prolate symmetric top.
 Rotational symmetry number  1.
 Rotational temperature (Kelvin)      1.84549
 Rotational constant (GHZ):          38.453695
    2 imaginary frequencies ignored.
 Zero-point vibrational energy      13313.1 (Joules/Mol)
                                    3.18190 (Kcal/Mol)
 Vibrational temperatures:   1601.19  1601.19
          (Kelvin)

 Zero-point correction=                           0.005071 (Hartree/Particle)
 Thermal correction to Energy=                    0.007479
 Thermal correction to Enthalpy=                  0.008423
 Thermal correction to Gibbs Free Energy=        -0.014695
 Sum of electronic and zero-point Energies=           -100.843377
 Sum of electronic and thermal Energies=              -100.840969
 Sum of electronic and thermal Enthalpies=            -100.840025
 Sum of electronic and thermal Free Energies=         -100.863143

                     E (Thermal)             CV                S
                      KCal/Mol        Cal/Mol-Kelvin    Cal/Mol-Kelvin
 Total                    4.693              5.506             48.656
 Electronic               0.000              0.000              1.377
 Translational            0.889              2.981             35.068
 Rotational               0.592              1.987             12.092
 Vibrational              3.212              0.538              0.118

 Normal termination of Gaussian 16 at Fri Aug 22 16:46:12 2025.
