 Gaussian 16, Revision C.01,
 Gaussian 16:  ES64L-G16RevC.01  3-Jul-2019

 -----------------------------------------
 # sp b3lyp/6-311g** Force nosymm scf=(qc)
 -----------------------------------------

 -------------------
 Title Card Required
 -------------------
 Symbolic Z-matrix:
 Charge =  0 Multiplicity = 2

                          Input orientation:
 ---------------------------------------------------------------------
 Center     Atomic      Atomic             Coordinates (Angstroms)
 Number     Number       Type             X           Y           Z
 ---------------------------------------------------------------------
      1          1           0        0.000000    0.000000    0.000000
      2          1           0       -3.000000    0.000000    0.000000
      3          9           0        1.800000    0.000000    0.000000
 ---------------------------------------------------------------------

 SCF Done:  E(UB3LYP) =  -100.805373671     a.u. after   21 cycles

 Alpha  occ. eigenvalues --  -24.66544  -1.12731  -0.45351  -0.38297  -0.38297
 Alpha  occ. eigenvalues --   -0.34307
 Alpha virt. eigenvalues --   -0.14815   0.22323   0.29908   0.93086   0.94811
 Alpha virt. eigenvalues --    0.94811   1.06058   1.23236   1.23236   1.23916
 Alpha virt. eigenvalues --    1.33712   1.33712   1.69850   2.13933   2.26149

  Beta  occ. eigenvalues --  -24.64639  -1.07485  -0.39285  -0.36438  -0.36438
  Beta virt. eigenvalues --   -0.19301  -0.08236   0.22864   0.36744   0.93926
  Beta virt. eigenvalues --    0.94829   0.94829   1.08114   1.23852   1.23852
  Beta virt. eigenvalues --    1.43878   1.44213   1.44213   1.65247   2.12904

 Mulliken charges and spin densities:
               1          2
     1  H    0.250343  -0.590539
     2  H    0.006701   0.991222
     3  F   -0.257044   0.599317
 Sum of Mulliken charges =   0.00000   1.00000

 Dipole moment (field-independent basis, Debye):
    X=             -2.3558    Y=              0.0000    Z=             -0.0000  Tot=              2.3558
 Quadrupole moment (field-independent basis, Debye-Ang):
   XX=             -9.9339   YY=             -7.4480   ZZ=             -7.4480
   XY=              0.0000   XZ=             -0.0000   YZ=             -0.0000

  Exact polarizability:      26.916       0.000       2.097      -0.000      -0.000       2.097
 Approx polarizability:      38.705       0.000       1.989      -0.000       0.000       1.989

 ******    2 imaginary frequencies (negative Signs) ******

                      1                      2                      3
                      A                      A                      A
 Frequencies --  -1523.5170              -211.2725               652.6957
 Red. masses --      1.0558                 1.0558                 1.0251
 Frc consts  --      1.4438                 0.0278                 0.2573
 IR Inten    --    119.0132                 2.3976                56.0557

                      4
                      A
 Frequencies --    652.6957
 Red. masses --      1.0251
 Frc consts  --      0.2573
 IR Inten    --     56.0557

 - Thermochemistry -
 -------------------
 Temperature   298.150 Kelvin.  Pressure   1.00000 Atm.
 Atom     1 has atomic number  1 and mass   1.00783

 Molecular mass:    21.01405 amu.
 Principal axes and moments of inertia in atomic units:
                           1         2         3
     Eigenvalues --     0.00000  87.06319  87.06319
           X            1.00000  -0.00000   0.00000
           Y            0.00000   1.00000   0.00000
           Z            0.00000   0.00000   1.00000
 This molecule is a prolate symmetric top.
 Rotational symmetry number  1.
 Rotational temperature (Kelvin)      0.99484
 Rotational constant (GHZ):          20.729096
    2 imaginary frequencies ignored.
 Zero-point vibrational energy       7808.0 (Joules/Mol)
                                    1.86615 (Kcal/Mol)
 Vibrational temperatures:    939.08   939.08
          (Kelvin)

 Zero-point correction=                           0.002974 (Hartree/Particle)
 Thermal correction to Energy=                    0.005601
 Thermal correction to Enthalpy=                  0.006545
 Thermal correction to Gibbs Free Energy=        -0.017449
 Sum of electronic and zero-point Energies=           -100.802400
 Sum of electronic and thermal Energies=              -100.799773
 Sum of electronic and thermal Enthalpies=            -100.798829
 Sum of electronic and thermal Free Energies=         -100.822823

                     E (Thermal)             CV                S
                      KCal/Mol        Cal/Mol-Kelvin    Cal/Mol-Kelvin
 Total                    3.515              6.813             50.500
 Electronic               0.000              0.000              1.377
 Translational            0.889              2.981             35.068
 Rotational               0.592              1.987             13.320
 Vibrational              2.033              1.845              0.735

 Normal termination of Gaussian 16 at Fri Aug 22 16:44:29 2025.
