 Gaussian 16, Revision C.01,
 Gaussian 16:  ES64L-G16RevC.01  3-Jul-2019

 -----------------------------------------
 # sp b3lyp/6-311g** Force nosymm scf=(qc)
 -----------------------------------------

 -------------------
 Title Card Required
 -------------------
 Symbolic Z-matrix:
 Charge =  0 Multiplicity = 2

                          Input orientation:
 ---------------------------------------------------------------------
 Center     Atomic      Atomic             Coordinates (Angstroms)
 Number     Number       Type             X           Y           Z
 ---------------------------------------------------------------------
      1          1           0        0.000000    0.000000    0.000000
      2          1           0       -1.250000    0.000000    0.000000
      3          9           0        3.200000    0.000000    0.000000
 ---------------------------------------------------------------------

 SCF Done:  E(UB3LYP) =  -100.863072918     a.u. after  103 cycles

 Alpha  occ. eigenvalues --  -24.76552  -1.22395  -0.55589  -0.46811  -0.46741
 Alpha  occ. eigenvalues --   -0.35703
 Alpha virt. eigenvalues --   -0.05017   0.23275   0.33507   0.85842   0.90717
 Alpha virt. eigenvalues --    0.92945   1.02467   1.14189   1.14194   1.18892
 Alpha virt. eigenvalues --    1.51945   1.51950   2.03634   2.30668   2.54427

  Beta  occ. eigenvalues --  -24.73393  -1.13314  -0.43648  -0.43574  -0.35696
  Beta virt. eigenvalues --   -0.26222  -0.05006   0.23291   0.33564   0.92216
  Beta virt. eigenvalues --    0.94526   0.95303   1.06455   1.14188   1.14193
  Beta virt. eigenvalues --    1.18904   1.51944   1.51949   2.03643   2.30671

 Mulliken charges and spin densities:
               1          2
     1  H   -0.000699  -0.000156
     2  H   -0.004840  -0.000541
     3  F    0.005540   1.000698
 Sum of Mulliken charges =  -0.00000   1.00000

 Dipole moment (field-independent basis, Debye):
    X=              0.0794    Y=             -0.0000    Z=              0.0000  Tot=              0.0794
 Quadrupole moment (field-independent basis, Debye-Ang):
   XX=             -6.1894   YY=             -7.3688   ZZ=             -6.8665
   XY=              0.0000   XZ=             -0.0000   YZ=             -0.3514

  Exact polarizability:      17.389      -0.000       2.174       0.000      -0.188       2.443
 Approx polarizability:      26.935       0.000       2.221      -0.000      -0.236       2.559

 ******    1 imaginary frequencies (negative Signs) ******

                      1                      2                      3
                      A                      A                      A
 Frequencies --   -787.7061                38.2676              1432.6298
 Red. masses --      1.0078                 1.1085                 1.0105
 Frc consts  --      0.3684                 0.0010                 1.2219
 IR Inten    --      0.5042                 0.3575                 0.0016

                      4
                      A
 Frequencies --   1433.5753
 Red. masses --      1.0105
 Frc consts  --      1.2235
 IR Inten    --      0.0017

 - Thermochemistry -
 -------------------
 Temperature   298.150 Kelvin.  Pressure   1.00000 Atm.
 Atom     1 has atomic number  1 and mass   1.00783

 Molecular mass:    21.01405 amu.
 Principal axes and moments of inertia in atomic units:
                           1         2         3
     Eigenvalues --     0.00000  98.02183  98.02183
           X            1.00000  -0.00000   0.00000
           Y            0.00000   1.00000   0.00000
           Z            0.00000   0.00000   1.00000
 This molecule is a prolate symmetric top.
 Rotational symmetry number  1.
 Rotational temperature (Kelvin)      0.88362
 Rotational constant (GHZ):          18.411626
    1 imaginary frequencies ignored.
 Zero-point vibrational energy      17372.6 (Joules/Mol)
                                    4.15215 (Kcal/Mol)
 Warning -- explicit consideration of   1 degrees of freedom as
           vibrations may cause significant error
 Vibrational temperatures:     55.06  2061.23  2062.60
          (Kelvin)

 Zero-point correction=                           0.006617 (Hartree/Particle)
 Thermal correction to Energy=                    0.009850
 Thermal correction to Enthalpy=                  0.010794
 Thermal correction to Gibbs Free Energy=        -0.015518
 Sum of electronic and zero-point Energies=           -100.856456
 Sum of electronic and thermal Energies=              -100.853223
 Sum of electronic and thermal Enthalpies=            -100.852279
 Sum of electronic and thermal Free Energies=         -100.878591

                     E (Thermal)             CV                S
                      KCal/Mol        Cal/Mol-Kelvin    Cal/Mol-Kelvin
 Total                    6.181              7.139             55.379
 Electronic               0.000              0.000              1.377
 Translational            0.889              2.981             35.068
 Rotational               0.592              1.987             13.555
 Vibrational              4.700              2.171              5.378
 Vibration     1          0.594              1.982              5.347

 Normal termination of Gaussian 16 at Fri Aug 22 20:20:03 2025.
