 Gaussian 16, Revision C.01,
 Gaussian 16:  ES64L-G16RevC.01  3-Jul-2019

 -----------------------------------------
 # sp b3lyp/6-311g** Force nosymm scf=(qc)
 -----------------------------------------

 -------------------
 Title Card Required
 -------------------
 Symbolic Z-matrix:
 Charge =  0 Multiplicity = 2

                          Input orientation:
 ---------------------------------------------------------------------
 Center     Atomic      Atomic             Coordinates (Angstroms)
 Number     Number       Type             X           Y           Z
 ---------------------------------------------------------------------
      1          1           0        0.000000    0.000000    0.000000
      2          1           0       -1.300000    0.000000    0.000000
      3          9           0        1.650000    0.000000    0.000000
 ---------------------------------------------------------------------

 SCF Done:  E(UB3LYP) =  -100.878987364     a.u. after   12 cycles

 Alpha  occ. eigenvalues --  -24.67899  -1.14554  -0.49224  -0.39700  -0.39700
 Alpha  occ. eigenvalues --   -0.39525
 Alpha virt. eigenvalues --   -0.05229   0.20808   0.30875   0.92487   0.92487
 Alpha virt. eigenvalues --    0.94772   1.04392   1.11725   1.11725   1.46871
 Alpha virt. eigenvalues --    1.46871   1.48049   2.00593   2.23372   2.50196

  Beta  occ. eigenvalues --  -24.65717  -1.08547  -0.40640  -0.37571  -0.37571
  Beta virt. eigenvalues --   -0.23293  -0.02444   0.22993   0.31657   0.93089
  Beta virt. eigenvalues --    0.93089   0.99994   1.07603   1.15316   1.15316
  Beta virt. eigenvalues --    1.48357   1.48357   1.52437   2.03831   2.25987

 Mulliken charges and spin densities:
               1          2
     1  H    0.152988  -0.211113
     2  H    0.069628   0.534039
     3  F   -0.222616   0.677075
 Sum of Mulliken charges =   0.00000   1.00000

 Dipole moment (field-independent basis, Debye):
    X=             -2.2175    Y=              0.0000    Z=              0.0000  Tot=              2.2175
 Quadrupole moment (field-independent basis, Debye-Ang):
   XX=             -7.7135   YY=             -7.2779   ZZ=             -7.2779
   XY=              0.0000   XZ=              0.0000   YZ=             -0.0000

  Exact polarizability:      39.181       0.000       2.276       0.000      -0.000       2.276
 Approx polarizability:      61.006      -0.000       2.233      -0.000       0.000       2.233

 ******    2 imaginary frequencies (negative Signs) ******

                      1                      2                      3
                      A                      A                      A
 Frequencies --  -2422.9001              -300.8236              1207.3946
 Red. masses --      1.0198                 1.0944                 1.0153
 Frc consts  --      3.5272                 0.0584                 0.8721
 IR Inten    --   1039.5591                 4.2550                 6.6666

                      4
                      A
 Frequencies --   1207.3946
 Red. masses --      1.0153
 Frc consts  --      0.8721
 IR Inten    --      6.6666

 - Thermochemistry -
 -------------------
 Temperature   298.150 Kelvin.  Pressure   1.00000 Atm.
 Atom     1 has atomic number  1 and mass   1.00783

 Molecular mass:    21.01405 amu.
 Principal axes and moments of inertia in atomic units:
                           1         2         3
     Eigenvalues --     0.00000  37.46631  37.46631
           X            1.00000  -0.00000   0.00000
           Y            0.00000   1.00000   0.00000
           Z            0.00000   0.00000   1.00000
 This molecule is a prolate symmetric top.
 Rotational symmetry number  1.
 Rotational temperature (Kelvin)      2.31178
 Rotational constant (GHZ):          48.169707
    2 imaginary frequencies ignored.
 Zero-point vibrational energy      14443.6 (Joules/Mol)
                                    3.45211 (Kcal/Mol)
 Vibrational temperatures:   1737.17  1737.17
          (Kelvin)

 Zero-point correction=                           0.005501 (Hartree/Particle)
 Thermal correction to Energy=                    0.007894
 Thermal correction to Enthalpy=                  0.008838
 Thermal correction to Gibbs Free Energy=        -0.014049
 Sum of electronic and zero-point Energies=           -100.873486
 Sum of electronic and thermal Energies=              -100.871093
 Sum of electronic and thermal Enthalpies=            -100.870149
 Sum of electronic and thermal Free Energies=         -100.893036

                     E (Thermal)             CV                S
                      KCal/Mol        Cal/Mol-Kelvin    Cal/Mol-Kelvin
 Total                    4.954              5.368             48.170
 Electronic               0.000              0.000              1.377
 Translational            0.889              2.981             35.068
 Rotational               0.592              1.987             11.644
 Vibrational              3.473              0.400              0.080

 Normal termination of Gaussian 16 at Fri Aug 22 16:33:38 2025.
