 Gaussian 16, Revision C.01,
 Gaussian 16:  ES64L-G16RevC.01  3-Jul-2019

 -----------------------------------------
 # sp b3lyp/6-311g** Force nosymm scf=(qc)
 -----------------------------------------

 -------------------
 Title Card Required
 -------------------
 Symbolic Z-matrix:
 Charge =  0 Multiplicity = 2

                          Input orientation:
 ---------------------------------------------------------------------
 Center     Atomic      Atomic             Coordinates (Angstroms)
 Number     Number       Type             X           Y           Z
 ---------------------------------------------------------------------
      1          1           0        0.000000    0.000000    0.000000
      2          1           0       -4.000000    0.000000    0.000000
      3          9           0        2.000000    0.000000    0.000000
 ---------------------------------------------------------------------

 SCF Done:  E(UB3LYP) =  -100.787058256     a.u. after   19 cycles

 Alpha  occ. eigenvalues --  -24.68250  -1.14568  -0.47228  -0.39781  -0.39781
 Alpha  occ. eigenvalues --   -0.33149
 Alpha virt. eigenvalues --   -0.13771   0.22536   0.31264   0.88838   0.94839
 Alpha virt. eigenvalues --    0.94839   1.05595   1.24340   1.24354   1.24354
 Alpha virt. eigenvalues --    1.35464   1.35464   1.60481   2.13605   2.29461

  Beta  occ. eigenvalues --  -24.65879  -1.07939  -0.37949  -0.37444  -0.37444
  Beta virt. eigenvalues --   -0.20747  -0.06210   0.22385   0.38034   0.90135
  Beta virt. eigenvalues --    0.95473   0.95473   1.08056   1.21937   1.21937
  Beta virt. eigenvalues --    1.46439   1.46644   1.46644   1.53278   2.11399

 Mulliken charges and spin densities:
               1          2
     1  H    0.193366  -0.745137
     2  H    0.000447   0.999342
     3  F   -0.193812   0.745795
 Sum of Mulliken charges =   0.00000   1.00000

 Dipole moment (field-independent basis, Debye):
    X=             -1.9232    Y=              0.0000    Z=             -0.0000  Tot=              1.9232
 Quadrupole moment (field-independent basis, Debye-Ang):
   XX=            -10.1082   YY=             -7.4853   ZZ=             -7.4853
   XY=              0.0000   XZ=             -0.0000   YZ=             -0.0000

  Exact polarizability:      24.710       0.000       2.062       0.000      -0.000       2.062
 Approx polarizability:      36.505       0.000       1.947      -0.000      -0.000       1.947

 ******    2 imaginary frequencies (negative Signs) ******

                      1                      2                      3
                      A                      A                      A
 Frequencies --  -1127.3808               -66.1702               482.6967
 Red. masses --      1.0579                 1.0536                 1.0281
 Frc consts  --      0.7922                 0.0027                 0.1411
 IR Inten    --    123.1927                 0.0304                35.8532

                      4
                      A
 Frequencies --    482.6967
 Red. masses --      1.0281
 Frc consts  --      0.1411
 IR Inten    --     35.8532

 - Thermochemistry -
 -------------------
 Temperature   298.150 Kelvin.  Pressure   1.00000 Atm.
 Atom     1 has atomic number  1 and mass   1.00783

 Molecular mass:    21.01405 amu.
 Principal axes and moments of inertia in atomic units:
                           1         2         3
     Eigenvalues --     0.00000 132.91350 132.91350
           X            1.00000  -0.00000   0.00000
           Y            0.00000   1.00000   0.00000
           Z            0.00000   0.00000   1.00000
 This molecule is a prolate symmetric top.
 Rotational symmetry number  1.
 Rotational temperature (Kelvin)      0.65166
 Rotational constant (GHZ):          13.578314
    2 imaginary frequencies ignored.
 Zero-point vibrational energy       5774.3 (Joules/Mol)
                                    1.38010 (Kcal/Mol)
 Warning -- explicit consideration of   2 degrees of freedom as
           vibrations may cause significant error
 Vibrational temperatures:    694.49   694.49
          (Kelvin)

 Zero-point correction=                           0.002199 (Hartree/Particle)
 Thermal correction to Energy=                    0.005034
 Thermal correction to Enthalpy=                  0.005978
 Thermal correction to Gibbs Free Energy=        -0.018734
 Sum of electronic and zero-point Energies=           -100.784859
 Sum of electronic and thermal Energies=              -100.782024
 Sum of electronic and thermal Enthalpies=            -100.781080
 Sum of electronic and thermal Free Energies=         -100.805792

                     E (Thermal)             CV                S
                      KCal/Mol        Cal/Mol-Kelvin    Cal/Mol-Kelvin
 Total                    3.159              7.545             52.012
 Electronic               0.000              0.000              1.377
 Translational            0.889              2.981             35.068
 Rotational               0.592              1.987             14.160
 Vibrational              1.678              2.577              1.406
 Vibration     1          0.839              1.288              0.703
 Vibration     2          0.839              1.288              0.703

 Normal termination of Gaussian 16 at Fri Aug 22 16:58:14 2025.
