 Gaussian 16, Revision C.01,
 Gaussian 16:  ES64L-G16RevC.01  3-Jul-2019

 -----------------------------------------
 # sp b3lyp/6-311g** Force nosymm scf=(qc)
 -----------------------------------------

 -------------------
 Title Card Required
 -------------------
 Symbolic Z-matrix:
 Charge =  0 Multiplicity = 2

                          Input orientation:
 ---------------------------------------------------------------------
 Center     Atomic      Atomic             Coordinates (Angstroms)
 Number     Number       Type             X           Y           Z
 ---------------------------------------------------------------------
      1          1           0        0.000000    0.000000    0.000000
      2          1           0       -1.550000    0.000000    0.000000
      3          9           0        2.250000    0.000000    0.000000
 ---------------------------------------------------------------------

 SCF Done:  E(UB3LYP) =  -100.821570623     a.u. after   14 cycles

 Alpha  occ. eigenvalues --  -24.71500  -1.17742  -0.50742  -0.42528  -0.42528
 Alpha  occ. eigenvalues --   -0.36734
 Alpha virt. eigenvalues --   -0.11258   0.23261   0.31307   0.86508   0.93508
 Alpha virt. eigenvalues --    0.93508   1.02836   1.18218   1.18218   1.20768
 Alpha virt. eigenvalues --    1.37908   1.37908   1.76356   2.18136   2.43816

  Beta  occ. eigenvalues --  -24.68718  -1.09845  -0.39759  -0.39759  -0.36207
  Beta virt. eigenvalues --   -0.24028  -0.10184   0.25028   0.31054   0.91474
  Beta virt. eigenvalues --    0.94784   0.94784   1.06512   1.19339   1.19339
  Beta virt. eigenvalues --    1.24802   1.38609   1.38609   1.77307   2.19187

 Mulliken charges and spin densities:
               1          2
     1  H    0.049386  -0.401398
     2  H    0.050999   0.524202
     3  F   -0.100384   0.877196
 Sum of Mulliken charges =  -0.00000   1.00000

 Dipole moment (field-independent basis, Debye):
    X=             -1.5136    Y=             -0.0000    Z=              0.0000  Tot=              1.5136
 Quadrupole moment (field-independent basis, Debye-Ang):
   XX=             -7.4559   YY=             -7.6185   ZZ=             -7.6185
   XY=             -0.0000   XZ=              0.0000   YZ=             -0.0000

  Exact polarizability:      57.698      -0.000       2.064       0.000       0.000       2.064
 Approx polarizability:      83.207       0.000       2.024      -0.000       0.000       2.024

 ******    2 imaginary frequencies (negative Signs) ******

                      1                      2                      3
                      A                      A                      A
 Frequencies --  -2085.4352              -408.9346              1049.8012
 Red. masses --      1.0094                 1.1066                 1.0141
 Frc consts  --      2.5864                 0.1090                 0.6585
 IR Inten    --    608.9333                34.7313                 0.4535

                      4
                      A
 Frequencies --   1049.8012
 Red. masses --      1.0141
 Frc consts  --      0.6585
 IR Inten    --      0.4535

 - Thermochemistry -
 -------------------
 Temperature   298.150 Kelvin.  Pressure   1.00000 Atm.
 Atom     1 has atomic number  1 and mass   1.00783

 Molecular mass:    21.01405 amu.
 Principal axes and moments of inertia in atomic units:
                           1         2         3
     Eigenvalues --     0.00000  63.87182  63.87182
           X            1.00000  -0.00000   0.00000
           Y            0.00000   1.00000   0.00000
           Z            0.00000   0.00000   1.00000
 This molecule is a prolate symmetric top.
 Rotational symmetry number  1.
 Rotational temperature (Kelvin)      1.35606
 Rotational constant (GHZ):          28.255672
    2 imaginary frequencies ignored.
 Zero-point vibrational energy      12558.4 (Joules/Mol)
                                    3.00153 (Kcal/Mol)
 Vibrational temperatures:   1510.43  1510.43
          (Kelvin)

 Zero-point correction=                           0.004783 (Hartree/Particle)
 Thermal correction to Energy=                    0.007204
 Thermal correction to Enthalpy=                  0.008149
 Thermal correction to Gibbs Free Energy=        -0.015277
 Sum of electronic and zero-point Energies=           -100.816787
 Sum of electronic and thermal Energies=              -100.814366
 Sum of electronic and thermal Enthalpies=            -100.813422
 Sum of electronic and thermal Free Energies=         -100.836847

                     E (Thermal)             CV                S
                      KCal/Mol        Cal/Mol-Kelvin    Cal/Mol-Kelvin
 Total                    4.521              5.620             49.303
 Electronic               0.000              0.000              1.377
 Translational            0.889              2.981             35.068
 Rotational               0.592              1.987             12.704
 Vibrational              3.040              0.652              0.153

 Normal termination of Gaussian 16 at Fri Aug 22 17:16:01 2025.
