 Gaussian 16, Revision C.01,
 Gaussian 16:  ES64L-G16RevC.01  3-Jul-2019

 -----------------------------------------
 # sp b3lyp/6-311g** Force nosymm scf=(qc)
 -----------------------------------------

 -------------------
 Title Card Required
 -------------------
 Symbolic Z-matrix:
 Charge =  0 Multiplicity = 2

                          Input orientation:
 ---------------------------------------------------------------------
 Center     Atomic      Atomic             Coordinates (Angstroms)
 Number     Number       Type             X           Y           Z
 ---------------------------------------------------------------------
      1          1           0        0.000000    0.000000    0.000000
      2          1           0       -3.900000    0.000000    0.000000
      3          9           0        0.850000    0.000000    0.000000
 ---------------------------------------------------------------------

 SCF Done:  E(UB3LYP) =  -100.965468097     a.u. after    6 cycles

 Alpha  occ. eigenvalues --  -24.63864  -1.20914  -0.55018  -0.40144  -0.40144
 Alpha  occ. eigenvalues --   -0.33307
 Alpha virt. eigenvalues --    0.04171   0.24069   0.42708   0.94327   0.94327
 Alpha virt. eigenvalues --    0.97374   1.24114   1.24199   1.24199   1.29014
 Alpha virt. eigenvalues --    1.38344   1.38344   2.02484   2.14396   2.42852

  Beta  occ. eigenvalues --  -24.63863  -1.20913  -0.55018  -0.40144  -0.40144
  Beta virt. eigenvalues --   -0.04901   0.04371   0.38656   0.43045   0.94328
  Beta virt. eigenvalues --    0.94328   0.97372   1.28921   1.38344   1.38344
  Beta virt. eigenvalues --    1.50610   1.51002   1.51002   2.02711   2.42780

 Mulliken charges and spin densities:
               1          2
     1  H    0.284543   0.000306
     2  H    0.000377   0.999576
     3  F   -0.284920   0.000118
 Sum of Mulliken charges =   0.00000   1.00000

 Dipole moment (field-independent basis, Debye):
    X=             -1.8107    Y=             -0.0000    Z=              0.0000  Tot=              1.8107
 Quadrupole moment (field-independent basis, Debye-Ang):
   XX=             -7.7926   YY=             -6.8200   ZZ=             -6.8200
   XY=              0.0000   XZ=             -0.0000   YZ=             -0.0000

  Exact polarizability:       4.836      -0.000       2.432       0.000       0.000       2.432
 Approx polarizability:       5.590      -0.000       2.411       0.000       0.000       2.411

 ******    3 imaginary frequencies (negative Signs) ******

                      1                      2                      3
                      A                      A                      A
 Frequencies --  -1329.4151             -1329.4151               -27.4773
 Red. masses --      1.0408                 1.0408                 1.0532
 Frc consts  --      1.0838                 1.0838                 0.0005
 IR Inten    --    190.5507               190.5507                 0.0110

                      4
                      A
 Frequencies --   5311.7978
 Red. masses --      1.0583
 Frc consts  --     17.5933
 IR Inten    --    100.9062

 - Thermochemistry -
 -------------------
 Temperature   298.150 Kelvin.  Pressure   1.00000 Atm.
 Atom     1 has atomic number  1 and mass   1.00783

 Molecular mass:    21.01405 amu.
 Principal axes and moments of inertia in atomic units:
                           1         2         3
     Eigenvalues --     0.00000  78.38996  78.38996
           X            1.00000  -0.00000   0.00000
           Y            0.00000   1.00000   0.00000
           Z            0.00000   0.00000   1.00000
 This molecule is a prolate symmetric top.
 Rotational symmetry number  1.
 Rotational temperature (Kelvin)      1.10491
 Rotational constant (GHZ):          23.022606
    3 imaginary frequencies ignored.
 Zero-point vibrational energy      31771.6 (Joules/Mol)
                                    7.59360 (Kcal/Mol)
 Vibrational temperatures:   7642.49
          (Kelvin)

 Zero-point correction=                           0.012101 (Hartree/Particle)
 Thermal correction to Energy=                    0.014462
 Thermal correction to Enthalpy=                  0.015406
 Thermal correction to Gibbs Free Energy=        -0.008140
 Sum of electronic and zero-point Energies=           -100.953367
 Sum of electronic and thermal Energies=              -100.951006
 Sum of electronic and thermal Enthalpies=            -100.950062
 Sum of electronic and thermal Free Energies=         -100.973608

                     E (Thermal)             CV                S
                      KCal/Mol        Cal/Mol-Kelvin    Cal/Mol-Kelvin
 Total                    9.075              4.968             49.557
 Electronic               0.000              0.000              1.377
 Translational            0.889              2.981             35.068
 Rotational               0.592              1.987             13.111
 Vibrational              7.594              0.000              0.000

 Normal termination of Gaussian 16 at Fri Aug 22 15:54:40 2025.
