 Gaussian 16, Revision C.01,
 Gaussian 16:  ES64L-G16RevC.01  3-Jul-2019

 -----------------------------------------
 # sp b3lyp/6-311g** Force nosymm scf=(qc)
 -----------------------------------------

 -------------------
 Title Card Required
 -------------------
 Symbolic Z-matrix:
 Charge =  0 Multiplicity = 2

                          Input orientation:
 ---------------------------------------------------------------------
 Center     Atomic      Atomic             Coordinates (Angstroms)
 Number     Number       Type             X           Y           Z
 ---------------------------------------------------------------------
      1          1           0        0.000000    0.000000    0.000000
      2          1           0       -3.450000    0.000000    0.000000
      3          9           0        2.600000    0.000000    0.000000
 ---------------------------------------------------------------------

 SCF Done:  E(UB3LYP) =  -100.765621183     a.u. after   19 cycles

 Alpha  occ. eigenvalues --  -24.72299  -1.18481  -0.51408  -0.43179  -0.43179
 Alpha  occ. eigenvalues --   -0.32836
 Alpha virt. eigenvalues --   -0.09808   0.23662   0.35474   0.89909   0.93312
 Alpha virt. eigenvalues --    0.93312   1.06030   1.24675   1.24675   1.24880
 Alpha virt. eigenvalues --    1.41465   1.41465   1.43954   2.14622   2.37286

  Beta  occ. eigenvalues --  -24.69408  -1.10238  -0.40294  -0.40294  -0.34968
  Beta virt. eigenvalues --   -0.23701  -0.06798   0.24028   0.37807   0.94711
  Beta virt. eigenvalues --    0.94711   0.97112   1.08735   1.22407   1.22407
  Beta virt. eigenvalues --    1.27239   1.45626   1.45898   1.45898   2.13476

 Mulliken charges and spin densities:
               1          2
     1  H    0.075847  -0.911870
     2  H    0.000895   0.997660
     3  F   -0.076741   0.914210
 Sum of Mulliken charges =  -0.00000   1.00000

 Dipole moment (field-independent basis, Debye):
    X=             -1.0331    Y=             -0.0000    Z=              0.0000  Tot=              1.0331
 Quadrupole moment (field-independent basis, Debye-Ang):
   XX=             -9.1034   YY=             -7.5826   ZZ=             -7.5826
   XY=             -0.0000   XZ=              0.0000   YZ=              0.0000

  Exact polarizability:      31.804      -0.000       2.024       0.000       0.000       2.024
 Approx polarizability:      38.547      -0.000       1.921       0.000      -0.000       1.921

 ******    2 imaginary frequencies (negative Signs) ******

                      1                      2                      3
                      A                      A                      A
 Frequencies --   -560.9556              -127.7820               214.1658
 Red. masses --      1.0525                 1.0591                 1.0217
 Frc consts  --      0.1951                 0.0102                 0.0276
 IR Inten    --     71.2953                 0.4284                 5.4649

                      4
                      A
 Frequencies --    214.1658
 Red. masses --      1.0217
 Frc consts  --      0.0276
 IR Inten    --      5.4649

 - Thermochemistry -
 -------------------
 Temperature   298.150 Kelvin.  Pressure   1.00000 Atm.
 Atom     1 has atomic number  1 and mass   1.00783

 Molecular mass:    21.01405 amu.
 Principal axes and moments of inertia in atomic units:
                           1         2         3
     Eigenvalues --     0.00000 143.14713 143.14713
           X            1.00000  -0.00000   0.00000
           Y            0.00000   1.00000   0.00000
           Z            0.00000   0.00000   1.00000
 This molecule is a prolate symmetric top.
 Rotational symmetry number  1.
 Rotational temperature (Kelvin)      0.60507
 Rotational constant (GHZ):          12.607596
    2 imaginary frequencies ignored.
 Zero-point vibrational energy       2562.0 (Joules/Mol)
                                    0.61233 (Kcal/Mol)
 Warning -- explicit consideration of   2 degrees of freedom as
           vibrations may cause significant error
 Vibrational temperatures:    308.14   308.14
          (Kelvin)

 Zero-point correction=                           0.000976 (Hartree/Particle)
 Thermal correction to Energy=                    0.004414
 Thermal correction to Enthalpy=                  0.005358
 Thermal correction to Gibbs Free Energy=        -0.020664
 Sum of electronic and zero-point Energies=           -100.764645
 Sum of electronic and thermal Energies=              -100.761207
 Sum of electronic and thermal Enthalpies=            -100.760263
 Sum of electronic and thermal Free Energies=         -100.786286

                     E (Thermal)             CV                S
                      KCal/Mol        Cal/Mol-Kelvin    Cal/Mol-Kelvin
 Total                    2.770              8.607             54.769
 Electronic               0.000              0.000              1.377
 Translational            0.889              2.981             35.068
 Rotational               0.592              1.987             14.308
 Vibrational              1.289              3.639              4.016
 Vibration     1          0.644              1.819              2.008
 Vibration     2          0.644              1.819              2.008

 Normal termination of Gaussian 16 at Fri Aug 22 18:05:09 2025.
