 Gaussian 16, Revision C.01,
 Gaussian 16:  ES64L-G16RevC.01  3-Jul-2019

 -----------------------------------------
 # sp b3lyp/6-311g** Force nosymm scf=(qc)
 -----------------------------------------

 -------------------
 Title Card Required
 -------------------
 Symbolic Z-matrix:
 Charge =  0 Multiplicity = 2

                          Input orientation:
 ---------------------------------------------------------------------
 Center     Atomic      Atomic             Coordinates (Angstroms)
 Number     Number       Type             X           Y           Z
 ---------------------------------------------------------------------
      1          1           0        0.000000    0.000000    0.000000
      2          1           0       -2.450000    0.000000    0.000000
      3          9           0        2.050000    0.000000    0.000000
 ---------------------------------------------------------------------

 SCF Done:  E(UB3LYP) =  -100.788062756     a.u. after   18 cycles

 Alpha  occ. eigenvalues --  -24.68520  -1.14841  -0.47534  -0.39991  -0.39991
 Alpha  occ. eigenvalues --   -0.34872
 Alpha virt. eigenvalues --   -0.13685   0.24110   0.31219   0.89266   0.94899
 Alpha virt. eigenvalues --    0.94899   1.06243   1.22798   1.22798   1.26180
 Alpha virt. eigenvalues --    1.35172   1.35172   1.57605   2.13558   2.29171

  Beta  occ. eigenvalues --  -24.66074  -1.07985  -0.37576  -0.37576  -0.37404
  Beta virt. eigenvalues --   -0.21160  -0.10090   0.25154   0.34400   0.91843
  Beta virt. eigenvalues --    0.95693   0.95693   1.08778   1.22181   1.22181
  Beta virt. eigenvalues --    1.40798   1.40798   1.42598   1.50955   2.13073

 Mulliken charges and spin densities:
               1          2
     1  H    0.159686  -0.735048
     2  H    0.019158   0.965693
     3  F   -0.178844   0.769356
 Sum of Mulliken charges =   0.00000   1.00000

 Dipole moment (field-independent basis, Debye):
    X=             -2.0449    Y=             -0.0000    Z=              0.0000  Tot=              2.0449
 Quadrupole moment (field-independent basis, Debye-Ang):
   XX=             -9.3187   YY=             -7.5370   ZZ=             -7.5370
   XY=             -0.0000   XZ=              0.0000   YZ=             -0.0000

  Exact polarizability:      39.491       0.000       2.050       0.000       0.000       2.050
 Approx polarizability:      46.944       0.000       1.944      -0.000       0.000       1.944

 ******    2 imaginary frequencies (negative Signs) ******

                      1                      2                      3
                      A                      A                      A
 Frequencies --  -1167.0287              -414.0427               488.2838
 Red. masses --      1.0389                 1.0732                 1.0202
 Frc consts  --      0.8336                 0.1084                 0.1433
 IR Inten    --     88.1645                19.0185                20.6613

                      4
                      A
 Frequencies --    488.2838
 Red. masses --      1.0202
 Frc consts  --      0.1433
 IR Inten    --     20.6613

 - Thermochemistry -
 -------------------
 Temperature   298.150 Kelvin.  Pressure   1.00000 Atm.
 Atom     1 has atomic number  1 and mass   1.00783

 Molecular mass:    21.01405 amu.
 Principal axes and moments of inertia in atomic units:
                           1         2         3
     Eigenvalues --     0.00000  80.59949  80.59949
           X            1.00000  -0.00000   0.00000
           Y            0.00000   1.00000   0.00000
           Z            0.00000   0.00000   1.00000
 This molecule is a prolate symmetric top.
 Rotational symmetry number  1.
 Rotational temperature (Kelvin)      1.07462
 Rotational constant (GHZ):          22.391472
    2 imaginary frequencies ignored.
 Zero-point vibrational energy       5841.2 (Joules/Mol)
                                    1.39607 (Kcal/Mol)
 Warning -- explicit consideration of   2 degrees of freedom as
           vibrations may cause significant error
 Vibrational temperatures:    702.53   702.53
          (Kelvin)

 Zero-point correction=                           0.002225 (Hartree/Particle)
 Thermal correction to Energy=                    0.005051
 Thermal correction to Enthalpy=                  0.005995
 Thermal correction to Gibbs Free Energy=        -0.018231
 Sum of electronic and zero-point Energies=           -100.785838
 Sum of electronic and thermal Energies=              -100.783012
 Sum of electronic and thermal Enthalpies=            -100.782067
 Sum of electronic and thermal Free Energies=         -100.806294

                     E (Thermal)             CV                S
                      KCal/Mol        Cal/Mol-Kelvin    Cal/Mol-Kelvin
 Total                    3.170              7.520             50.988
 Electronic               0.000              0.000              1.377
 Translational            0.889              2.981             35.068
 Rotational               0.592              1.987             13.166
 Vibrational              1.688              2.552              1.376
 Vibration     1          0.844              1.276              0.688
 Vibration     2          0.844              1.276              0.688

 Normal termination of Gaussian 16 at Fri Aug 22 17:00:32 2025.
