 Gaussian 16, Revision C.01,
 Gaussian 16:  ES64L-G16RevC.01  3-Jul-2019

 -----------------------------------------
 # sp b3lyp/6-311g** Force nosymm scf=(qc)
 -----------------------------------------

 -------------------
 Title Card Required
 -------------------
 Symbolic Z-matrix:
 Charge =  0 Multiplicity = 2

                          Input orientation:
 ---------------------------------------------------------------------
 Center     Atomic      Atomic             Coordinates (Angstroms)
 Number     Number       Type             X           Y           Z
 ---------------------------------------------------------------------
      1          1           0        0.000000    0.000000    0.000000
      2          1           0       -0.850000    0.000000    0.000000
      3          9           0        2.500000    0.000000    0.000000
 ---------------------------------------------------------------------

 SCF Done:  E(UB3LYP) =  -100.927917545     a.u. after    6 cycles

 Alpha  occ. eigenvalues --  -24.75923  -1.21841  -0.55143  -0.46227  -0.46227
 Alpha  occ. eigenvalues --   -0.42034
 Alpha virt. eigenvalues --    0.03844   0.20484   0.43870   0.89745   0.91028
 Alpha virt. eigenvalues --    0.91028   1.07447   1.07447   1.11179   1.48460
 Alpha virt. eigenvalues --    1.74783   1.74783   2.12327   2.38423   2.86653

  Beta  occ. eigenvalues --  -24.72808  -1.12894  -0.43106  -0.43106  -0.41986
  Beta virt. eigenvalues --   -0.26153   0.04307   0.20775   0.44197   0.92499
  Beta virt. eigenvalues --    0.92499   0.98156   1.07616   1.07616   1.15520
  Beta virt. eigenvalues --    1.48712   1.74893   1.74893   2.12494   2.38606

 Mulliken charges and spin densities:
               1          2
     1  H   -0.012580  -0.010696
     2  H    0.018405   0.025549
     3  F   -0.005825   0.985147
 Sum of Mulliken charges =   0.00000   1.00000

 Dipole moment (field-independent basis, Debye):
    X=             -0.1541    Y=              0.0000    Z=              0.0000  Tot=              0.1541
 Quadrupole moment (field-independent basis, Debye-Ang):
   XX=             -5.6587   YY=             -7.0776   ZZ=             -7.0776
   XY=              0.0000   XZ=              0.0000   YZ=             -0.0000

  Exact polarizability:      15.711       0.000       2.032      -0.000      -0.000       2.032
 Approx polarizability:      17.344       0.000       2.101      -0.000       0.000       2.101

 ******    1 imaginary frequencies (negative Signs) ******

                      1                      2                      3
                      A                      A                      A
 Frequencies --   -143.0160              1301.9501              1301.9501
 Red. masses --      1.1085                 1.0099                 1.0099
 Frc consts  --      0.0134                 1.0086                 1.0086
 IR Inten    --      4.8236                 0.2925                 0.2925

                      4
                      A
 Frequencies --   3106.3651
 Red. masses --      1.0078
 Frc consts  --      5.7298
 IR Inten    --     50.4218

 - Thermochemistry -
 -------------------
 Temperature   298.150 Kelvin.  Pressure   1.00000 Atm.
 Atom     1 has atomic number  1 and mass   1.00783

 Molecular mass:    21.01405 amu.
 Principal axes and moments of inertia in atomic units:
                           1         2         3
     Eigenvalues --     0.00000  56.97664  56.97664
           X            1.00000  -0.00000   0.00000
           Y            0.00000   1.00000   0.00000
           Z            0.00000   0.00000   1.00000
 This molecule is a prolate symmetric top.
 Rotational symmetry number  1.
 Rotational temperature (Kelvin)      1.52017
 Rotational constant (GHZ):          31.675110
    1 imaginary frequencies ignored.
 Zero-point vibrational energy      34155.0 (Joules/Mol)
                                    8.16323 (Kcal/Mol)
 Vibrational temperatures:   1873.22  1873.22  4469.37
          (Kelvin)

 Zero-point correction=                           0.013009 (Hartree/Particle)
 Thermal correction to Energy=                    0.015392
 Thermal correction to Enthalpy=                  0.016336
 Thermal correction to Gibbs Free Energy=        -0.006935
 Sum of electronic and zero-point Energies=           -100.914909
 Sum of electronic and thermal Energies=              -100.912526
 Sum of electronic and thermal Enthalpies=            -100.911582
 Sum of electronic and thermal Free Energies=         -100.934852

                     E (Thermal)             CV                S
                      KCal/Mol        Cal/Mol-Kelvin    Cal/Mol-Kelvin
 Total                    9.658              5.262             48.977
 Electronic               0.000              0.000              1.377
 Translational            0.889              2.981             35.068
 Rotational               0.592              1.987             12.477
 Vibrational              8.177              0.294              0.054

 Normal termination of Gaussian 16 at Fri Aug 22 17:42:54 2025.
