 Gaussian 16, Revision C.01,
 Gaussian 16:  ES64L-G16RevC.01  3-Jul-2019

 -----------------------------------------
 # sp b3lyp/6-311g** Force nosymm scf=(qc)
 -----------------------------------------

 -------------------
 Title Card Required
 -------------------
 Symbolic Z-matrix:
 Charge =  0 Multiplicity = 2

                          Input orientation:
 ---------------------------------------------------------------------
 Center     Atomic      Atomic             Coordinates (Angstroms)
 Number     Number       Type             X           Y           Z
 ---------------------------------------------------------------------
      1          1           0        0.000000    0.000000    0.000000
      2          1           0       -2.050000    0.000000    0.000000
      3          9           0        2.150000    0.000000    0.000000
 ---------------------------------------------------------------------

 SCF Done:  E(UB3LYP) =  -100.790793660     a.u. after   15 cycles

 Alpha  occ. eigenvalues --  -24.69350  -1.15661  -0.48430  -0.40683  -0.40683
 Alpha  occ. eigenvalues --   -0.35754
 Alpha virt. eigenvalues --   -0.13422   0.24275   0.31526   0.88272   0.94693
 Alpha virt. eigenvalues --    0.94693   1.05361   1.22151   1.22151   1.26986
 Alpha virt. eigenvalues --    1.34315   1.34315   1.53704   2.10955   2.31824

  Beta  occ. eigenvalues --  -24.66769  -1.08388  -0.38126  -0.38126  -0.36628
  Beta virt. eigenvalues --   -0.22048  -0.11594   0.26337   0.32130   0.92046
  Beta virt. eigenvalues --    0.95738   0.95738   1.08519   1.22512   1.22512
  Beta virt. eigenvalues --    1.36513   1.36937   1.36937   1.50735   2.11550

 Mulliken charges and spin densities:
               1          2
     1  H    0.113002  -0.707636
     2  H    0.037336   0.894941
     3  F   -0.150338   0.812696
 Sum of Mulliken charges =   0.00000   1.00000

 Dipole moment (field-independent basis, Debye):
    X=             -1.9865    Y=             -0.0000    Z=             -0.0000  Tot=              1.9865
 Quadrupole moment (field-independent basis, Debye-Ang):
   XX=             -8.6759   YY=             -7.5879   ZZ=             -7.5879
   XY=              0.0000   XZ=              0.0000   YZ=             -0.0000

  Exact polarizability:      51.915       0.000       2.036       0.000       0.000       2.036
 Approx polarizability:      59.688      -0.000       1.945      -0.000       0.000       1.945

 ******    2 imaginary frequencies (negative Signs) ******

                      1                      2                      3
                      A                      A                      A
 Frequencies --  -1407.5935              -517.2963               578.7826
 Red. masses --      1.0156                 1.0992                 1.0174
 Frc consts  --      1.1856                 0.1733                 0.2008
 IR Inten    --     92.1874                44.3199                 8.0975

                      4
                      A
 Frequencies --    578.7826
 Red. masses --      1.0174
 Frc consts  --      0.2008
 IR Inten    --      8.0975

 - Thermochemistry -
 -------------------
 Temperature   298.150 Kelvin.  Pressure   1.00000 Atm.
 Atom     1 has atomic number  1 and mass   1.00783

 Molecular mass:    21.01405 amu.
 Principal axes and moments of inertia in atomic units:
                           1         2         3
     Eigenvalues --     0.00000  73.16299  73.16299
           X            1.00000  -0.00000   0.00000
           Y            0.00000   1.00000   0.00000
           Z            0.00000   0.00000   1.00000
 This molecule is a prolate symmetric top.
 Rotational symmetry number  1.
 Rotational temperature (Kelvin)      1.18385
 Rotational constant (GHZ):          24.667408
    2 imaginary frequencies ignored.
 Zero-point vibrational energy       6923.8 (Joules/Mol)
                                    1.65482 (Kcal/Mol)
 Warning -- explicit consideration of   2 degrees of freedom as
           vibrations may cause significant error
 Vibrational temperatures:    832.74   832.74
          (Kelvin)

 Zero-point correction=                           0.002637 (Hartree/Particle)
 Thermal correction to Energy=                    0.005342
 Thermal correction to Enthalpy=                  0.006286
 Thermal correction to Gibbs Free Energy=        -0.017658
 Sum of electronic and zero-point Energies=           -100.788157
 Sum of electronic and thermal Energies=              -100.785452
 Sum of electronic and thermal Enthalpies=            -100.784508
 Sum of electronic and thermal Free Energies=         -100.808452

                     E (Thermal)             CV                S
                      KCal/Mol        Cal/Mol-Kelvin    Cal/Mol-Kelvin
 Total                    3.352              7.122             50.395
 Electronic               0.000              0.000              1.377
 Translational            0.889              2.981             35.068
 Rotational               0.592              1.987             12.974
 Vibrational              1.871              2.154              0.975
 Vibration     1          0.935              1.077              0.488
 Vibration     2          0.935              1.077              0.488

 Normal termination of Gaussian 16 at Fri Aug 22 17:07:42 2025.
