 Gaussian 16, Revision C.01,
 Gaussian 16:  ES64L-G16RevC.01  3-Jul-2019

 -----------------------------------------
 # sp b3lyp/6-311g** Force nosymm scf=(qc)
 -----------------------------------------

 -------------------
 Title Card Required
 -------------------
 Symbolic Z-matrix:
 Charge =  0 Multiplicity = 2

                          Input orientation:
 ---------------------------------------------------------------------
 Center     Atomic      Atomic             Coordinates (Angstroms)
 Number     Number       Type             X           Y           Z
 ---------------------------------------------------------------------
      1          1           0        0.000000    0.000000    0.000000
      2          1           0       -1.050000    0.000000    0.000000
      3          9           0        3.000000    0.000000    0.000000
 ---------------------------------------------------------------------

 SCF Done:  E(UB3LYP) =  -100.899074189     a.u. after  329 cycles

 Alpha  occ. eigenvalues --  -24.76667  -1.22483  -0.55673  -0.46926  -0.46823
 Alpha  occ. eigenvalues --   -0.38008
 Alpha virt. eigenvalues --   -0.00493   0.21955   0.37766   0.85787   0.90659
 Alpha virt. eigenvalues --    0.93542   1.04453   1.10060   1.10067   1.33828
 Alpha virt. eigenvalues --    1.62971   1.62978   2.21494   2.36040   2.56774

  Beta  occ. eigenvalues --  -24.73506  -1.13397  -0.43773  -0.43654  -0.37988
  Beta virt. eigenvalues --   -0.26297  -0.00469   0.21979   0.37850   0.92158
  Beta virt. eigenvalues --    0.95244   0.95270   1.08262   1.10060   1.10066
  Beta virt. eigenvalues --    1.33835   1.62970   1.62977   2.21506   2.36046

 Mulliken charges and spin densities:
               1          2
     1  H   -0.002487  -0.000625
     2  H   -0.005841  -0.000470
     3  F    0.008328   1.001095
 Sum of Mulliken charges =  -0.00000   1.00000

 Dipole moment (field-independent basis, Debye):
    X=              0.1012    Y=             -0.0000    Z=             -0.0000  Tot=              0.1012
 Quadrupole moment (field-independent basis, Debye-Ang):
   XX=             -6.1386   YY=             -7.1451   ZZ=             -6.6700
   XY=             -0.0000   XZ=             -0.0000   YZ=              0.3606

  Exact polarizability:      13.528      -0.000       2.174      -0.000       0.192       2.428
 Approx polarizability:      18.120      -0.000       2.248      -0.000       0.242       2.566

                      1                      2                      3
                      A                      A                      A
 Frequencies --     49.3564              1411.5470              1542.1208
 Red. masses --      1.1085                 1.0078                 1.0100
 Frc consts  --      0.0016                 1.1831                 1.4152
 IR Inten    --      0.4323                 0.8115                 0.0001

                      4
                      A
 Frequencies --   1543.3743
 Red. masses --      1.0100
 Frc consts  --      1.4175
 IR Inten    --      0.0002

 - Thermochemistry -
 -------------------
 Temperature   298.150 Kelvin.  Pressure   1.00000 Atm.
 Atom     1 has atomic number  1 and mass   1.00783

 Molecular mass:    21.01405 amu.
 Principal axes and moments of inertia in atomic units:
                           1         2         3
     Eigenvalues --     0.00000  82.84482  82.84482
           X            1.00000  -0.00000   0.00000
           Y            0.00000   1.00000   0.00000
           Z            0.00000   0.00000   1.00000
 This molecule is a prolate symmetric top.
 Rotational symmetry number  1.
 Rotational temperature (Kelvin)      1.04550
 Rotational constant (GHZ):          21.784599
 Zero-point vibrational energy      27193.5 (Joules/Mol)
                                    6.49940 (Kcal/Mol)
 Warning -- explicit consideration of   1 degrees of freedom as
           vibrations may cause significant error
 Vibrational temperatures:     71.01  2030.90  2218.77  2220.57
          (Kelvin)

 Zero-point correction=                           0.010357 (Hartree/Particle)
 Thermal correction to Energy=                    0.013569
 Thermal correction to Enthalpy=                  0.014514
 Thermal correction to Gibbs Free Energy=        -0.011403
 Sum of electronic and zero-point Energies=           -100.888717
 Sum of electronic and thermal Energies=              -100.885505
 Sum of electronic and thermal Enthalpies=            -100.884561
 Sum of electronic and thermal Free Energies=         -100.910477

                     E (Thermal)             CV                S
                      KCal/Mol        Cal/Mol-Kelvin    Cal/Mol-Kelvin
 Total                    8.515              7.176             54.546
 Electronic               0.000              0.000              1.377
 Translational            0.889              2.981             35.068
 Rotational               0.592              1.987             13.221
 Vibrational              7.034              2.208              4.880
 Vibration     1          0.595              1.978              4.843

 Normal termination of Gaussian 16 at Fri Aug 22 19:25:05 2025.
