 Gaussian 16, Revision C.01,
 Gaussian 16:  ES64L-G16RevC.01  3-Jul-2019

 -----------------------------------------
 # sp b3lyp/6-311g** Force nosymm scf=(qc)
 -----------------------------------------

 -------------------
 Title Card Required
 -------------------
 Symbolic Z-matrix:
 Charge =  0 Multiplicity = 2

                          Input orientation:
 ---------------------------------------------------------------------
 Center     Atomic      Atomic             Coordinates (Angstroms)
 Number     Number       Type             X           Y           Z
 ---------------------------------------------------------------------
      1          1           0        0.000000    0.000000    0.000000
      2          1           0       -2.550000    0.000000    0.000000
      3          9           0        3.400000    0.000000    0.000000
 ---------------------------------------------------------------------

 SCF Done:  E(UB3LYP) =  -100.762675522     a.u. after   25 cycles

 Alpha  occ. eigenvalues --  -24.75263  -1.21234  -0.54384  -0.45663  -0.45663
 Alpha  occ. eigenvalues --   -0.32699
 Alpha virt. eigenvalues --   -0.09510   0.25579   0.34300   0.87951   0.91555
 Alpha virt. eigenvalues --    0.91555   1.02075   1.24933   1.24933   1.26552
 Alpha virt. eigenvalues --    1.41412   1.41412   1.42715   2.15806   2.37154

  Beta  occ. eigenvalues --  -24.72159  -1.12316  -0.42552  -0.42552  -0.33083
  Beta virt. eigenvalues --   -0.25432  -0.08905   0.25401   0.35167   0.93041
  Beta virt. eigenvalues --    0.93041   0.97055   1.06085   1.24473   1.24473
  Beta virt. eigenvalues --    1.25992   1.42364   1.42364   1.43668   2.16425

 Mulliken charges and spin densities:
               1          2
     1  H    0.011596  -0.958399
     2  H    0.002476   0.974112
     3  F   -0.014072   0.984287
 Sum of Mulliken charges =  -0.00000   1.00000

 Dipole moment (field-independent basis, Debye):
    X=             -0.2758    Y=             -0.0000    Z=             -0.0000  Tot=              0.2758
 Quadrupole moment (field-independent basis, Debye-Ang):
   XX=             -7.2780   YY=             -7.6595   ZZ=             -7.6595
   XY=              0.0000   XZ=              0.0000   YZ=             -0.0000

  Exact polarizability:      35.114       0.000       2.022       0.000      -0.000       2.022
 Approx polarizability:      27.177       0.000       1.928       0.000       0.000       1.928

 ******    2 imaginary frequencies (negative Signs) ******

                      1                      2                      3
                      A                      A                      A
 Frequencies --   -630.1493              -154.8113               230.2154
 Red. masses --      1.0083                 1.1080                 1.0148
 Frc consts  --      0.2359                 0.0156                 0.0317
 IR Inten    --      8.5449                 8.1610                 0.0975

                      4
                      A
 Frequencies --    230.2154
 Red. masses --      1.0148
 Frc consts  --      0.0317
 IR Inten    --      0.0975

 - Thermochemistry -
 -------------------
 Temperature   298.150 Kelvin.  Pressure   1.00000 Atm.
 Atom     1 has atomic number  1 and mass   1.00783

 Molecular mass:    21.01405 amu.
 Principal axes and moments of inertia in atomic units:
                           1         2         3
     Eigenvalues --     0.00000 153.92871 153.92871
           X            1.00000  -0.00000   0.00000
           Y            0.00000   1.00000   0.00000
           Z            0.00000   0.00000   1.00000
 This molecule is a prolate symmetric top.
 Rotational symmetry number  1.
 Rotational temperature (Kelvin)      0.56269
 Rotational constant (GHZ):          11.724526
    2 imaginary frequencies ignored.
 Zero-point vibrational energy       2754.0 (Joules/Mol)
                                    0.65822 (Kcal/Mol)
 Warning -- explicit consideration of   2 degrees of freedom as
           vibrations may cause significant error
 Vibrational temperatures:    331.23   331.23
          (Kelvin)

 Zero-point correction=                           0.001049 (Hartree/Particle)
 Thermal correction to Energy=                    0.004439
 Thermal correction to Enthalpy=                  0.005383
 Thermal correction to Gibbs Free Energy=        -0.020584
 Sum of electronic and zero-point Energies=           -100.761627
 Sum of electronic and thermal Energies=              -100.758236
 Sum of electronic and thermal Enthalpies=            -100.757292
 Sum of electronic and thermal Free Energies=         -100.783259

                     E (Thermal)             CV                S
                      KCal/Mol        Cal/Mol-Kelvin    Cal/Mol-Kelvin
 Total                    2.786              8.558             54.652
 Electronic               0.000              0.000              1.377
 Translational            0.889              2.981             35.068
 Rotational               0.592              1.987             14.452
 Vibrational              1.304              3.590              3.755
 Vibration     1          0.652              1.795              1.877
 Vibration     2          0.652              1.795              1.877

 Normal termination of Gaussian 16 at Fri Aug 22 21:17:27 2025.
