 Gaussian 16, Revision C.01,
 Gaussian 16:  ES64L-G16RevC.01  3-Jul-2019

 -----------------------------------------
 # sp b3lyp/6-311g** Force nosymm scf=(qc)
 -----------------------------------------

 -------------------
 Title Card Required
 -------------------
 Symbolic Z-matrix:
 Charge =  0 Multiplicity = 2

                          Input orientation:
 ---------------------------------------------------------------------
 Center     Atomic      Atomic             Coordinates (Angstroms)
 Number     Number       Type             X           Y           Z
 ---------------------------------------------------------------------
      1          1           0        0.000000    0.000000    0.000000
      2          1           0       -2.300000    0.000000    0.000000
      3          9           0        1.900000    0.000000    0.000000
 ---------------------------------------------------------------------

 SCF Done:  E(UB3LYP) =  -100.800490261     a.u. after   14 cycles

 Alpha  occ. eigenvalues --  -24.67212  -1.13508  -0.46186  -0.38871  -0.38871
 Alpha  occ. eigenvalues --   -0.35710
 Alpha virt. eigenvalues --   -0.14075   0.23942   0.30082   0.90991   0.95059
 Alpha virt. eigenvalues --    0.95059   1.06068   1.22020   1.22020   1.26630
 Alpha virt. eigenvalues --    1.34143   1.34143   1.64808   2.12206   2.27748

  Beta  occ. eigenvalues --  -24.65028  -1.07442  -0.38225  -0.36728  -0.36728
  Beta virt. eigenvalues --   -0.20307  -0.10596   0.25118   0.33626   0.92826
  Beta virt. eigenvalues --    0.95443   0.95443   1.08720   1.23333   1.23333
  Beta virt. eigenvalues --    1.39310   1.39310   1.42337   1.59621   2.12798

 Mulliken charges and spin densities:
               1          2
     1  H    0.192979  -0.636540
     2  H    0.028720   0.950129
     3  F   -0.221699   0.686411
 Sum of Mulliken charges =  -0.00000   1.00000

 Dipole moment (field-independent basis, Debye):
    X=             -2.3881    Y=             -0.0000    Z=             -0.0000  Tot=              2.3881
 Quadrupole moment (field-independent basis, Debye-Ang):
   XX=             -9.2264   YY=             -7.5047   ZZ=             -7.5047
   XY=             -0.0000   XZ=             -0.0000   YZ=              0.0000

  Exact polarizability:      40.042      -0.000       2.078      -0.000       0.000       2.078
 Approx polarizability:      48.687      -0.000       1.974      -0.000       0.000       1.974

 ******    2 imaginary frequencies (negative Signs) ******

                      1                      2                      3
                      A                      A                      A
 Frequencies --  -1439.1499              -478.3311               603.4460
 Red. masses --      1.0391                 1.0730                 1.0204
 Frc consts  --      1.2680                 0.1446                 0.2189
 IR Inten    --     90.9668                21.0582                28.5798

                      4
                      A
 Frequencies --    603.4460
 Red. masses --      1.0204
 Frc consts  --      0.2189
 IR Inten    --     28.5798

 - Thermochemistry -
 -------------------
 Temperature   298.150 Kelvin.  Pressure   1.00000 Atm.
 Atom     1 has atomic number  1 and mass   1.00783

 Molecular mass:    21.01405 amu.
 Principal axes and moments of inertia in atomic units:
                           1         2         3
     Eigenvalues --     0.00000  70.05623  70.05623
           X            1.00000  -0.00000   0.00000
           Y            0.00000   1.00000   0.00000
           Z            0.00000   0.00000   1.00000
 This molecule is a prolate symmetric top.
 Rotational symmetry number  1.
 Rotational temperature (Kelvin)      1.23635
 Rotational constant (GHZ):          25.761324
    2 imaginary frequencies ignored.
 Zero-point vibrational energy       7218.8 (Joules/Mol)
                                    1.72534 (Kcal/Mol)
 Warning -- explicit consideration of   2 degrees of freedom as
           vibrations may cause significant error
 Vibrational temperatures:    868.22   868.22
          (Kelvin)

 Zero-point correction=                           0.002750 (Hartree/Particle)
 Thermal correction to Energy=                    0.005426
 Thermal correction to Enthalpy=                  0.006370
 Thermal correction to Gibbs Free Energy=        -0.017491
 Sum of electronic and zero-point Energies=           -100.797741
 Sum of electronic and thermal Energies=              -100.795064
 Sum of electronic and thermal Enthalpies=            -100.794120
 Sum of electronic and thermal Free Energies=         -100.817982

                     E (Thermal)             CV                S
                      KCal/Mol        Cal/Mol-Kelvin    Cal/Mol-Kelvin
 Total                    3.405              7.017             50.221
 Electronic               0.000              0.000              1.377
 Translational            0.889              2.981             35.068
 Rotational               0.592              1.987             12.888
 Vibrational              1.924              2.049              0.888
 Vibration     1          0.962              1.024              0.444
 Vibration     2          0.962              1.024              0.444

 Normal termination of Gaussian 16 at Fri Aug 22 16:50:17 2025.
