 Gaussian 16, Revision C.01,
 Gaussian 16:  ES64L-G16RevC.01  3-Jul-2019

 -----------------------------------------
 # sp b3lyp/6-311g** Force nosymm scf=(qc)
 -----------------------------------------

 -------------------
 Title Card Required
 -------------------
 Symbolic Z-matrix:
 Charge =  0 Multiplicity = 2

                          Input orientation:
 ---------------------------------------------------------------------
 Center     Atomic      Atomic             Coordinates (Angstroms)
 Number     Number       Type             X           Y           Z
 ---------------------------------------------------------------------
      1          1           0        0.000000    0.000000    0.000000
      2          1           0       -3.200000    0.000000    0.000000
      3          9           0        0.950000    0.000000    0.000000
 ---------------------------------------------------------------------

 SCF Done:  E(UB3LYP) =  -100.971074851     a.u. after    6 cycles

 Alpha  occ. eigenvalues --  -24.64091  -1.17429  -0.52731  -0.39200  -0.39200
 Alpha  occ. eigenvalues --   -0.33930
 Alpha virt. eigenvalues --    0.02063   0.24669   0.36721   0.94234   0.94234
 Alpha virt. eigenvalues --    0.98149   1.23227   1.23593   1.23593   1.30718
 Alpha virt. eigenvalues --    1.36492   1.36492   1.96154   2.14427   2.34998

  Beta  occ. eigenvalues --  -24.64088  -1.17421  -0.52721  -0.39197  -0.39197
  Beta virt. eigenvalues --   -0.06549   0.02996   0.36329   0.39065   0.94235
  Beta virt. eigenvalues --    0.94235   0.98144   1.29881   1.36490   1.36490
  Beta virt. eigenvalues --    1.49747   1.49747   1.49914   1.96216   2.34955

 Mulliken charges and spin densities:
               1          2
     1  H    0.307084   0.000995
     2  H    0.001711   0.997848
     3  F   -0.308794   0.001157
 Sum of Mulliken charges =   0.00000   1.00000

 Dipole moment (field-independent basis, Debye):
    X=             -1.9791    Y=             -0.0000    Z=              0.0000  Tot=              1.9791
 Quadrupole moment (field-independent basis, Debye-Ang):
   XX=             -8.0155   YY=             -6.9159   ZZ=             -6.9159
   XY=             -0.0000   XZ=              0.0000   YZ=             -0.0000

  Exact polarizability:       6.518      -0.000       2.418      -0.000       0.000       2.418
 Approx polarizability:       7.648       0.000       2.395      -0.000       0.000       2.395

 ******    1 imaginary frequencies (negative Signs) ******

                      1                      2                      3
                      A                      A                      A
 Frequencies --    -58.2225               673.3284               673.3284
 Red. masses --      1.0532                 1.0364                 1.0364
 Frc consts  --      0.0021                 0.2768                 0.2768
 IR Inten    --      0.1178               172.4145               172.4145

                      4
                      A
 Frequencies --   3678.6454
 Red. masses --      1.0584
 Frc consts  --      8.4383
 IR Inten    --     99.7886

 - Thermochemistry -
 -------------------
 Temperature   298.150 Kelvin.  Pressure   1.00000 Atm.
 Atom     1 has atomic number  1 and mass   1.00783

 Molecular mass:    21.01405 amu.
 Principal axes and moments of inertia in atomic units:
                           1         2         3
     Eigenvalues --     0.00000  60.74252  60.74252
           X            1.00000  -0.00000   0.00000
           Y            0.00000   1.00000   0.00000
           Z            0.00000   0.00000   1.00000
 This molecule is a prolate symmetric top.
 Rotational symmetry number  1.
 Rotational temperature (Kelvin)      1.42592
 Rotational constant (GHZ):          29.711330
    1 imaginary frequencies ignored.
 Zero-point vibrational energy      30058.0 (Joules/Mol)
                                    7.18403 (Kcal/Mol)
 Vibrational temperatures:    968.77   968.77  5292.75
          (Kelvin)

 Zero-point correction=                           0.011448 (Hartree/Particle)
 Thermal correction to Energy=                    0.014057
 Thermal correction to Enthalpy=                  0.015001
 Thermal correction to Gibbs Free Energy=        -0.008627
 Sum of electronic and zero-point Energies=           -100.959626
 Sum of electronic and thermal Energies=              -100.957018
 Sum of electronic and thermal Enthalpies=            -100.956074
 Sum of electronic and thermal Free Energies=         -100.979702

                     E (Thermal)             CV                S
                      KCal/Mol        Cal/Mol-Kelvin    Cal/Mol-Kelvin
 Total                    8.821              6.730             49.728
 Electronic               0.000              0.000              1.377
 Translational            0.889              2.981             35.068
 Rotational               0.592              1.987             12.604
 Vibrational              7.339              1.762              0.679

 Normal termination of Gaussian 16 at Fri Aug 22 15:58:57 2025.
