 Gaussian 16, Revision C.01,
 Gaussian 16:  ES64L-G16RevC.01  3-Jul-2019

 -----------------------------------------
 # sp b3lyp/6-311g** Force nosymm scf=(qc)
 -----------------------------------------

 -------------------
 Title Card Required
 -------------------
 Symbolic Z-matrix:
 Charge =  0 Multiplicity = 2

                          Input orientation:
 ---------------------------------------------------------------------
 Center     Atomic      Atomic             Coordinates (Angstroms)
 Number     Number       Type             X           Y           Z
 ---------------------------------------------------------------------
      1          1           0        0.000000    0.000000    0.000000
      2          1           0       -2.150000    0.000000    0.000000
      3          9           0        3.450000    0.000000    0.000000
 ---------------------------------------------------------------------

 SCF Done:  E(UB3LYP) =  -100.769379592     a.u. after   30 cycles

 Alpha  occ. eigenvalues --  -24.75448  -1.21406  -0.54570  -0.45820  -0.45820
 Alpha  occ. eigenvalues --   -0.32994
 Alpha virt. eigenvalues --   -0.10717   0.25862   0.32952   0.87773   0.91434
 Alpha virt. eigenvalues --    0.91434   1.01881   1.22155   1.24890   1.24890
 Alpha virt. eigenvalues --    1.38760   1.38760   1.46318   2.13642   2.35633

  Beta  occ. eigenvalues --  -24.72334  -1.12457  -0.42699  -0.42699  -0.33152
  Beta virt. eigenvalues --   -0.25550  -0.10349   0.25751   0.33520   0.92923
  Beta virt. eigenvalues --    0.92923   0.96917   1.05918   1.22007   1.24687
  Beta virt. eigenvalues --    1.24687   1.39306   1.39306   1.46759   2.14310

 Mulliken charges and spin densities:
               1          2
     1  H    0.005804  -0.899754
     2  H    0.005244   0.912378
     3  F   -0.011048   0.987376
 Sum of Mulliken charges =   0.00000   1.00000

 Dipole moment (field-independent basis, Debye):
    X=             -0.2490    Y=              0.0000    Z=             -0.0000  Tot=              0.2490
 Quadrupole moment (field-independent basis, Debye-Ang):
   XX=             -6.8589   YY=             -7.7040   ZZ=             -7.7040
   XY=             -0.0000   XZ=              0.0000   YZ=              0.0000

  Exact polarizability:      42.699      -0.000       2.020       0.000       0.000       2.020
 Approx polarizability:      34.185      -0.000       1.931       0.000      -0.000       1.931

 ******    2 imaginary frequencies (negative Signs) ******

                      1                      2                      3
                      A                      A                      A
 Frequencies --  -1101.9053              -144.6568               429.6856
 Red. masses --      1.0079                 1.1085                 1.0132
 Frc consts  --      0.7210                 0.0137                 0.1102
 IR Inten    --      9.0038                 8.2051                 0.0103

                      4
                      A
 Frequencies --    429.6856
 Red. masses --      1.0132
 Frc consts  --      0.1102
 IR Inten    --      0.0103

 - Thermochemistry -
 -------------------
 Temperature   298.150 Kelvin.  Pressure   1.00000 Atm.
 Atom     1 has atomic number  1 and mass   1.00783

 Molecular mass:    21.01405 amu.
 Principal axes and moments of inertia in atomic units:
                           1         2         3
     Eigenvalues --     0.00000 141.56517 141.56517
           X            1.00000  -0.00000   0.00000
           Y            0.00000   1.00000   0.00000
           Z            0.00000   0.00000   1.00000
 This molecule is a prolate symmetric top.
 Rotational symmetry number  1.
 Rotational temperature (Kelvin)      0.61183
 Rotational constant (GHZ):          12.748483
    2 imaginary frequencies ignored.
 Zero-point vibrational energy       5140.2 (Joules/Mol)
                                    1.22853 (Kcal/Mol)
 Warning -- explicit consideration of   2 degrees of freedom as
           vibrations may cause significant error
 Vibrational temperatures:    618.22   618.22
          (Kelvin)

 Zero-point correction=                           0.001958 (Hartree/Particle)
 Thermal correction to Energy=                    0.004881
 Thermal correction to Enthalpy=                  0.005826
 Thermal correction to Gibbs Free Energy=        -0.019095
 Sum of electronic and zero-point Energies=           -100.767422
 Sum of electronic and thermal Energies=              -100.764498
 Sum of electronic and thermal Enthalpies=            -100.763554
 Sum of electronic and thermal Free Energies=         -100.788475

                     E (Thermal)             CV                S
                      KCal/Mol        Cal/Mol-Kelvin    Cal/Mol-Kelvin
 Total                    3.063              7.779             52.451
 Electronic               0.000              0.000              1.377
 Translational            0.889              2.981             35.068
 Rotational               0.592              1.987             14.286
 Vibrational              1.582              2.811              1.719
 Vibration     1          0.791              1.406              0.860
 Vibration     2          0.791              1.406              0.860

 Normal termination of Gaussian 16 at Fri Aug 22 21:41:17 2025.
