 Gaussian 16, Revision C.01,
 Gaussian 16:  ES64L-G16RevC.01  3-Jul-2019

 -----------------------------------------
 # sp b3lyp/6-311g** Force nosymm scf=(qc)
 -----------------------------------------

 -------------------
 Title Card Required
 -------------------
 Symbolic Z-matrix:
 Charge =  0 Multiplicity = 2

                          Input orientation:
 ---------------------------------------------------------------------
 Center     Atomic      Atomic             Coordinates (Angstroms)
 Number     Number       Type             X           Y           Z
 ---------------------------------------------------------------------
      1          1           0        0.000000    0.000000    0.000000
      2          1           0       -1.200000    0.000000    0.000000
      3          9           0        2.450000    0.000000    0.000000
 ---------------------------------------------------------------------

 SCF Done:  E(UB3LYP) =  -100.873111710     a.u. after   17 cycles

 Alpha  occ. eigenvalues --  -24.74876  -1.20890  -0.54114  -0.45365  -0.45365
 Alpha  occ. eigenvalues --   -0.37729
 Alpha virt. eigenvalues --   -0.04674   0.22459   0.34793   0.89255   0.91618
 Alpha virt. eigenvalues --    0.91618   1.08578   1.11466   1.11466   1.23880
 Alpha virt. eigenvalues --    1.52995   1.52995   2.06374   2.30503   2.54559

  Beta  occ. eigenvalues --  -24.71835  -1.12180  -0.42323  -0.42323  -0.37470
  Beta virt. eigenvalues --   -0.25744  -0.04010   0.22846   0.35285   0.93058
  Beta virt. eigenvalues --    0.93058   0.97322   1.11863   1.11863   1.11933
  Beta virt. eigenvalues --    1.25451   1.53325   1.53325   2.06869   2.31018

 Mulliken charges and spin densities:
               1          2
     1  H    0.000180  -0.047754
     2  H    0.028529   0.086893
     3  F   -0.028709   0.960860
 Sum of Mulliken charges =   0.00000   1.00000

 Dipole moment (field-independent basis, Debye):
    X=             -0.5166    Y=             -0.0000    Z=              0.0000  Tot=              0.5166
 Quadrupole moment (field-independent basis, Debye-Ang):
   XX=             -6.1554   YY=             -7.4604   ZZ=             -7.4604
   XY=             -0.0000   XZ=              0.0000   YZ=              0.0000

  Exact polarizability:      36.978       0.000       2.001      -0.000      -0.000       2.001
 Approx polarizability:      46.903      -0.000       2.121       0.000      -0.000       2.121

 ******    2 imaginary frequencies (negative Signs) ******

                      1                      2                      3
                      A                      A                      A
 Frequencies --   -830.7055              -133.7475              1488.7977
 Red. masses --      1.0148                 1.1002                 1.0116
 Frc consts  --      0.4126                 0.0116                 1.3211
 IR Inten    --    346.4952                 0.2157                 1.1971

                      4
                      A
 Frequencies --   1488.7979
 Red. masses --      1.0116
 Frc consts  --      1.3211
 IR Inten    --      1.1971

 - Thermochemistry -
 -------------------
 Temperature   298.150 Kelvin.  Pressure   1.00000 Atm.
 Atom     1 has atomic number  1 and mass   1.00783

 Molecular mass:    21.01405 amu.
 Principal axes and moments of inertia in atomic units:
                           1         2         3
     Eigenvalues --     0.00000  63.12814  63.12814
           X            1.00000  -0.00000   0.00000
           Y            0.00000   1.00000   0.00000
           Z            0.00000   0.00000   1.00000
 This molecule is a prolate symmetric top.
 Rotational symmetry number  1.
 Rotational temperature (Kelvin)      1.37203
 Rotational constant (GHZ):          28.588539
    2 imaginary frequencies ignored.
 Zero-point vibrational energy      17810.0 (Joules/Mol)
                                    4.25669 (Kcal/Mol)
 Vibrational temperatures:   2142.05  2142.05
          (Kelvin)

 Zero-point correction=                           0.006783 (Hartree/Particle)
 Thermal correction to Energy=                    0.009154
 Thermal correction to Enthalpy=                  0.010098
 Thermal correction to Gibbs Free Energy=        -0.013255
 Sum of electronic and zero-point Energies=           -100.866328
 Sum of electronic and thermal Energies=              -100.863957
 Sum of electronic and thermal Enthalpies=            -100.863013
 Sum of electronic and thermal Free Energies=         -100.886367

                     E (Thermal)             CV                S
                      KCal/Mol        Cal/Mol-Kelvin    Cal/Mol-Kelvin
 Total                    5.744              5.124             49.151
 Electronic               0.000              0.000              1.377
 Translational            0.889              2.981             35.068
 Rotational               0.592              1.987             12.681
 Vibrational              4.263              0.156              0.025

 Normal termination of Gaussian 16 at Fri Aug 22 17:37:27 2025.
