 Gaussian 16, Revision C.01,
 Gaussian 16:  ES64L-G16RevC.01  3-Jul-2019

 -----------------------------------------
 # sp b3lyp/6-311g** Force nosymm scf=(qc)
 -----------------------------------------

 -------------------
 Title Card Required
 -------------------
 Symbolic Z-matrix:
 Charge =  0 Multiplicity = 2

                          Input orientation:
 ---------------------------------------------------------------------
 Center     Atomic      Atomic             Coordinates (Angstroms)
 Number     Number       Type             X           Y           Z
 ---------------------------------------------------------------------
      1          1           0        0.000000    0.000000    0.000000
      2          1           0       -0.700000    0.000000    0.000000
      3          9           0        4.000000    0.000000    0.000000
 ---------------------------------------------------------------------

 SCF Done:  E(UB3LYP) =  -100.932197640     a.u. after   36 cycles

 Alpha  occ. eigenvalues --  -24.76163  -1.22059  -0.55264  -0.46437  -0.46420
 Alpha  occ. eigenvalues --   -0.44260
 Alpha virt. eigenvalues --    0.06669   0.19480   0.48390   0.86105   0.90982
 Alpha virt. eigenvalues --    0.91642   1.01048   1.08897   1.08899   1.57318
 Alpha virt. eigenvalues --    1.85795   1.85797   1.88998   2.37681   3.56825

  Beta  occ. eigenvalues --  -24.73007  -1.12985  -0.44269  -0.43265  -0.43257
  Beta virt. eigenvalues --   -0.25913   0.06673   0.19482   0.48412   0.92483
  Beta virt. eigenvalues --    0.93131   0.95571   1.05187   1.08897   1.08899
  Beta virt. eigenvalues --    1.57320   1.85795   1.85797   1.89005   2.37681

 Mulliken charges and spin densities:
               1          2
     1  H    0.000283  -0.000140
     2  H   -0.001492   0.000012
     3  F    0.001209   1.000128
 Sum of Mulliken charges =   0.00000   1.00000

 Dipole moment (field-independent basis, Debye):
    X=              0.0190    Y=              0.0000    Z=              0.0000  Tot=              0.0190
 Quadrupole moment (field-independent basis, Debye-Ang):
   XX=             -6.2949   YY=             -6.1913   ZZ=             -6.7042
   XY=              0.0000   XZ=              0.0000   YZ=              0.3480

  Exact polarizability:       7.379       0.000       2.301       0.000       0.188       2.024
 Approx polarizability:       8.386       0.000       2.471       0.000       0.235       2.126

 ******    3 imaginary frequencies (negative Signs) ******

                      1                      2                      3
                      A                      A                      A
 Frequencies --  -1185.3698             -1183.0896               -65.4423
 Red. masses --      1.0085                 1.0085                 1.1085
 Frc consts  --      0.8349                 0.8317                 0.0028
 IR Inten    --      0.0003                 0.0000                 0.0395

                      4
                      A
 Frequencies --   5087.6562
 Red. masses --      1.0078
 Frc consts  --     15.3699
 IR Inten    --      0.0161

 - Thermochemistry -
 -------------------
 Temperature   298.150 Kelvin.  Pressure   1.00000 Atm.
 Atom     1 has atomic number  1 and mass   1.00783

 Molecular mass:    21.01405 amu.
 Principal axes and moments of inertia in atomic units:
                           1         2         3
     Eigenvalues --     0.00000 124.02162 124.02162
           X            1.00000  -0.00000   0.00000
           Y            0.00000   1.00000   0.00000
           Z            0.00000   0.00000   1.00000
 This molecule is a prolate symmetric top.
 Rotational symmetry number  1.
 Rotational temperature (Kelvin)      0.69838
 Rotational constant (GHZ):          14.551828
    3 imaginary frequencies ignored.
 Zero-point vibrational energy      30430.9 (Joules/Mol)
                                    7.27317 (Kcal/Mol)
 Vibrational temperatures:   7320.00
          (Kelvin)

 Zero-point correction=                           0.011591 (Hartree/Particle)
 Thermal correction to Energy=                    0.013951
 Thermal correction to Enthalpy=                  0.014895
 Thermal correction to Gibbs Free Energy=        -0.009084
 Sum of electronic and zero-point Energies=           -100.920607
 Sum of electronic and thermal Energies=              -100.918247
 Sum of electronic and thermal Enthalpies=            -100.917302
 Sum of electronic and thermal Free Energies=         -100.941282

                     E (Thermal)             CV                S
                      KCal/Mol        Cal/Mol-Kelvin    Cal/Mol-Kelvin
 Total                    8.754              4.968             50.468
 Electronic               0.000              0.000              1.377
 Translational            0.889              2.981             35.068
 Rotational               0.592              1.987             14.023
 Vibrational              7.273              0.000              0.000

 Normal termination of Gaussian 16 at Sat Aug 23 01:43:50 2025.
