 Gaussian 16, Revision C.01,
 Gaussian 16:  ES64L-G16RevC.01  3-Jul-2019

 -----------------------------------------
 # sp b3lyp/6-311g** Force nosymm scf=(qc)
 -----------------------------------------

 -------------------
 Title Card Required
 -------------------
 Symbolic Z-matrix:
 Charge =  0 Multiplicity = 2

                          Input orientation:
 ---------------------------------------------------------------------
 Center     Atomic      Atomic             Coordinates (Angstroms)
 Number     Number       Type             X           Y           Z
 ---------------------------------------------------------------------
      1          1           0        0.000000    0.000000    0.000000
      2          1           0       -1.600000    0.000000    0.000000
      3          9           0        1.600000    0.000000    0.000000
 ---------------------------------------------------------------------

 SCF Done:  E(UB3LYP) =  -100.857492541     a.u. after   14 cycles

 Alpha  occ. eigenvalues --  -24.65387  -1.11866  -0.46277  -0.38539  -0.37472
 Alpha  occ. eigenvalues --   -0.37472
 Alpha virt. eigenvalues --   -0.09348   0.21547   0.29041   0.92241   0.94036
 Alpha virt. eigenvalues --    0.94036   1.03577   1.16874   1.16874   1.37610
 Alpha virt. eigenvalues --    1.37610   1.41384   1.81682   2.16410   2.38859

  Beta  occ. eigenvalues --  -24.63757  -1.07445  -0.40356  -0.35897  -0.35897
  Beta virt. eigenvalues --   -0.21659  -0.06356   0.24686   0.29898   0.94083
  Beta virt. eigenvalues --    0.94083   0.96316   1.06941   1.23241   1.23241
  Beta virt. eigenvalues --    1.38645   1.38645   1.47331   1.84532   2.18857

 Mulliken charges and spin densities:
               1          2
     1  H    0.222111  -0.289418
     2  H    0.070754   0.780882
     3  F   -0.292865   0.508536
 Sum of Mulliken charges =   0.00000   1.00000

 Dipole moment (field-independent basis, Debye):
    X=             -2.8384    Y=             -0.0000    Z=              0.0000  Tot=              2.8384
 Quadrupole moment (field-independent basis, Debye-Ang):
   XX=             -8.3085   YY=             -7.3243   ZZ=             -7.3243
   XY=             -0.0000   XZ=              0.0000   YZ=             -0.0000

  Exact polarizability:      39.736      -0.000       2.233       0.000      -0.000       2.233
 Approx polarizability:      57.059      -0.000       2.165       0.000       0.000       2.165

 ******    2 imaginary frequencies (negative Signs) ******

                      1                      2                      3
                      A                      A                      A
 Frequencies --  -2466.1592              -539.0248               999.5583
 Red. masses --      1.0233                 1.0904                 1.0179
 Frc consts  --      3.6668                 0.1867                 0.5992
 IR Inten    --    334.0404                 0.1847                24.3829

                      4
                      A
 Frequencies --    999.5583
 Red. masses --      1.0179
 Frc consts  --      0.5992
 IR Inten    --     24.3829

 - Thermochemistry -
 -------------------
 Temperature   298.150 Kelvin.  Pressure   1.00000 Atm.
 Atom     1 has atomic number  1 and mass   1.00783

 Molecular mass:    21.01405 amu.
 Principal axes and moments of inertia in atomic units:
                           1         2         3
     Eigenvalues --     0.00000  42.09045  42.09045
           X            1.00000  -0.00000   0.00000
           Y            0.00000   1.00000   0.00000
           Z            0.00000   0.00000   1.00000
 This molecule is a prolate symmetric top.
 Rotational symmetry number  1.
 Rotational temperature (Kelvin)      2.05780
 Rotational constant (GHZ):          42.877693
    2 imaginary frequencies ignored.
 Zero-point vibrational energy      11957.4 (Joules/Mol)
                                    2.85788 (Kcal/Mol)
 Vibrational temperatures:   1438.14  1438.14
          (Kelvin)

 Zero-point correction=                           0.004554 (Hartree/Particle)
 Thermal correction to Energy=                    0.006989
 Thermal correction to Enthalpy=                  0.007933
 Thermal correction to Gibbs Free Energy=        -0.015115
 Sum of electronic and zero-point Energies=           -100.852938
 Sum of electronic and thermal Energies=              -100.850504
 Sum of electronic and thermal Enthalpies=            -100.849560
 Sum of electronic and thermal Free Energies=         -100.872608

                     E (Thermal)             CV                S
                      KCal/Mol        Cal/Mol-Kelvin    Cal/Mol-Kelvin
 Total                    4.385              5.723             48.508
 Electronic               0.000              0.000              1.377
 Translational            0.889              2.981             35.068
 Rotational               0.592              1.987             11.875
 Vibrational              2.904              0.755              0.187

 Normal termination of Gaussian 16 at Fri Aug 22 16:30:48 2025.
