 Gaussian 16, Revision C.01,
 Gaussian 16:  ES64L-G16RevC.01  3-Jul-2019

 -----------------------------------------
 # sp b3lyp/6-311g** Force nosymm scf=(qc)
 -----------------------------------------

 -------------------
 Title Card Required
 -------------------
 Symbolic Z-matrix:
 Charge =  0 Multiplicity = 2

                          Input orientation:
 ---------------------------------------------------------------------
 Center     Atomic      Atomic             Coordinates (Angstroms)
 Number     Number       Type             X           Y           Z
 ---------------------------------------------------------------------
      1          1           0        0.000000    0.000000    0.000000
      2          1           0       -2.550000    0.000000    0.000000
      3          9           0        0.650000    0.000000    0.000000
 ---------------------------------------------------------------------

 SCF Done:  E(UB3LYP) =  -100.800831564     a.u. after    6 cycles

 Alpha  occ. eigenvalues --  -24.62900  -1.31272  -0.59792  -0.42316  -0.42316
 Alpha  occ. eigenvalues --   -0.34317
 Alpha virt. eigenvalues --    0.08264   0.25587   0.55443   0.92923   0.92923
 Alpha virt. eigenvalues --    0.94692   1.18401   1.23230   1.23230   1.43713
 Alpha virt. eigenvalues --    1.46947   1.46947   1.95665   2.14685   3.09703

  Beta  occ. eigenvalues --  -24.62893  -1.31252  -0.59770  -0.42312  -0.42312
  Beta virt. eigenvalues --   -0.07954   0.09597   0.38310   0.55235   0.92918
  Beta virt. eigenvalues --    0.92918   0.94797   1.29925   1.46397   1.46397
  Beta virt. eigenvalues --    1.46953   1.46953   1.56539   1.95617   2.43577

 Mulliken charges and spin densities:
               1          2
     1  H    0.250152   0.003142
     2  H    0.004153   0.994154
     3  F   -0.254305   0.002704
 Sum of Mulliken charges =   0.00000   1.00000

 Dipole moment (field-independent basis, Debye):
    X=             -1.5572    Y=             -0.0000    Z=              0.0000  Tot=              1.5572
 Quadrupole moment (field-independent basis, Debye-Ang):
   XX=             -6.9752   YY=             -6.6023   ZZ=             -6.6023
   XY=             -0.0000   XZ=              0.0000   YZ=              0.0000

  Exact polarizability:       5.030       0.000       2.468      -0.000      -0.000       2.468
 Approx polarizability:       5.116       0.000       2.452      -0.000      -0.000       2.452

 ******    2 imaginary frequencies (negative Signs) ******

                      1                      2                      3
                      A                      A                      A
 Frequencies --  -4562.6836             -4562.6836               102.2832
 Red. masses --      1.0386                 1.0386                 1.0532
 Frc consts  --     12.7397                12.7397                 0.0065
 IR Inten    --    212.2820               212.2820                 0.1844

                      4
                      A
 Frequencies --  10873.2111
 Red. masses --      1.0583
 Frc consts  --     73.7190
 IR Inten    --    115.0913

 - Thermochemistry -
 -------------------
 Temperature   298.150 Kelvin.  Pressure   1.00000 Atm.
 Atom     1 has atomic number  1 and mass   1.00783

 Molecular mass:    21.01405 amu.
 Principal axes and moments of inertia in atomic units:
                           1         2         3
     Eigenvalues --     0.00000  35.81596  35.81596
           X            1.00000  -0.00000   0.00000
           Y            0.00000   1.00000   0.00000
           Z            0.00000   0.00000   1.00000
 This molecule is a prolate symmetric top.
 Rotational symmetry number  1.
 Rotational temperature (Kelvin)      2.41831
 Rotational constant (GHZ):          50.389298
    2 imaginary frequencies ignored.
 Zero-point vibrational energy      65648.0 (Joules/Mol)
                                   15.69026 (Kcal/Mol)
 Warning -- explicit consideration of   1 degrees of freedom as
           vibrations may cause significant error
 Vibrational temperatures:    147.16 15644.13
          (Kelvin)

 Zero-point correction=                           0.025004 (Hartree/Particle)
 Thermal correction to Energy=                    0.028095
 Thermal correction to Enthalpy=                  0.029039
 Thermal correction to Gibbs Free Energy=         0.004612
 Sum of electronic and zero-point Energies=           -100.775828
 Sum of electronic and thermal Energies=              -100.772737
 Sum of electronic and thermal Enthalpies=            -100.771793
 Sum of electronic and thermal Free Energies=         -100.796219

                     E (Thermal)             CV                S
                      KCal/Mol        Cal/Mol-Kelvin    Cal/Mol-Kelvin
 Total                   17.630              6.915             51.410
 Electronic               0.000              0.000              1.377
 Translational            0.889              2.981             35.068
 Rotational               0.592              1.987             11.555
 Vibrational             16.149              1.947              3.410
 Vibration     1          0.604              1.947              3.410

 Normal termination of Gaussian 16 at Fri Aug 22 15:44:26 2025.
