 Gaussian 16, Revision C.01,
 Gaussian 16:  ES64L-G16RevC.01  3-Jul-2019

 -----------------------------------------
 # sp b3lyp/6-311g** Force nosymm scf=(qc)
 -----------------------------------------

 -------------------
 Title Card Required
 -------------------
 Symbolic Z-matrix:
 Charge =  0 Multiplicity = 2

                          Input orientation:
 ---------------------------------------------------------------------
 Center     Atomic      Atomic             Coordinates (Angstroms)
 Number     Number       Type             X           Y           Z
 ---------------------------------------------------------------------
      1          1           0        0.000000    0.000000    0.000000
      2          1           0       -3.700000    0.000000    0.000000
      3          9           0        2.050000    0.000000    0.000000
 ---------------------------------------------------------------------

 SCF Done:  E(UB3LYP) =  -100.784006174     a.u. after   19 cycles

 Alpha  occ. eigenvalues --  -24.68641  -1.14965  -0.47647  -0.40113  -0.40113
 Alpha  occ. eigenvalues --   -0.33252
 Alpha virt. eigenvalues --   -0.13372   0.22486   0.32211   0.88495   0.94788
 Alpha virt. eigenvalues --    0.94788   1.05695   1.24256   1.24256   1.24290
 Alpha virt. eigenvalues --    1.35962   1.35962   1.58094   2.13838   2.30352

  Beta  occ. eigenvalues --  -24.66193  -1.08102  -0.37696  -0.37696  -0.37633
  Beta virt. eigenvalues --   -0.21074  -0.06620   0.22640   0.38018   0.90160
  Beta virt. eigenvalues --    0.95559   0.95559   1.08113   1.21735   1.21735
  Beta virt. eigenvalues --    1.45829   1.46234   1.46234   1.50460   2.11595

 Mulliken charges and spin densities:
               1          2
     1  H    0.179225  -0.768880
     2  H    0.000921   0.998608
     3  F   -0.180147   0.770272
 Sum of Mulliken charges =  -0.00000   1.00000

 Dipole moment (field-independent basis, Debye):
    X=             -1.8473    Y=              0.0000    Z=             -0.0000  Tot=              1.8473
 Quadrupole moment (field-independent basis, Debye-Ang):
   XX=            -10.0130   YY=             -7.4979   ZZ=             -7.4979
   XY=             -0.0000   XZ=             -0.0000   YZ=             -0.0000

  Exact polarizability:      25.903      -0.000       2.055       0.000       0.000       2.055
 Approx polarizability:      37.251      -0.000       1.941      -0.000      -0.000       1.941

 ******    2 imaginary frequencies (negative Signs) ******

                      1                      2                      3
                      A                      A                      A
 Frequencies --  -1052.1198               -95.2961               446.5501
 Red. masses --      1.0574                 1.0542                 1.0264
 Frc consts  --      0.6896                 0.0056                 0.1206
 IR Inten    --    118.0829                 0.1098                30.4899

                      4
                      A
 Frequencies --    446.5501
 Red. masses --      1.0264
 Frc consts  --      0.1206
 IR Inten    --     30.4899

 - Thermochemistry -
 -------------------
 Temperature   298.150 Kelvin.  Pressure   1.00000 Atm.
 Atom     1 has atomic number  1 and mass   1.00783

 Molecular mass:    21.01405 amu.
 Principal axes and moments of inertia in atomic units:
                           1         2         3
     Eigenvalues --     0.00000 123.61565 123.61565
           X            1.00000  -0.00000   0.00000
           Y            0.00000   1.00000   0.00000
           Z            0.00000   0.00000   1.00000
 This molecule is a prolate symmetric top.
 Rotational symmetry number  1.
 Rotational temperature (Kelvin)      0.70067
 Rotational constant (GHZ):          14.599618
    2 imaginary frequencies ignored.
 Zero-point vibrational energy       5341.9 (Joules/Mol)
                                    1.27675 (Kcal/Mol)
 Warning -- explicit consideration of   2 degrees of freedom as
           vibrations may cause significant error
 Vibrational temperatures:    642.49   642.49
          (Kelvin)

 Zero-point correction=                           0.002035 (Hartree/Particle)
 Thermal correction to Energy=                    0.004929
 Thermal correction to Enthalpy=                  0.005873
 Thermal correction to Gibbs Free Energy=        -0.018869
 Sum of electronic and zero-point Energies=           -100.781972
 Sum of electronic and thermal Energies=              -100.779078
 Sum of electronic and thermal Enthalpies=            -100.778133
 Sum of electronic and thermal Free Energies=         -100.802876

                     E (Thermal)             CV                S
                      KCal/Mol        Cal/Mol-Kelvin    Cal/Mol-Kelvin
 Total                    3.093              7.705             52.074
 Electronic               0.000              0.000              1.377
 Translational            0.889              2.981             35.068
 Rotational               0.592              1.987             14.016
 Vibrational              1.612              2.737              1.613
 Vibration     1          0.806              1.369              0.806
 Vibration     2          0.806              1.369              0.806

 Normal termination of Gaussian 16 at Fri Aug 22 17:01:48 2025.
