 Gaussian 16, Revision C.01,
 Gaussian 16:  ES64L-G16RevC.01  3-Jul-2019

 -----------------------------------------
 # sp b3lyp/6-311g** Force nosymm scf=(qc)
 -----------------------------------------

 -------------------
 Title Card Required
 -------------------
 Symbolic Z-matrix:
 Charge =  0 Multiplicity = 2

                          Input orientation:
 ---------------------------------------------------------------------
 Center     Atomic      Atomic             Coordinates (Angstroms)
 Number     Number       Type             X           Y           Z
 ---------------------------------------------------------------------
      1          1           0        0.000000    0.000000    0.000000
      2          1           0       -2.300000    0.000000    0.000000
      3          9           0        1.800000    0.000000    0.000000
 ---------------------------------------------------------------------

 SCF Done:  E(UB3LYP) =  -100.809948082     a.u. after   20 cycles

 Alpha  occ. eigenvalues --  -24.66328  -1.12556  -0.45265  -0.38107  -0.38107
 Alpha  occ. eigenvalues --   -0.35984
 Alpha virt. eigenvalues --   -0.14198   0.23760   0.29278   0.93373   0.94998
 Alpha virt. eigenvalues --    0.94998   1.06193   1.21720   1.21720   1.26392
 Alpha virt. eigenvalues --    1.33774   1.33774   1.69577   2.11984   2.26468

  Beta  occ. eigenvalues --  -24.64402  -1.07250  -0.38932  -0.36227  -0.36227
  Beta virt. eigenvalues --   -0.19646  -0.10391   0.24865   0.33660   0.94879
  Beta virt. eigenvalues --    0.95073   0.95073   1.08591   1.24438   1.24438
  Beta virt. eigenvalues --    1.39320   1.39320   1.42317   1.65305   2.12948

 Mulliken charges and spin densities:
               1          2
     1  H    0.225208  -0.557411
     2  H    0.030045   0.951845
     3  F   -0.255253   0.605566
 Sum of Mulliken charges =   0.00000   1.00000

 Dipole moment (field-independent basis, Debye):
    X=             -2.5781    Y=              0.0000    Z=             -0.0000  Tot=              2.5781
 Quadrupole moment (field-independent basis, Debye-Ang):
   XX=             -9.2664   YY=             -7.4705   ZZ=             -7.4705
   XY=              0.0000   XZ=             -0.0000   YZ=             -0.0000

  Exact polarizability:      37.501       0.000       2.103      -0.000      -0.000       2.103
 Approx polarizability:      47.357       0.000       2.001      -0.000       0.000       2.001

 ******    2 imaginary frequencies (negative Signs) ******

                      1                      2                      3
                      A                      A                      A
 Frequencies --  -1613.7239              -465.8734               679.7630
 Red. masses --      1.0432                 1.0686                 1.0212
 Frc consts  --      1.6006                 0.1366                 0.2780
 IR Inten    --     87.5808                16.9280                39.2346

                      4
                      A
 Frequencies --    679.7630
 Red. masses --      1.0212
 Frc consts  --      0.2780
 IR Inten    --     39.2346

 - Thermochemistry -
 -------------------
 Temperature   298.150 Kelvin.  Pressure   1.00000 Atm.
 Atom     1 has atomic number  1 and mass   1.00783

 Molecular mass:    21.01405 amu.
 Principal axes and moments of inertia in atomic units:
                           1         2         3
     Eigenvalues --     0.00000  66.15167  66.15167
           X            1.00000  -0.00000   0.00000
           Y            0.00000   1.00000   0.00000
           Z            0.00000   0.00000   1.00000
 This molecule is a prolate symmetric top.
 Rotational symmetry number  1.
 Rotational temperature (Kelvin)      1.30932
 Rotational constant (GHZ):          27.281867
    2 imaginary frequencies ignored.
 Zero-point vibrational energy       8131.8 (Joules/Mol)
                                    1.94354 (Kcal/Mol)
 Vibrational temperatures:    978.03   978.03
          (Kelvin)

 Zero-point correction=                           0.003097 (Hartree/Particle)
 Thermal correction to Energy=                    0.005700
 Thermal correction to Enthalpy=                  0.006644
 Thermal correction to Gibbs Free Energy=        -0.017056
 Sum of electronic and zero-point Energies=           -100.806851
 Sum of electronic and thermal Energies=              -100.804248
 Sum of electronic and thermal Enthalpies=            -100.803304
 Sum of electronic and thermal Free Energies=         -100.827004

                     E (Thermal)             CV                S
                      KCal/Mol        Cal/Mol-Kelvin    Cal/Mol-Kelvin
 Total                    3.577              6.705             49.881
 Electronic               0.000              0.000              1.377
 Translational            0.889              2.981             35.068
 Rotational               0.592              1.987             12.774
 Vibrational              2.095              1.737              0.662

 Normal termination of Gaussian 16 at Fri Aug 22 16:43:48 2025.
