 Gaussian 16, Revision C.01,
 Gaussian 16:  ES64L-G16RevC.01  3-Jul-2019

 -----------------------------------------
 # sp b3lyp/6-311g** Force nosymm scf=(qc)
 -----------------------------------------

 -------------------
 Title Card Required
 -------------------
 Symbolic Z-matrix:
 Charge =  0 Multiplicity = 2

                          Input orientation:
 ---------------------------------------------------------------------
 Center     Atomic      Atomic             Coordinates (Angstroms)
 Number     Number       Type             X           Y           Z
 ---------------------------------------------------------------------
      1          1           0        0.000000    0.000000    0.000000
      2          1           0       -3.700000    0.000000    0.000000
      3          9           0        2.650000    0.000000    0.000000
 ---------------------------------------------------------------------

 SCF Done:  E(UB3LYP) =  -100.764627363     a.u. after   18 cycles

 Alpha  occ. eigenvalues --  -24.72557  -1.18723  -0.51669  -0.43395  -0.43395
 Alpha  occ. eigenvalues --   -0.32710
 Alpha virt. eigenvalues --   -0.09379   0.23602   0.35702   0.89916   0.93168
 Alpha virt. eigenvalues --    0.93168   1.05786   1.24793   1.24793   1.24865
 Alpha virt. eigenvalues --    1.41846   1.41846   1.44074   2.14369   2.38474

  Beta  occ. eigenvalues --  -24.69644  -1.10411  -0.40487  -0.40487  -0.34781
  Beta virt. eigenvalues --   -0.23861  -0.06367   0.23847   0.38050   0.94580
  Beta virt. eigenvalues --    0.94580   0.97420   1.08654   1.22561   1.22561
  Beta virt. eigenvalues --    1.26297   1.46127   1.46361   1.46361   2.13335

 Mulliken charges and spin densities:
               1          2
     1  H    0.070244  -0.920138
     2  H    0.000440   0.998746
     3  F   -0.070684   0.921391
 Sum of Mulliken charges =  -0.00000   1.00000

 Dipole moment (field-independent basis, Debye):
    X=             -0.9649    Y=             -0.0000    Z=             -0.0000  Tot=              0.9649
 Quadrupole moment (field-independent basis, Debye-Ang):
   XX=             -9.0428   YY=             -7.5841   ZZ=             -7.5841
   XY=              0.0000   XZ=              0.0000   YZ=              0.0000

  Exact polarizability:      31.251       0.000       2.024       0.000      -0.000       2.024
 Approx polarizability:      37.617       0.000       1.921       0.000       0.000       1.921

 ******    2 imaginary frequencies (negative Signs) ******

                      1                      2                      3
                      A                      A                      A
 Frequencies --   -526.1030               -96.6979               198.3562
 Red. masses --      1.0547                 1.0569                 1.0225
 Frc consts  --      0.1720                 0.0058                 0.0237
 IR Inten    --     67.4220                 0.1460                 4.7584

                      4
                      A
 Frequencies --    198.3562
 Red. masses --      1.0225
 Frc consts  --      0.0237
 IR Inten    --      4.7584

 - Thermochemistry -
 -------------------
 Temperature   298.150 Kelvin.  Pressure   1.00000 Atm.
 Atom     1 has atomic number  1 and mass   1.00783

 Molecular mass:    21.01405 amu.
 Principal axes and moments of inertia in atomic units:
                           1         2         3
     Eigenvalues --     0.00000 156.41390 156.41390
           X            1.00000  -0.00000   0.00000
           Y            0.00000   1.00000   0.00000
           Z            0.00000   0.00000   1.00000
 This molecule is a prolate symmetric top.
 Rotational symmetry number  1.
 Rotational temperature (Kelvin)      0.55375
 Rotational constant (GHZ):          11.538241
    2 imaginary frequencies ignored.
 Zero-point vibrational energy       2372.9 (Joules/Mol)
                                    0.56713 (Kcal/Mol)
 Warning -- explicit consideration of   2 degrees of freedom as
           vibrations may cause significant error
 Vibrational temperatures:    285.39   285.39
          (Kelvin)

 Zero-point correction=                           0.000904 (Hartree/Particle)
 Thermal correction to Energy=                    0.004391
 Thermal correction to Enthalpy=                  0.005335
 Thermal correction to Gibbs Free Energy=        -0.020905
 Sum of electronic and zero-point Energies=           -100.763724
 Sum of electronic and thermal Energies=              -100.760237
 Sum of electronic and thermal Enthalpies=            -100.759292
 Sum of electronic and thermal Free Energies=         -100.785532

                     E (Thermal)             CV                S
                      KCal/Mol        Cal/Mol-Kelvin    Cal/Mol-Kelvin
 Total                    2.755              8.652             55.226
 Electronic               0.000              0.000              1.377
 Translational            0.889              2.981             35.068
 Rotational               0.592              1.987             14.484
 Vibrational              1.274              3.684              4.297
 Vibration     1          0.637              1.842              2.148
 Vibration     2          0.637              1.842              2.148

 Normal termination of Gaussian 16 at Fri Aug 22 18:16:02 2025.
