 Gaussian 16, Revision C.01,
 Gaussian 16:  ES64L-G16RevC.01  3-Jul-2019

 -----------------------------------------
 # sp b3lyp/6-311g** Force nosymm scf=(qc)
 -----------------------------------------

 -------------------
 Title Card Required
 -------------------
 Symbolic Z-matrix:
 Charge =  0 Multiplicity = 2

                          Input orientation:
 ---------------------------------------------------------------------
 Center     Atomic      Atomic             Coordinates (Angstroms)
 Number     Number       Type             X           Y           Z
 ---------------------------------------------------------------------
      1          1           0        0.000000    0.000000    0.000000
      2          1           0       -3.450000    0.000000    0.000000
      3          9           0        0.650000    0.000000    0.000000
 ---------------------------------------------------------------------

 SCF Done:  E(UB3LYP) =  -100.800692743     a.u. after    6 cycles

 Alpha  occ. eigenvalues --  -24.62935  -1.31314  -0.59801  -0.42356  -0.42356
 Alpha  occ. eigenvalues --   -0.33412
 Alpha virt. eigenvalues --    0.06982   0.25034   0.55396   0.92882   0.92882
 Alpha virt. eigenvalues --    0.94692   1.23783   1.24100   1.24100   1.32934
 Alpha virt. eigenvalues --    1.46912   1.46912   1.96053   2.14730   3.09634

  Beta  occ. eigenvalues --  -24.62934  -1.31312  -0.59801  -0.42356  -0.42356
  Beta virt. eigenvalues --   -0.05332   0.07505   0.39465   0.55424   0.92882
  Beta virt. eigenvalues --    0.92882   0.94686   1.32186   1.46912   1.46912
  Beta virt. eigenvalues --    1.50634   1.50634   1.51197   1.96038   2.44843

 Mulliken charges and spin densities:
               1          2
     1  H    0.254519   0.000603
     2  H    0.000820   0.998991
     3  F   -0.255339   0.000407
 Sum of Mulliken charges =   0.00000   1.00000

 Dipole moment (field-independent basis, Debye):
    X=             -1.5163    Y=              0.0000    Z=              0.0000  Tot=              1.5163
 Quadrupole moment (field-independent basis, Debye-Ang):
   XX=             -7.1206   YY=             -6.6079   ZZ=             -6.6079
   XY=              0.0000   XZ=              0.0000   YZ=              0.0000

  Exact polarizability:       3.739       0.000       2.445      -0.000       0.000       2.445
 Approx polarizability:       4.016      -0.000       2.426       0.000       0.000       2.426

 ******    3 imaginary frequencies (negative Signs) ******

                      1                      2                      3
                      A                      A                      A
 Frequencies --  -4597.0864             -4597.0864               -38.3656
 Red. masses --      1.0427                 1.0427                 1.0532
 Frc consts  --     12.9833                12.9833                 0.0009
 IR Inten    --    225.6847               225.6847                 0.0302

                      4
                      A
 Frequencies --  10873.4778
 Red. masses --      1.0583
 Frc consts  --     73.7226
 IR Inten    --    103.4881

 - Thermochemistry -
 -------------------
 Temperature   298.150 Kelvin.  Pressure   1.00000 Atm.
 Atom     1 has atomic number  1 and mass   1.00783

 Molecular mass:    21.01405 amu.
 Principal axes and moments of inertia in atomic units:
                           1         2         3
     Eigenvalues --     0.00000  58.12547  58.12547
           X            1.00000  -0.00000   0.00000
           Y            0.00000   1.00000   0.00000
           Z            0.00000   0.00000   1.00000
 This molecule is a prolate symmetric top.
 Rotational symmetry number  1.
 Rotational temperature (Kelvin)      1.49012
 Rotational constant (GHZ):          31.049059
    3 imaginary frequencies ignored.
 Zero-point vibrational energy      65037.8 (Joules/Mol)
                                   15.54442 (Kcal/Mol)
 Vibrational temperatures:  15644.51
          (Kelvin)

 Zero-point correction=                           0.024772 (Hartree/Particle)
 Thermal correction to Energy=                    0.027132
 Thermal correction to Enthalpy=                  0.028076
 Thermal correction to Gibbs Free Energy=         0.004813
 Sum of electronic and zero-point Energies=           -100.775921
 Sum of electronic and thermal Energies=              -100.773561
 Sum of electronic and thermal Enthalpies=            -100.772616
 Sum of electronic and thermal Free Energies=         -100.795880

                     E (Thermal)             CV                S
                      KCal/Mol        Cal/Mol-Kelvin    Cal/Mol-Kelvin
 Total                   17.026              4.968             48.962
 Electronic               0.000              0.000              1.377
 Translational            0.889              2.981             35.068
 Rotational               0.592              1.987             12.517
 Vibrational             15.544              0.000              0.000

 Normal termination of Gaussian 16 at Fri Aug 22 15:45:00 2025.
