 Gaussian 16, Revision C.01,
 Gaussian 16:  ES64L-G16RevC.01  3-Jul-2019

 -----------------------------------------
 # sp b3lyp/6-311g** Force nosymm scf=(qc)
 -----------------------------------------

 -------------------
 Title Card Required
 -------------------
 Symbolic Z-matrix:
 Charge =  0 Multiplicity = 2

                          Input orientation:
 ---------------------------------------------------------------------
 Center     Atomic      Atomic             Coordinates (Angstroms)
 Number     Number       Type             X           Y           Z
 ---------------------------------------------------------------------
      1          1           0        0.000000    0.000000    0.000000
      2          1           0       -2.100000    0.000000    0.000000
      3          9           0        0.700000    0.000000    0.000000
 ---------------------------------------------------------------------

 SCF Done:  E(UB3LYP) =  -100.874690494     a.u. after    6 cycles

 Alpha  occ. eigenvalues --  -24.63094  -1.28142  -0.58620  -0.41665  -0.41665
 Alpha  occ. eigenvalues --   -0.35141
 Alpha virt. eigenvalues --    0.09575   0.24713   0.50523   0.93569   0.93569
 Alpha virt. eigenvalues --    0.95969   1.16046   1.22349   1.22349   1.44190
 Alpha virt. eigenvalues --    1.44190   1.52859   1.97048   2.17203   2.86828

  Beta  occ. eigenvalues --  -24.63068  -1.28069  -0.58503  -0.41646  -0.41646
  Beta virt. eigenvalues --   -0.10021   0.11121   0.36141   0.50707   0.93567
  Beta virt. eigenvalues --    0.93567   0.96180   1.26326   1.42241   1.42241
  Beta virt. eigenvalues --    1.44750   1.44750   1.62562   1.99497   2.42746

 Mulliken charges and spin densities:
               1          2
     1  H    0.250409   0.007802
     2  H    0.008723   0.986539
     3  F   -0.259132   0.005660
 Sum of Mulliken charges =   0.00000   1.00000

 Dipole moment (field-independent basis, Debye):
    X=             -1.6695    Y=             -0.0000    Z=             -0.0000  Tot=              1.6695
 Quadrupole moment (field-independent basis, Debye-Ang):
   XX=             -7.0351   YY=             -6.6379   ZZ=             -6.6379
   XY=             -0.0000   XZ=             -0.0000   YZ=             -0.0000

  Exact polarizability:       6.319      -0.000       2.493       0.000       0.000       2.493
 Approx polarizability:       6.299       0.000       2.484       0.000       0.000       2.484

 ******    2 imaginary frequencies (negative Signs) ******

                      1                      2                      3
                      A                      A                      A
 Frequencies --  -3507.2503             -3507.2503               276.6554
 Red. masses --      1.0346                 1.0346                 1.0533
 Frc consts  --      7.4981                 7.4981                 0.0475
 IR Inten    --    184.9093               184.9093                 0.2058

                      4
                      A
 Frequencies --   9070.1836
 Red. masses --      1.0583
 Frc consts  --     51.2965
 IR Inten    --    136.1310

 - Thermochemistry -
 -------------------
 Temperature   298.150 Kelvin.  Pressure   1.00000 Atm.
 Atom     1 has atomic number  1 and mass   1.00783

 Molecular mass:    21.01405 amu.
 Principal axes and moments of inertia in atomic units:
                           1         2         3
     Eigenvalues --     0.00000  27.86531  27.86531
           X            1.00000  -0.00000   0.00000
           Y            0.00000   1.00000   0.00000
           Z            0.00000   0.00000   1.00000
 This molecule is a prolate symmetric top.
 Rotational symmetry number  1.
 Rotational temperature (Kelvin)      3.10831
 Rotational constant (GHZ):          64.766602
    2 imaginary frequencies ignored.
 Zero-point vibrational energy      55906.5 (Joules/Mol)
                                   13.36198 (Kcal/Mol)
 Warning -- explicit consideration of   1 degrees of freedom as
           vibrations may cause significant error
 Vibrational temperatures:    398.05 13049.97
          (Kelvin)

 Zero-point correction=                           0.021294 (Hartree/Particle)
 Thermal correction to Energy=                    0.024104
 Thermal correction to Enthalpy=                  0.025048
 Thermal correction to Gibbs Free Energy=         0.001741
 Sum of electronic and zero-point Energies=           -100.853397
 Sum of electronic and thermal Energies=              -100.850586
 Sum of electronic and thermal Enthalpies=            -100.849642
 Sum of electronic and thermal Free Energies=         -100.872950

                     E (Thermal)             CV                S
                      KCal/Mol        Cal/Mol-Kelvin    Cal/Mol-Kelvin
 Total                   15.126              6.685             49.056
 Electronic               0.000              0.000              1.377
 Translational            0.889              2.981             35.068
 Rotational               0.592              1.987             11.056
 Vibrational             13.644              1.717              1.554
 Vibration     1          0.678              1.717              1.554

 Normal termination of Gaussian 16 at Fri Aug 22 15:46:29 2025.
