 Gaussian 16, Revision C.01,
 Gaussian 16:  ES64L-G16RevC.01  3-Jul-2019

 -----------------------------------------
 # sp b3lyp/6-311g** Force nosymm scf=(qc)
 -----------------------------------------

 -------------------
 Title Card Required
 -------------------
 Symbolic Z-matrix:
 Charge =  0 Multiplicity = 2

                          Input orientation:
 ---------------------------------------------------------------------
 Center     Atomic      Atomic             Coordinates (Angstroms)
 Number     Number       Type             X           Y           Z
 ---------------------------------------------------------------------
      1          1           0        0.000000    0.000000    0.000000
      2          1           0       -1.150000    0.000000    0.000000
      3          9           0        1.350000    0.000000    0.000000
 ---------------------------------------------------------------------

 SCF Done:  E(UB3LYP) =  -100.922372195     a.u. after    8 cycles

 Alpha  occ. eigenvalues --  -24.66021  -1.13705  -0.51904  -0.38863  -0.38645
 Alpha  occ. eigenvalues --   -0.38645
 Alpha virt. eigenvalues --    0.02269   0.19658   0.32128   0.90990   0.90990
 Alpha virt. eigenvalues --    1.00082   1.09053   1.09053   1.17655   1.54669
 Alpha virt. eigenvalues --    1.54669   1.59714   2.11886   2.28599   2.45705

  Beta  occ. eigenvalues --  -24.64394  -1.09400  -0.44795  -0.37103  -0.37103
  Beta virt. eigenvalues --   -0.22210   0.05327   0.22056   0.34692   0.91720
  Beta virt. eigenvalues --    0.91720   1.03922   1.14009   1.14009   1.22362
  Beta virt. eigenvalues --    1.57370   1.57370   1.63258   2.18459   2.31545

 Mulliken charges and spin densities:
               1          2
     1  H    0.235313  -0.112482
     2  H    0.059082   0.624594
     3  F   -0.294395   0.487888
 Sum of Mulliken charges =   0.00000   1.00000

 Dipole moment (field-independent basis, Debye):
    X=             -2.3359    Y=              0.0000    Z=              0.0000  Tot=              2.3359
 Quadrupole moment (field-independent basis, Debye-Ang):
   XX=             -7.7494   YY=             -7.0042   ZZ=             -7.0042
   XY=              0.0000   XZ=              0.0000   YZ=              0.0000

  Exact polarizability:      27.202      -0.000       2.439      -0.000      -0.000       2.439
 Approx polarizability:      39.307       0.000       2.416      -0.000      -0.000       2.416

 ******    1 imaginary frequencies (negative Signs) ******

                      1                      2                      3
                      A                      A                      A
 Frequencies --  -2608.8363               679.6777              1167.5798
 Red. masses --      1.0254                 1.0880                 1.0161
 Frc consts  --      4.1119                 0.2961                 0.8161
 IR Inten    --    550.5478                43.6315                20.1326

                      4
                      A
 Frequencies --   1167.5798
 Red. masses --      1.0161
 Frc consts  --      0.8161
 IR Inten    --     20.1326

 - Thermochemistry -
 -------------------
 Temperature   298.150 Kelvin.  Pressure   1.00000 Atm.
 Atom     1 has atomic number  1 and mass   1.00783

 Molecular mass:    21.01405 amu.
 Principal axes and moments of inertia in atomic units:
                           1         2         3
     Eigenvalues --     0.00000  26.49453  26.49453
           X            1.00000  -0.00000   0.00000
           Y            0.00000   1.00000   0.00000
           Z            0.00000   0.00000   1.00000
 This molecule is a prolate symmetric top.
 Rotational symmetry number  1.
 Rotational temperature (Kelvin)      3.26912
 Rotational constant (GHZ):          68.117501
    1 imaginary frequencies ignored.
 Zero-point vibrational energy      18032.7 (Joules/Mol)
                                    4.30993 (Kcal/Mol)
 Vibrational temperatures:    977.90  1679.89  1679.89
          (Kelvin)

 Zero-point correction=                           0.006868 (Hartree/Particle)
 Thermal correction to Energy=                    0.009388
 Thermal correction to Enthalpy=                  0.010332
 Thermal correction to Gibbs Free Energy=        -0.012392
 Sum of electronic and zero-point Energies=           -100.915504
 Sum of electronic and thermal Energies=              -100.912984
 Sum of electronic and thermal Enthalpies=            -100.912040
 Sum of electronic and thermal Free Energies=         -100.934764

                     E (Thermal)             CV                S
                      KCal/Mol        Cal/Mol-Kelvin    Cal/Mol-Kelvin
 Total                    5.891              6.291             47.827
 Electronic               0.000              0.000              1.377
 Translational            0.889              2.981             35.068
 Rotational               0.592              1.987             10.956
 Vibrational              4.410              1.323              0.426

 Normal termination of Gaussian 16 at Fri Aug 22 16:16:54 2025.
