 Gaussian 16, Revision C.01,
 Gaussian 16:  ES64L-G16RevC.01  3-Jul-2019

 -----------------------------------------
 # sp b3lyp/6-311g** Force nosymm scf=(qc)
 -----------------------------------------

 -------------------
 Title Card Required
 -------------------
 Symbolic Z-matrix:
 Charge =  0 Multiplicity = 2

                          Input orientation:
 ---------------------------------------------------------------------
 Center     Atomic      Atomic             Coordinates (Angstroms)
 Number     Number       Type             X           Y           Z
 ---------------------------------------------------------------------
      1          1           0        0.000000    0.000000    0.000000
      2          1           0       -1.900000    0.000000    0.000000
      3          9           0        2.450000    0.000000    0.000000
 ---------------------------------------------------------------------

 SCF Done:  E(UB3LYP) =  -100.787740476     a.u. after   18 cycles

 Alpha  occ. eigenvalues --  -24.71697  -1.17904  -0.50812  -0.42661  -0.42661
 Alpha  occ. eigenvalues --   -0.35202
 Alpha virt. eigenvalues --   -0.12794   0.24601   0.31669   0.89405   0.93644
 Alpha virt. eigenvalues --    0.93644   1.04945   1.19032   1.22654   1.22654
 Alpha virt. eigenvalues --    1.34801   1.34801   1.53769   2.11489   2.36059

  Beta  occ. eigenvalues --  -24.68865  -1.09846  -0.39838  -0.39838  -0.35322
  Beta virt. eigenvalues --   -0.23573  -0.11821   0.26575   0.31340   0.94996
  Beta virt. eigenvalues --    0.94996   0.95698   1.07885   1.22545   1.22783
  Beta virt. eigenvalues --    1.22783   1.36226   1.36226   1.54298   2.12265

 Mulliken charges and spin densities:
               1          2
     1  H    0.055291  -0.716597
     2  H    0.034568   0.821971
     3  F   -0.089859   0.894626
 Sum of Mulliken charges =  -0.00000   1.00000

 Dipole moment (field-independent basis, Debye):
    X=             -1.4340    Y=              0.0000    Z=              0.0000  Tot=              1.4340
 Quadrupole moment (field-independent basis, Debye-Ang):
   XX=             -8.0408   YY=             -7.6628   ZZ=             -7.6628
   XY=             -0.0000   XZ=             -0.0000   YZ=             -0.0000

  Exact polarizability:      60.706      -0.000       2.013      -0.000      -0.000       2.013
 Approx polarizability:      68.673       0.000       1.940       0.000       0.000       1.940

 ******    2 imaginary frequencies (negative Signs) ******

                      1                      2                      3
                      A                      A                      A
 Frequencies --  -1575.6663              -405.5555               653.4456
 Red. masses --      1.0090                 1.1071                 1.0152
 Frc consts  --      1.4760                 0.1073                 0.2554
 IR Inten    --    114.9333                52.1255                 1.3956

                      4
                      A
 Frequencies --    653.4456
 Red. masses --      1.0152
 Frc consts  --      0.2554
 IR Inten    --      1.3956

 - Thermochemistry -
 -------------------
 Temperature   298.150 Kelvin.  Pressure   1.00000 Atm.
 Atom     1 has atomic number  1 and mass   1.00783

 Molecular mass:    21.01405 amu.
 Principal axes and moments of inertia in atomic units:
                           1         2         3
     Eigenvalues --     0.00000  81.72394  81.72394
           X            1.00000  -0.00000   0.00000
           Y            0.00000   1.00000   0.00000
           Z            0.00000   0.00000   1.00000
 This molecule is a prolate symmetric top.
 Rotational symmetry number  1.
 Rotational temperature (Kelvin)      1.05984
 Rotational constant (GHZ):          22.083384
    2 imaginary frequencies ignored.
 Zero-point vibrational energy       7816.9 (Joules/Mol)
                                    1.86829 (Kcal/Mol)
 Vibrational temperatures:    940.16   940.16
          (Kelvin)

 Zero-point correction=                           0.002977 (Hartree/Particle)
 Thermal correction to Energy=                    0.005603
 Thermal correction to Enthalpy=                  0.006548
 Thermal correction to Gibbs Free Energy=        -0.017386
 Sum of electronic and zero-point Energies=           -100.784763
 Sum of electronic and thermal Energies=              -100.782137
 Sum of electronic and thermal Enthalpies=            -100.781193
 Sum of electronic and thermal Free Energies=         -100.805126

                     E (Thermal)             CV                S
                      KCal/Mol        Cal/Mol-Kelvin    Cal/Mol-Kelvin
 Total                    3.516              6.810             50.372
 Electronic               0.000              0.000              1.377
 Translational            0.889              2.981             35.068
 Rotational               0.592              1.987             13.194
 Vibrational              2.035              1.842              0.733

 Normal termination of Gaussian 16 at Fri Aug 22 17:38:13 2025.
