 Gaussian 16, Revision C.01,
 Gaussian 16:  ES64L-G16RevC.01  3-Jul-2019

 -----------------------------------------
 # sp b3lyp/6-311g** Force nosymm scf=(qc)
 -----------------------------------------

 -------------------
 Title Card Required
 -------------------
 Symbolic Z-matrix:
 Charge =  0 Multiplicity = 2

                          Input orientation:
 ---------------------------------------------------------------------
 Center     Atomic      Atomic             Coordinates (Angstroms)
 Number     Number       Type             X           Y           Z
 ---------------------------------------------------------------------
      1          1           0        0.000000    0.000000    0.000000
      2          1           0       -3.700000    0.000000    0.000000
      3          9           0        1.550000    0.000000    0.000000
 ---------------------------------------------------------------------

 SCF Done:  E(UB3LYP) =  -100.843937214     a.u. after    9 cycles

 Alpha  occ. eigenvalues --  -24.64394  -1.09585  -0.42740  -0.36368  -0.36368
 Alpha  occ. eigenvalues --   -0.33821
 Alpha virt. eigenvalues --   -0.15573   0.20233   0.27429   0.93801   0.93801
 Alpha virt. eigenvalues --    1.02592   1.07643   1.23675   1.23688   1.23688
 Alpha virt. eigenvalues --    1.30582   1.30582   1.73300   2.12913   2.18434

  Beta  occ. eigenvalues --  -24.64273  -1.09262  -0.42478  -0.36252  -0.36252
  Beta virt. eigenvalues --   -0.15945  -0.06473   0.22786   0.38211   0.93745
  Beta virt. eigenvalues --    0.93745   1.02806   1.07600   1.29926   1.29926
  Beta virt. eigenvalues --    1.46048   1.46448   1.46448   1.73009   2.16530

 Mulliken charges and spin densities:
               1          2
     1  H    0.344139  -0.037175
     2  H    0.001236   0.998693
     3  F   -0.345376   0.038483
 Sum of Mulliken charges =  -0.00000   1.00000

 Dipole moment (field-independent basis, Debye):
    X=             -2.6470    Y=             -0.0000    Z=              0.0000  Tot=              2.6470
 Quadrupole moment (field-independent basis, Debye-Ang):
   XX=            -10.1070   YY=             -7.3477   ZZ=             -7.3477
   XY=             -0.0000   XZ=              0.0000   YZ=              0.0000

  Exact polarizability:      16.407      -0.000       2.165       0.000       0.000       2.165
 Approx polarizability:      32.329       0.000       2.085      -0.000      -0.000       2.085

 ******    2 imaginary frequencies (negative Signs) ******

                      1                      2                      3
                      A                      A                      A
 Frequencies --  -1323.0511               -67.5110               979.8728
 Red. masses --      1.0574                 1.0541                 1.0309
 Frc consts  --      1.0906                 0.0028                 0.5832
 IR Inten    --     18.7223                 0.0852               114.2591

                      4
                      A
 Frequencies --    979.8728
 Red. masses --      1.0309
 Frc consts  --      0.5832
 IR Inten    --    114.2591

 - Thermochemistry -
 -------------------
 Temperature   298.150 Kelvin.  Pressure   1.00000 Atm.
 Atom     1 has atomic number  1 and mass   1.00783

 Molecular mass:    21.01405 amu.
 Principal axes and moments of inertia in atomic units:
                           1         2         3
     Eigenvalues --     0.00000  99.86295  99.86295
           X            1.00000  -0.00000   0.00000
           Y            0.00000   1.00000   0.00000
           Z            0.00000   0.00000   1.00000
 This molecule is a prolate symmetric top.
 Rotational symmetry number  1.
 Rotational temperature (Kelvin)      0.86733
 Rotational constant (GHZ):          18.072180
    2 imaginary frequencies ignored.
 Zero-point vibrational energy      11721.9 (Joules/Mol)
                                    2.80160 (Kcal/Mol)
 Vibrational temperatures:   1409.82  1409.82
          (Kelvin)

 Zero-point correction=                           0.004465 (Hartree/Particle)
 Thermal correction to Energy=                    0.006905
 Thermal correction to Enthalpy=                  0.007849
 Thermal correction to Gibbs Free Energy=        -0.016022
 Sum of electronic and zero-point Energies=           -100.839473
 Sum of electronic and thermal Energies=              -100.837032
 Sum of electronic and thermal Enthalpies=            -100.836088
 Sum of electronic and thermal Free Energies=         -100.859959

                     E (Thermal)             CV                S
                      KCal/Mol        Cal/Mol-Kelvin    Cal/Mol-Kelvin
 Total                    4.333              5.768             50.241
 Electronic               0.000              0.000              1.377
 Translational            0.889              2.981             35.068
 Rotational               0.592              1.987             13.592
 Vibrational              2.852              0.800              0.203

 Normal termination of Gaussian 16 at Fri Aug 22 16:29:37 2025.
