 Gaussian 16, Revision C.01,
 Gaussian 16:  ES64L-G16RevC.01  3-Jul-2019

 -----------------------------------------
 # sp b3lyp/6-311g** Force nosymm scf=(qc)
 -----------------------------------------

 -------------------
 Title Card Required
 -------------------
 Symbolic Z-matrix:
 Charge =  0 Multiplicity = 2

                          Input orientation:
 ---------------------------------------------------------------------
 Center     Atomic      Atomic             Coordinates (Angstroms)
 Number     Number       Type             X           Y           Z
 ---------------------------------------------------------------------
      1          1           0        0.000000    0.000000    0.000000
      2          1           0       -3.800000    0.000000    0.000000
      3          9           0        0.600000    0.000000    0.000000
 ---------------------------------------------------------------------

 SCF Done:  E(UB3LYP) =  -100.687892480     a.u. after    6 cycles

 Alpha  occ. eigenvalues --  -24.62731  -1.34732  -0.61026  -0.42983  -0.42983
 Alpha  occ. eigenvalues --   -0.33163
 Alpha virt. eigenvalues --    0.07387   0.24640   0.58079   0.92119   0.92119
 Alpha virt. eigenvalues --    0.93147   1.24231   1.24342   1.24342   1.33255
 Alpha virt. eigenvalues --    1.50260   1.50260   1.95390   2.14418   3.36516

  Beta  occ. eigenvalues --  -24.62731  -1.34731  -0.61026  -0.42983  -0.42983
  Beta virt. eigenvalues --   -0.05038   0.07604   0.38788   0.58061   0.92119
  Beta virt. eigenvalues --    0.92119   0.93144   1.32989   1.48934   1.49454
  Beta virt. eigenvalues --    1.49454   1.50261   1.50261   1.95371   2.45770

 Mulliken charges and spin densities:
               1          2
     1  H    0.238387   0.000321
     2  H    0.000412   0.999533
     3  F   -0.238798   0.000146
 Sum of Mulliken charges =   0.00000   1.00000

 Dipole moment (field-independent basis, Debye):
    X=             -1.4349    Y=             -0.0000    Z=             -0.0000  Tot=              1.4349
 Quadrupole moment (field-independent basis, Debye-Ang):
   XX=             -6.9939   YY=             -6.5520   ZZ=             -6.5520
   XY=             -0.0000   XZ=             -0.0000   YZ=              0.0000

  Exact polarizability:       3.249      -0.000       2.435       0.000      -0.000       2.435
 Approx polarizability:       3.500       0.000       2.413      -0.000      -0.000       2.413

 ******    3 imaginary frequencies (negative Signs) ******

                      1                      2                      3
                      A                      A                      A
 Frequencies --  -5892.9986             -5892.9986               -31.0232
 Red. masses --      1.0448                 1.0448                 1.0532
 Frc consts  --     21.3779                21.3779                 0.0006
 IR Inten    --    242.2421               242.2421                 0.0110

                      4
                      A
 Frequencies --  13070.5872
 Red. masses --      1.0583
 Frc consts  --    106.5255
 IR Inten    --     96.3402

 - Thermochemistry -
 -------------------
 Temperature   298.150 Kelvin.  Pressure   1.00000 Atm.
 Atom     1 has atomic number  1 and mass   1.00783

 Molecular mass:    21.01405 amu.
 Principal axes and moments of inertia in atomic units:
                           1         2         3
     Eigenvalues --     0.00000  66.65728  66.65728
           X            1.00000  -0.00000   0.00000
           Y            0.00000   1.00000   0.00000
           Z            0.00000   0.00000   1.00000
 This molecule is a prolate symmetric top.
 Rotational symmetry number  1.
 Rotational temperature (Kelvin)      1.29939
 Rotational constant (GHZ):          27.074932
    3 imaginary frequencies ignored.
 Zero-point vibrational energy      78179.5 (Joules/Mol)
                                   18.68534 (Kcal/Mol)
 Vibrational temperatures:  18805.66
          (Kelvin)

 Zero-point correction=                           0.029777 (Hartree/Particle)
 Thermal correction to Energy=                    0.032137
 Thermal correction to Enthalpy=                  0.033082
 Thermal correction to Gibbs Free Energy=         0.009689
 Sum of electronic and zero-point Energies=           -100.658115
 Sum of electronic and thermal Energies=              -100.655755
 Sum of electronic and thermal Enthalpies=            -100.654811
 Sum of electronic and thermal Free Energies=         -100.678204

                     E (Thermal)             CV                S
                      KCal/Mol        Cal/Mol-Kelvin    Cal/Mol-Kelvin
 Total                   20.167              4.968             49.234
 Electronic               0.000              0.000              1.377
 Translational            0.889              2.981             35.068
 Rotational               0.592              1.987             12.789
 Vibrational             18.685              0.000              0.000

 Normal termination of Gaussian 16 at Fri Aug 22 15:42:51 2025.
