 Gaussian 16, Revision C.01,
 Gaussian 16:  ES64L-G16RevC.01  3-Jul-2019

 -----------------------------------------
 # sp b3lyp/6-311g** Force nosymm scf=(qc)
 -----------------------------------------

 -------------------
 Title Card Required
 -------------------
 Symbolic Z-matrix:
 Charge =  0 Multiplicity = 2

                          Input orientation:
 ---------------------------------------------------------------------
 Center     Atomic      Atomic             Coordinates (Angstroms)
 Number     Number       Type             X           Y           Z
 ---------------------------------------------------------------------
      1          1           0        0.000000    0.000000    0.000000
      2          1           0       -3.950000    0.000000    0.000000
      3          9           0        3.200000    0.000000    0.000000
 ---------------------------------------------------------------------

 SCF Done:  E(UB3LYP) =  -100.759752503     a.u. after   24 cycles

 Alpha  occ. eigenvalues --  -24.74710  -1.20724  -0.53832  -0.45199  -0.45199
 Alpha  occ. eigenvalues --   -0.32378
 Alpha virt. eigenvalues --   -0.07063   0.23996   0.36592   0.88631   0.91897
 Alpha virt. eigenvalues --    0.91897   1.02857   1.25118   1.25118   1.25141
 Alpha virt. eigenvalues --    1.45407   1.45407   1.45763   2.14456   2.41594

  Beta  occ. eigenvalues --  -24.71640  -1.11914  -0.42124  -0.42124  -0.33280
  Beta virt. eigenvalues --   -0.25122  -0.05906   0.23759   0.38156   0.93372
  Beta virt. eigenvalues --    0.93372   0.97536   1.06716   1.24082   1.24082
  Beta virt. eigenvalues --    1.24160   1.46629   1.46745   1.46745   2.14675

 Mulliken charges and spin densities:
               1          2
     1  H    0.024399  -0.972505
     2  H    0.000099   0.999308
     3  F   -0.024498   0.973197
 Sum of Mulliken charges =  -0.00000   1.00000

 Dipole moment (field-independent basis, Debye):
    X=             -0.4046    Y=             -0.0000    Z=              0.0000  Tot=              0.4046
 Quadrupole moment (field-independent basis, Debye-Ang):
   XX=             -7.9475   YY=             -7.6118   ZZ=             -7.6118
   XY=             -0.0000   XZ=              0.0000   YZ=              0.0000

  Exact polarizability:      28.945      -0.000       2.030       0.000      -0.000       2.030
 Approx polarizability:      26.742      -0.000       1.930       0.000      -0.000       1.930

 ******    2 imaginary frequencies (negative Signs) ******

                      1                      2                      3
                      A                      A                      A
 Frequencies --   -293.3524               -72.3349                96.0582
 Red. masses --      1.0515                 1.0601                 1.0207
 Frc consts  --      0.0533                 0.0033                 0.0055
 IR Inten    --     26.4837                 0.1285                 0.5645

                      4
                      A
 Frequencies --     96.0582
 Red. masses --      1.0207
 Frc consts  --      0.0055
 IR Inten    --      0.5645

 - Thermochemistry -
 -------------------
 Temperature   298.150 Kelvin.  Pressure   1.00000 Atm.
 Atom     1 has atomic number  1 and mass   1.00783

 Molecular mass:    21.01405 amu.
 Principal axes and moments of inertia in atomic units:
                           1         2         3
     Eigenvalues --     0.00000 202.35408 202.35408
           X            1.00000  -0.00000   0.00000
           Y            0.00000   1.00000   0.00000
           Z            0.00000   0.00000   1.00000
 This molecule is a prolate symmetric top.
 Rotational symmetry number  1.
 Rotational temperature (Kelvin)      0.42803
 Rotational constant (GHZ):           8.918729
    2 imaginary frequencies ignored.
 Zero-point vibrational energy       1149.1 (Joules/Mol)
                                    0.27464 (Kcal/Mol)
 Warning -- explicit consideration of   2 degrees of freedom as
           vibrations may cause significant error
 Vibrational temperatures:    138.21   138.21
          (Kelvin)

 Zero-point correction=                           0.000438 (Hartree/Particle)
 Thermal correction to Energy=                    0.004283
 Thermal correction to Enthalpy=                  0.005227
 Thermal correction to Gibbs Free Energy=        -0.022572
 Sum of electronic and zero-point Energies=           -100.759315
 Sum of electronic and thermal Energies=              -100.755470
 Sum of electronic and thermal Enthalpies=            -100.754526
 Sum of electronic and thermal Free Energies=         -100.782324

                     E (Thermal)             CV                S
                      KCal/Mol        Cal/Mol-Kelvin    Cal/Mol-Kelvin
 Total                    2.687              8.872             58.507
 Electronic               0.000              0.000              1.377
 Translational            0.889              2.981             35.068
 Rotational               0.592              1.987             14.996
 Vibrational              1.206              3.904              7.066
 Vibration     1          0.603              1.952              3.533
 Vibration     2          0.603              1.952              3.533

 Normal termination of Gaussian 16 at Fri Aug 22 20:25:23 2025.
