 Gaussian 16, Revision C.01,
 Gaussian 16:  ES64L-G16RevC.01  3-Jul-2019

 -----------------------------------------
 # sp b3lyp/6-311g** Force nosymm scf=(qc)
 -----------------------------------------

 -------------------
 Title Card Required
 -------------------
 Symbolic Z-matrix:
 Charge =  0 Multiplicity = 2

                          Input orientation:
 ---------------------------------------------------------------------
 Center     Atomic      Atomic             Coordinates (Angstroms)
 Number     Number       Type             X           Y           Z
 ---------------------------------------------------------------------
      1          1           0        0.000000    0.000000    0.000000
      2          1           0       -1.700000    0.000000    0.000000
      3          9           0        2.250000    0.000000    0.000000
 ---------------------------------------------------------------------

 SCF Done:  E(UB3LYP) =  -100.806382747     a.u. after   14 cycles

 Alpha  occ. eigenvalues --  -24.70796  -1.17062  -0.49970  -0.41917  -0.41917
 Alpha  occ. eigenvalues --   -0.36369
 Alpha virt. eigenvalues --   -0.12393   0.23698   0.31229   0.86690   0.93973
 Alpha virt. eigenvalues --    0.93973   1.02964   1.20469   1.20469   1.21011
 Alpha virt. eigenvalues --    1.35246   1.35246   1.66107   2.14266   2.39349

  Beta  occ. eigenvalues --  -24.68066  -1.09327  -0.39204  -0.39204  -0.36094
  Beta virt. eigenvalues --   -0.23399  -0.11408   0.25958   0.30631   0.91194
  Beta virt. eigenvalues --    0.95209   0.95209   1.06734   1.21517   1.21517
  Beta virt. eigenvalues --    1.25456   1.36069   1.36069   1.66729   2.15128

 Mulliken charges and spin densities:
               1          2
     1  H    0.065249  -0.552015
     2  H    0.049197   0.691457
     3  F   -0.114446   0.860558
 Sum of Mulliken charges =   0.00000   1.00000

 Dipole moment (field-independent basis, Debye):
    X=             -1.6988    Y=              0.0000    Z=             -0.0000  Tot=              1.6988
 Quadrupole moment (field-independent basis, Debye-Ang):
   XX=             -7.8670   YY=             -7.6301   ZZ=             -7.6301
   XY=              0.0000   XZ=             -0.0000   YZ=              0.0000

  Exact polarizability:      59.203       0.000       2.042      -0.000       0.000       2.042
 Approx polarizability:      78.587      -0.000       1.983      -0.000      -0.000       1.983

 ******    2 imaginary frequencies (negative Signs) ******

                      1                      2                      3
                      A                      A                      A
 Frequencies --  -1935.4658              -457.4542               866.0066
 Red. masses --      1.0095                 1.1065                 1.0149
 Frc consts  --      2.2281                 0.1364                 0.4485
 IR Inten    --    311.4672                45.5963                 1.4254

                      4
                      A
 Frequencies --    866.0066
 Red. masses --      1.0149
 Frc consts  --      0.4485
 IR Inten    --      1.4254

 - Thermochemistry -
 -------------------
 Temperature   298.150 Kelvin.  Pressure   1.00000 Atm.
 Atom     1 has atomic number  1 and mass   1.00783

 Molecular mass:    21.01405 amu.
 Principal axes and moments of inertia in atomic units:
                           1         2         3
     Eigenvalues --     0.00000  67.73850  67.73850
           X            1.00000  -0.00000   0.00000
           Y            0.00000   1.00000   0.00000
           Z            0.00000   0.00000   1.00000
 This molecule is a prolate symmetric top.
 Rotational symmetry number  1.
 Rotational temperature (Kelvin)      1.27865
 Rotational constant (GHZ):          26.642768
    2 imaginary frequencies ignored.
 Zero-point vibrational energy      10359.7 (Joules/Mol)
                                    2.47604 (Kcal/Mol)
 Vibrational temperatures:   1245.99  1245.99
          (Kelvin)

 Zero-point correction=                           0.003946 (Hartree/Particle)
 Thermal correction to Energy=                    0.006429
 Thermal correction to Enthalpy=                  0.007373
 Thermal correction to Gibbs Free Energy=        -0.016187
 Sum of electronic and zero-point Energies=           -100.802437
 Sum of electronic and thermal Energies=              -100.799954
 Sum of electronic and thermal Enthalpies=            -100.799010
 Sum of electronic and thermal Free Energies=         -100.822570

                     E (Thermal)             CV                S
                      KCal/Mol        Cal/Mol-Kelvin    Cal/Mol-Kelvin
 Total                    4.034              6.064             49.586
 Electronic               0.000              0.000              1.377
 Translational            0.889              2.981             35.068
 Rotational               0.592              1.987             12.821
 Vibrational              2.553              1.096              0.320

 Normal termination of Gaussian 16 at Fri Aug 22 17:16:09 2025.
