 Gaussian 16, Revision C.01,
 Gaussian 16:  ES64L-G16RevC.01  3-Jul-2019

 -----------------------------------------
 # sp b3lyp/6-311g** Force nosymm scf=(qc)
 -----------------------------------------

 -------------------
 Title Card Required
 -------------------
 Symbolic Z-matrix:
 Charge =  0 Multiplicity = 2

                          Input orientation:
 ---------------------------------------------------------------------
 Center     Atomic      Atomic             Coordinates (Angstroms)
 Number     Number       Type             X           Y           Z
 ---------------------------------------------------------------------
      1          1           0        0.000000    0.000000    0.000000
      2          1           0       -1.550000    0.000000    0.000000
      3          9           0        1.600000    0.000000    0.000000
 ---------------------------------------------------------------------

 SCF Done:  E(UB3LYP) =  -100.860713974     a.u. after   14 cycles

 Alpha  occ. eigenvalues --  -24.65629  -1.12157  -0.46686  -0.38675  -0.37700
 Alpha  occ. eigenvalues --   -0.37700
 Alpha virt. eigenvalues --   -0.08755   0.21341   0.29211   0.92436   0.93846
 Alpha virt. eigenvalues --    0.93846   1.03458   1.16154   1.16154   1.38669
 Alpha virt. eigenvalues --    1.38669   1.42615   1.84161   2.17479   2.40765

  Beta  occ. eigenvalues --  -24.63931  -1.07547  -0.40408  -0.36060  -0.36060
  Beta virt. eigenvalues --   -0.21948  -0.05770   0.24397   0.29975   0.93957
  Beta virt. eigenvalues --    0.93957   0.96610   1.06897   1.22065   1.22065
  Beta virt. eigenvalues --    1.39790   1.39790   1.48140   1.87291   2.19915

 Mulliken charges and spin densities:
               1          2
     1  H    0.214255  -0.280629
     2  H    0.072001   0.751708
     3  F   -0.286257   0.528921
 Sum of Mulliken charges =   0.00000   1.00000

 Dipole moment (field-independent basis, Debye):
    X=             -2.7775    Y=              0.0000    Z=              0.0000  Tot=              2.7775
 Quadrupole moment (field-independent basis, Debye-Ang):
   XX=             -8.2262   YY=             -7.3157   ZZ=             -7.3157
   XY=              0.0000   XZ=              0.0000   YZ=              0.0000

  Exact polarizability:      39.849       0.000       2.243      -0.000       0.000       2.243
 Approx polarizability:      58.214       0.000       2.177       0.000      -0.000       2.177

 ******    2 imaginary frequencies (negative Signs) ******

                      1                      2                      3
                      A                      A                      A
 Frequencies --  -2513.1980              -521.3613              1025.9117
 Red. masses --      1.0223                 1.0916                 1.0176
 Frc consts  --      3.8042                 0.1748                 0.6310
 IR Inten    --    422.2540                 0.6086                21.2982

                      4
                      A
 Frequencies --   1025.9117
 Red. masses --      1.0176
 Frc consts  --      0.6310
 IR Inten    --     21.2982

 - Thermochemistry -
 -------------------
 Temperature   298.150 Kelvin.  Pressure   1.00000 Atm.
 Atom     1 has atomic number  1 and mass   1.00783

 Molecular mass:    21.01405 amu.
 Principal axes and moments of inertia in atomic units:
                           1         2         3
     Eigenvalues --     0.00000  41.03018  41.03018
           X            1.00000  -0.00000   0.00000
           Y            0.00000   1.00000   0.00000
           Z            0.00000   0.00000   1.00000
 This molecule is a prolate symmetric top.
 Rotational symmetry number  1.
 Rotational temperature (Kelvin)      2.11098
 Rotational constant (GHZ):          43.985700
    2 imaginary frequencies ignored.
 Zero-point vibrational energy      12272.6 (Joules/Mol)
                                    2.93323 (Kcal/Mol)
 Vibrational temperatures:   1476.06  1476.06
          (Kelvin)

 Zero-point correction=                           0.004674 (Hartree/Particle)
 Thermal correction to Energy=                    0.007102
 Thermal correction to Enthalpy=                  0.008046
 Thermal correction to Gibbs Free Energy=        -0.014969
 Sum of electronic and zero-point Energies=           -100.856040
 Sum of electronic and thermal Energies=              -100.853612
 Sum of electronic and thermal Enthalpies=            -100.852668
 Sum of electronic and thermal Free Energies=         -100.875683

                     E (Thermal)             CV                S
                      KCal/Mol        Cal/Mol-Kelvin    Cal/Mol-Kelvin
 Total                    4.456              5.667             48.439
 Electronic               0.000              0.000              1.377
 Translational            0.889              2.981             35.068
 Rotational               0.592              1.987             11.825
 Vibrational              2.975              0.699              0.168

 Normal termination of Gaussian 16 at Fri Aug 22 16:30:45 2025.
