 Gaussian 16, Revision C.01,
 Gaussian 16:  ES64L-G16RevC.01  3-Jul-2019

 -----------------------------------------
 # sp b3lyp/6-311g** Force nosymm scf=(qc)
 -----------------------------------------

 -------------------
 Title Card Required
 -------------------
 Symbolic Z-matrix:
 Charge =  0 Multiplicity = 2

                          Input orientation:
 ---------------------------------------------------------------------
 Center     Atomic      Atomic             Coordinates (Angstroms)
 Number     Number       Type             X           Y           Z
 ---------------------------------------------------------------------
      1          1           0        0.000000    0.000000    0.000000
      2          1           0       -1.500000    0.000000    0.000000
      3          9           0        1.900000    0.000000    0.000000
 ---------------------------------------------------------------------

 SCF Done:  E(UB3LYP) =  -100.840107701     a.u. after   13 cycles

 Alpha  occ. eigenvalues --  -24.68883  -1.15290  -0.48559  -0.40371  -0.40371
 Alpha  occ. eigenvalues --   -0.38330
 Alpha virt. eigenvalues --   -0.10125   0.22112   0.30769   0.86116   0.93888
 Alpha virt. eigenvalues --    0.93888   1.03094   1.16142   1.16142   1.32941
 Alpha virt. eigenvalues --    1.39032   1.39032   1.84701   2.19951   2.43763

  Beta  occ. eigenvalues --  -24.66444  -1.08468  -0.38110  -0.37966  -0.37966
  Beta virt. eigenvalues --   -0.23205  -0.08183   0.24361   0.30720   0.89997
  Beta virt. eigenvalues --    0.94700   0.94700   1.07212   1.18763   1.18763
  Beta virt. eigenvalues --    1.37639   1.39891   1.39891   1.86718   2.20799

 Mulliken charges and spin densities:
               1          2
     1  H    0.109451  -0.350203
     2  H    0.066506   0.585617
     3  F   -0.175957   0.764585
 Sum of Mulliken charges =  -0.00000   1.00000

 Dipole moment (field-independent basis, Debye):
    X=             -2.1253    Y=             -0.0000    Z=              0.0000  Tot=              2.1253
 Quadrupole moment (field-independent basis, Debye-Ang):
   XX=             -7.8243   YY=             -7.4809   ZZ=             -7.4809
   XY=             -0.0000   XZ=              0.0000   YZ=              0.0000

  Exact polarizability:      49.604       0.000       2.143       0.000      -0.000       2.143
 Approx polarizability:      75.638      -0.000       2.089       0.000       0.000       2.089

 ******    2 imaginary frequencies (negative Signs) ******

                      1                      2                      3
                      A                      A                      A
 Frequencies --  -2230.0620              -507.6430              1068.1674
 Red. masses --      1.0137                 1.1015                 1.0153
 Frc consts  --      2.9703                 0.1672                 0.6826
 IR Inten    --    759.3482                 9.4223                 3.6593

                      4
                      A
 Frequencies --   1068.1674
 Red. masses --      1.0153
 Frc consts  --      0.6826
 IR Inten    --      3.6593

 - Thermochemistry -
 -------------------
 Temperature   298.150 Kelvin.  Pressure   1.00000 Atm.
 Atom     1 has atomic number  1 and mass   1.00783

 Molecular mass:    21.01405 amu.
 Principal axes and moments of inertia in atomic units:
                           1         2         3
     Eigenvalues --     0.00000  49.74843  49.74843
           X            1.00000  -0.00000   0.00000
           Y            0.00000   1.00000   0.00000
           Z            0.00000   0.00000   1.00000
 This molecule is a prolate symmetric top.
 Rotational symmetry number  1.
 Rotational temperature (Kelvin)      1.74104
 Rotational constant (GHZ):          36.277349
    2 imaginary frequencies ignored.
 Zero-point vibrational energy      12778.1 (Joules/Mol)
                                    3.05404 (Kcal/Mol)
 Vibrational temperatures:   1536.85  1536.85
          (Kelvin)

 Zero-point correction=                           0.004867 (Hartree/Particle)
 Thermal correction to Energy=                    0.007284
 Thermal correction to Enthalpy=                  0.008228
 Thermal correction to Gibbs Free Energy=        -0.014956
 Sum of electronic and zero-point Energies=           -100.835241
 Sum of electronic and thermal Energies=              -100.832824
 Sum of electronic and thermal Enthalpies=            -100.831880
 Sum of electronic and thermal Free Energies=         -100.855064

                     E (Thermal)             CV                S
                      KCal/Mol        Cal/Mol-Kelvin    Cal/Mol-Kelvin
 Total                    4.571              5.585             48.795
 Electronic               0.000              0.000              1.377
 Translational            0.889              2.981             35.068
 Rotational               0.592              1.987             12.208
 Vibrational              3.090              0.617              0.142

 Normal termination of Gaussian 16 at Fri Aug 22 16:49:34 2025.
