 Gaussian 16, Revision C.01,
 Gaussian 16:  ES64L-G16RevC.01  3-Jul-2019

 -----------------------------------------
 # sp b3lyp/6-311g** Force nosymm scf=(qc)
 -----------------------------------------

 -------------------
 Title Card Required
 -------------------
 Symbolic Z-matrix:
 Charge =  0 Multiplicity = 2

                          Input orientation:
 ---------------------------------------------------------------------
 Center     Atomic      Atomic             Coordinates (Angstroms)
 Number     Number       Type             X           Y           Z
 ---------------------------------------------------------------------
      1          1           0        0.000000    0.000000    0.000000
      2          1           0       -2.950000    0.000000    0.000000
      3          9           0        1.200000    0.000000    0.000000
 ---------------------------------------------------------------------

 SCF Done:  E(UB3LYP) =  -100.925781700     a.u. after    6 cycles

 Alpha  occ. eigenvalues --  -24.64285  -1.12221  -0.47714  -0.37472  -0.37472
 Alpha  occ. eigenvalues --   -0.34489
 Alpha virt. eigenvalues --   -0.05475   0.23472   0.28910   0.93231   0.93231
 Alpha virt. eigenvalues --    1.00841   1.22813   1.23042   1.23042   1.27907
 Alpha virt. eigenvalues --    1.34690   1.34690   1.73399   2.14075   2.28980

  Beta  occ. eigenvalues --  -24.64270  -1.12182  -0.47661  -0.37459  -0.37459
  Beta virt. eigenvalues --   -0.09518  -0.03487   0.27636   0.37612   0.93230
  Beta virt. eigenvalues --    0.93230   1.00877   1.27084   1.34658   1.34658
  Beta virt. eigenvalues --    1.45511   1.45619   1.45619   1.73585   2.28940

 Mulliken charges and spin densities:
               1          2
     1  H    0.350636   0.000088
     2  H    0.004191   0.995041
     3  F   -0.354828   0.004871
 Sum of Mulliken charges =   0.00000   1.00000

 Dipole moment (field-independent basis, Debye):
    X=             -2.3394    Y=             -0.0000    Z=             -0.0000  Tot=              2.3394
 Quadrupole moment (field-independent basis, Debye-Ang):
   XX=             -8.7236   YY=             -7.1275   ZZ=             -7.1275
   XY=             -0.0000   XZ=             -0.0000   YZ=              0.0000

  Exact polarizability:      10.883      -0.000       2.332      -0.000      -0.000       2.332
 Approx polarizability:      14.677      -0.000       2.289       0.000      -0.000       2.289

 ******    1 imaginary frequencies (negative Signs) ******

                      1                      2                      3
                      A                      A                      A
 Frequencies --   -109.2009               987.0781              1193.6764
 Red. masses --      1.0510                 1.0606                 1.0314
 Frc consts  --      0.0074                 0.6089                 0.8659
 IR Inten    --      0.9974                85.0681               140.3284

                      4
                      A
 Frequencies --   1193.6764
 Red. masses --      1.0314
 Frc consts  --      0.8659
 IR Inten    --    140.3284

 - Thermochemistry -
 -------------------
 Temperature   298.150 Kelvin.  Pressure   1.00000 Atm.
 Atom     1 has atomic number  1 and mass   1.00783

 Molecular mass:    21.01405 amu.
 Principal axes and moments of inertia in atomic units:
                           1         2         3
     Eigenvalues --     0.00000  62.22606  62.22606
           X            1.00000  -0.00000   0.00000
           Y            0.00000   1.00000   0.00000
           Z            0.00000   0.00000   1.00000
 This molecule is a prolate symmetric top.
 Rotational symmetry number  1.
 Rotational temperature (Kelvin)      1.39192
 Rotational constant (GHZ):          29.002983
    1 imaginary frequencies ignored.
 Zero-point vibrational energy      20183.6 (Joules/Mol)
                                    4.82399 (Kcal/Mol)
 Vibrational temperatures:   1420.19  1717.43  1717.43
          (Kelvin)

 Zero-point correction=                           0.007688 (Hartree/Particle)
 Thermal correction to Energy=                    0.010121
 Thermal correction to Enthalpy=                  0.011065
 Thermal correction to Gibbs Free Energy=        -0.012350
 Sum of electronic and zero-point Energies=           -100.918094
 Sum of electronic and thermal Energies=              -100.915661
 Sum of electronic and thermal Enthalpies=            -100.914716
 Sum of electronic and thermal Free Energies=         -100.938132

                     E (Thermal)             CV                S
                      KCal/Mol        Cal/Mol-Kelvin    Cal/Mol-Kelvin
 Total                    6.351              5.778             49.281
 Electronic               0.000              0.000              1.377
 Translational            0.889              2.981             35.068
 Rotational               0.592              1.987             12.652
 Vibrational              4.870              0.810              0.183

 Normal termination of Gaussian 16 at Fri Aug 22 16:10:47 2025.
