 Gaussian 16, Revision C.01,
 Gaussian 16:  ES64L-G16RevC.01  3-Jul-2019

 -----------------------------------------
 # sp b3lyp/6-311g** Force nosymm scf=(qc)
 -----------------------------------------

 -------------------
 Title Card Required
 -------------------
 Symbolic Z-matrix:
 Charge =  0 Multiplicity = 2

                          Input orientation:
 ---------------------------------------------------------------------
 Center     Atomic      Atomic             Coordinates (Angstroms)
 Number     Number       Type             X           Y           Z
 ---------------------------------------------------------------------
      1          1           0        0.000000    0.000000    0.000000
      2          1           0       -2.250000    0.000000    0.000000
      3          9           0        1.300000    0.000000    0.000000
 ---------------------------------------------------------------------

 SCF Done:  E(UB3LYP) =  -100.902976354     a.u. after    7 cycles

 Alpha  occ. eigenvalues --  -24.63927  -1.10835  -0.46065  -0.36709  -0.36709
 Alpha  occ. eigenvalues --   -0.36098
 Alpha virt. eigenvalues --   -0.07422   0.24118   0.27380   0.93373   0.93373
 Alpha virt. eigenvalues --    1.02259   1.15757   1.21349   1.21349   1.33200
 Alpha virt. eigenvalues --    1.34333   1.34333   1.71767   2.11648   2.26852

  Beta  occ. eigenvalues --  -24.63798  -1.10503  -0.45499  -0.36589  -0.36589
  Beta virt. eigenvalues --   -0.14045  -0.03859   0.27177   0.35081   0.93356
  Beta virt. eigenvalues --    0.93356   1.02576   1.21144   1.33918   1.33918
  Beta virt. eigenvalues --    1.41346   1.41346   1.46751   1.71955   2.23968

 Mulliken charges and spin densities:
               1          2
     1  H    0.342737  -0.012994
     2  H    0.020927   0.973237
     3  F   -0.363664   0.039757
 Sum of Mulliken charges =  -0.00000   1.00000

 Dipole moment (field-independent basis, Debye):
    X=             -2.6468    Y=             -0.0000    Z=              0.0000  Tot=              2.6468
 Quadrupole moment (field-independent basis, Debye-Ang):
   XX=             -8.6521   YY=             -7.1853   ZZ=             -7.1853
   XY=             -0.0000   XZ=              0.0000   YZ=             -0.0000

  Exact polarizability:      16.988       0.000       2.313       0.000       0.000       2.313
 Approx polarizability:      22.837       0.000       2.263      -0.000       0.000       2.263

 ******    2 imaginary frequencies (negative Signs) ******

                      1                      2                      3
                      A                      A                      A
 Frequencies --   -864.2933              -168.7440              1128.2866
 Red. masses --      1.0337                 1.0788                 1.0257
 Frc consts  --      0.4550                 0.0181                 0.7694
 IR Inten    --    176.3014                 0.5460               109.8557

                      4
                      A
 Frequencies --   1128.2866
 Red. masses --      1.0257
 Frc consts  --      0.7694
 IR Inten    --    109.8557

 - Thermochemistry -
 -------------------
 Temperature   298.150 Kelvin.  Pressure   1.00000 Atm.
 Atom     1 has atomic number  1 and mass   1.00783

 Molecular mass:    21.01405 amu.
 Principal axes and moments of inertia in atomic units:
                           1         2         3
     Eigenvalues --     0.00000  47.37868  47.37868
           X            1.00000  -0.00000   0.00000
           Y            0.00000   1.00000   0.00000
           Z            0.00000   0.00000   1.00000
 This molecule is a prolate symmetric top.
 Rotational symmetry number  1.
 Rotational temperature (Kelvin)      1.82812
 Rotational constant (GHZ):          38.091839
    2 imaginary frequencies ignored.
 Zero-point vibrational energy      13497.3 (Joules/Mol)
                                    3.22593 (Kcal/Mol)
 Vibrational temperatures:   1623.35  1623.35
          (Kelvin)

 Zero-point correction=                           0.005141 (Hartree/Particle)
 Thermal correction to Energy=                    0.007546
 Thermal correction to Enthalpy=                  0.008490
 Thermal correction to Gibbs Free Energy=        -0.014633
 Sum of electronic and zero-point Energies=           -100.897836
 Sum of electronic and thermal Energies=              -100.895430
 Sum of electronic and thermal Enthalpies=            -100.894486
 Sum of electronic and thermal Free Energies=         -100.917610

                     E (Thermal)             CV                S
                      KCal/Mol        Cal/Mol-Kelvin    Cal/Mol-Kelvin
 Total                    4.735              5.481             48.667
 Electronic               0.000              0.000              1.377
 Translational            0.889              2.981             35.068
 Rotational               0.592              1.987             12.111
 Vibrational              3.254              0.513              0.111

 Normal termination of Gaussian 16 at Fri Aug 22 16:15:14 2025.
