 Gaussian 16, Revision C.01,
 Gaussian 16:  ES64L-G16RevC.01  3-Jul-2019

 -----------------------------------------
 # sp b3lyp/6-311g** Force nosymm scf=(qc)
 -----------------------------------------

 -------------------
 Title Card Required
 -------------------
 Symbolic Z-matrix:
 Charge =  0 Multiplicity = 2

                          Input orientation:
 ---------------------------------------------------------------------
 Center     Atomic      Atomic             Coordinates (Angstroms)
 Number     Number       Type             X           Y           Z
 ---------------------------------------------------------------------
      1          1           0        0.000000    0.000000    0.000000
      2          1           0       -3.700000    0.000000    0.000000
      3          9           0        3.200000    0.000000    0.000000
 ---------------------------------------------------------------------

 SCF Done:  E(UB3LYP) =  -100.759859857     a.u. after   21 cycles

 Alpha  occ. eigenvalues --  -24.74714  -1.20728  -0.53835  -0.45202  -0.45202
 Alpha  occ. eigenvalues --   -0.32411
 Alpha virt. eigenvalues --   -0.07321   0.24033   0.36561   0.88647   0.91895
 Alpha virt. eigenvalues --    0.91895   1.02866   1.25089   1.25089   1.25161
 Alpha virt. eigenvalues --    1.44966   1.44966   1.45249   2.14670   2.41233

  Beta  occ. eigenvalues --  -24.71644  -1.11917  -0.42127  -0.42127  -0.33287
  Beta virt. eigenvalues --   -0.25125  -0.06221   0.23829   0.38076   0.93370
  Beta virt. eigenvalues --    0.93370   0.97553   1.06728   1.24079   1.24079
  Beta virt. eigenvalues --    1.24200   1.46231   1.46434   1.46434   2.14934

 Mulliken charges and spin densities:
               1          2
     1  H    0.024239  -0.971975
     2  H    0.000191   0.998727
     3  F   -0.024430   0.973248
 Sum of Mulliken charges =   0.00000   1.00000

 Dipole moment (field-independent basis, Debye):
    X=             -0.4051    Y=              0.0000    Z=             -0.0000  Tot=              0.4051
 Quadrupole moment (field-independent basis, Debye-Ang):
   XX=             -7.9300   YY=             -7.6139   ZZ=             -7.6139
   XY=             -0.0000   XZ=              0.0000   YZ=              0.0000

  Exact polarizability:      29.367      -0.000       2.030       0.000      -0.000       2.030
 Approx polarizability:      27.005      -0.000       1.930       0.000      -0.000       1.930

 ******    2 imaginary frequencies (negative Signs) ******

                      1                      2                      3
                      A                      A                      A
 Frequencies --   -301.5015               -94.1080               100.2040
 Red. masses --      1.0464                 1.0653                 1.0198
 Frc consts  --      0.0560                 0.0056                 0.0060
 IR Inten    --     26.2754                 0.4030                 0.5486

                      4
                      A
 Frequencies --    100.2040
 Red. masses --      1.0198
 Frc consts  --      0.0060
 IR Inten    --      0.5486

 - Thermochemistry -
 -------------------
 Temperature   298.150 Kelvin.  Pressure   1.00000 Atm.
 Atom     1 has atomic number  1 and mass   1.00783

 Molecular mass:    21.01405 amu.
 Principal axes and moments of inertia in atomic units:
                           1         2         3
     Eigenvalues --     0.00000 190.59501 190.59501
           X            1.00000  -0.00000   0.00000
           Y            0.00000   1.00000   0.00000
           Z            0.00000   0.00000   1.00000
 This molecule is a prolate symmetric top.
 Rotational symmetry number  1.
 Rotational temperature (Kelvin)      0.45444
 Rotational constant (GHZ):           9.468984
    2 imaginary frequencies ignored.
 Zero-point vibrational energy       1198.7 (Joules/Mol)
                                    0.28650 (Kcal/Mol)
 Warning -- explicit consideration of   2 degrees of freedom as
           vibrations may cause significant error
 Vibrational temperatures:    144.17   144.17
          (Kelvin)

 Zero-point correction=                           0.000457 (Hartree/Particle)
 Thermal correction to Energy=                    0.004285
 Thermal correction to Enthalpy=                  0.005230
 Thermal correction to Gibbs Free Energy=        -0.022434
 Sum of electronic and zero-point Energies=           -100.759403
 Sum of electronic and thermal Energies=              -100.755574
 Sum of electronic and thermal Enthalpies=            -100.754630
 Sum of electronic and thermal Free Energies=         -100.782294

                     E (Thermal)             CV                S
                      KCal/Mol        Cal/Mol-Kelvin    Cal/Mol-Kelvin
 Total                    2.689              8.866             58.223
 Electronic               0.000              0.000              1.377
 Translational            0.889              2.981             35.068
 Rotational               0.592              1.987             14.877
 Vibrational              1.208              3.898              6.901
 Vibration     1          0.604              1.949              3.450
 Vibration     2          0.604              1.949              3.450

 Normal termination of Gaussian 16 at Fri Aug 22 20:25:07 2025.
