 Gaussian 16, Revision C.01,
 Gaussian 16:  ES64L-G16RevC.01  3-Jul-2019

 -----------------------------------------
 # sp b3lyp/6-311g** Force nosymm scf=(qc)
 -----------------------------------------

 -------------------
 Title Card Required
 -------------------
 Symbolic Z-matrix:
 Charge =  0 Multiplicity = 2

                          Input orientation:
 ---------------------------------------------------------------------
 Center     Atomic      Atomic             Coordinates (Angstroms)
 Number     Number       Type             X           Y           Z
 ---------------------------------------------------------------------
      1          1           0        0.000000    0.000000    0.000000
      2          1           0       -3.200000    0.000000    0.000000
      3          9           0        2.400000    0.000000    0.000000
 ---------------------------------------------------------------------

 SCF Done:  E(UB3LYP) =  -100.770260775     a.u. after   17 cycles

 Alpha  occ. eigenvalues --  -24.71130  -1.17379  -0.50222  -0.42200  -0.42200
 Alpha  occ. eigenvalues --   -0.33170
 Alpha virt. eigenvalues --   -0.11088   0.23614   0.34549   0.89371   0.93924
 Alpha virt. eigenvalues --    0.93924   1.06430   1.24356   1.24356   1.24841
 Alpha virt. eigenvalues --    1.39554   1.39554   1.46065   2.14746   2.34636

  Beta  occ. eigenvalues --  -24.68348  -1.09477  -0.39430  -0.39430  -0.35787
  Beta virt. eigenvalues --   -0.22938  -0.07417   0.24197   0.37321   0.94782
  Beta virt. eigenvalues --    0.95230   0.95230   1.08588   1.21841   1.21841
  Beta virt. eigenvalues --    1.32971   1.45050   1.45188   1.45188   2.12951

 Mulliken charges and spin densities:
               1          2
     1  H    0.103697  -0.873951
     2  H    0.002166   0.995490
     3  F   -0.105863   0.878462
 Sum of Mulliken charges =  -0.00000   1.00000

 Dipole moment (field-independent basis, Debye):
    X=             -1.3204    Y=             -0.0000    Z=             -0.0000  Tot=              1.3204
 Quadrupole moment (field-independent basis, Debye-Ang):
   XX=             -9.4017   YY=             -7.5646   ZZ=             -7.5646
   XY=             -0.0000   XZ=             -0.0000   YZ=              0.0000

  Exact polarizability:      31.750      -0.000       2.027      -0.000       0.000       2.027
 Approx polarizability:      40.178      -0.000       1.921      -0.000       0.000       1.921

 ******    2 imaginary frequencies (negative Signs) ******

                      1                      2                      3
                      A                      A                      A
 Frequencies --   -700.1877              -171.2512               279.9360
 Red. masses --      1.0515                 1.0601                 1.0218
 Frc consts  --      0.3037                 0.0183                 0.0472
 IR Inten    --     87.2390                 1.0923                10.0240

                      4
                      A
 Frequencies --    279.9360
 Red. masses --      1.0218
 Frc consts  --      0.0472
 IR Inten    --     10.0240

 - Thermochemistry -
 -------------------
 Temperature   298.150 Kelvin.  Pressure   1.00000 Atm.
 Atom     1 has atomic number  1 and mass   1.00783

 Molecular mass:    21.01405 amu.
 Principal axes and moments of inertia in atomic units:
                           1         2         3
     Eigenvalues --     0.00000 122.54835 122.54835
           X            1.00000  -0.00000   0.00000
           Y            0.00000   1.00000   0.00000
           Z            0.00000   0.00000   1.00000
 This molecule is a prolate symmetric top.
 Rotational symmetry number  1.
 Rotational temperature (Kelvin)      0.70677
 Rotational constant (GHZ):          14.726768
    2 imaginary frequencies ignored.
 Zero-point vibrational energy       3348.8 (Joules/Mol)
                                    0.80038 (Kcal/Mol)
 Warning -- explicit consideration of   2 degrees of freedom as
           vibrations may cause significant error
 Vibrational temperatures:    402.77   402.77
          (Kelvin)

 Zero-point correction=                           0.001275 (Hartree/Particle)
 Thermal correction to Energy=                    0.004528
 Thermal correction to Enthalpy=                  0.005472
 Thermal correction to Gibbs Free Energy=        -0.019954
 Sum of electronic and zero-point Energies=           -100.768985
 Sum of electronic and thermal Energies=              -100.765733
 Sum of electronic and thermal Enthalpies=            -100.764789
 Sum of electronic and thermal Free Energies=         -100.790215

                     E (Thermal)             CV                S
                      KCal/Mol        Cal/Mol-Kelvin    Cal/Mol-Kelvin
 Total                    2.841              8.389             53.513
 Electronic               0.000              0.000              1.377
 Translational            0.889              2.981             35.068
 Rotational               0.592              1.987             13.999
 Vibrational              1.360              3.421              3.068
 Vibration     1          0.680              1.711              1.534
 Vibration     2          0.680              1.711              1.534

 Normal termination of Gaussian 16 at Fri Aug 22 17:33:16 2025.
