 Gaussian 16, Revision C.01,
 Gaussian 16:  ES64L-G16RevC.01  3-Jul-2019

 -----------------------------------------
 # sp b3lyp/6-311g** Force nosymm scf=(qc)
 -----------------------------------------

 -------------------
 Title Card Required
 -------------------
 Symbolic Z-matrix:
 Charge =  0 Multiplicity = 2

                          Input orientation:
 ---------------------------------------------------------------------
 Center     Atomic      Atomic             Coordinates (Angstroms)
 Number     Number       Type             X           Y           Z
 ---------------------------------------------------------------------
      1          1           0        0.000000    0.000000    0.000000
      2          1           0       -2.400000    0.000000    0.000000
      3          9           0        1.700000    0.000000    0.000000
 ---------------------------------------------------------------------

 SCF Done:  E(UB3LYP) =  -100.821060024     a.u. after   15 cycles

 Alpha  occ. eigenvalues --  -24.65477  -1.11552  -0.44332  -0.37360  -0.37360
 Alpha  occ. eigenvalues --   -0.35898
 Alpha virt. eigenvalues --   -0.14377   0.23483   0.28371   0.94774   0.94774
 Alpha virt. eigenvalues --    0.96869   1.06695   1.21729   1.21729   1.25412
 Alpha virt. eigenvalues --    1.33356   1.33356   1.73520   2.12432   2.24431

  Beta  occ. eigenvalues --  -24.63932  -1.07343  -0.39852  -0.35863  -0.35863
  Beta virt. eigenvalues --   -0.18765  -0.09783   0.24452   0.34291   0.94576
  Beta virt. eigenvalues --    0.94576   0.98183   1.08338   1.25855   1.25855
  Beta virt. eigenvalues --    1.40371   1.40371   1.42452   1.70259   2.13504

 Mulliken charges and spin densities:
               1          2
     1  H    0.266899  -0.450337
     2  H    0.025528   0.964096
     3  F   -0.292427   0.486241
 Sum of Mulliken charges =   0.00000   1.00000

 Dipole moment (field-independent basis, Debye):
    X=             -2.7164    Y=             -0.0000    Z=              0.0000  Tot=              2.7164
 Quadrupole moment (field-independent basis, Debye-Ang):
   XX=             -9.4056   YY=             -7.4284   ZZ=             -7.4284
   XY=             -0.0000   XZ=              0.0000   YZ=             -0.0000

  Exact polarizability:      32.808      -0.000       2.130       0.000      -0.000       2.130
 Approx polarizability:      44.064      -0.000       2.033       0.000       0.000       2.033

 ******    2 imaginary frequencies (negative Signs) ******

                      1                      2                      3
                      A                      A                      A
 Frequencies --  -1781.7488              -394.7489               769.7269
 Red. masses --      1.0488                 1.0629                 1.0226
 Frc consts  --      1.9616                 0.0976                 0.3570
 IR Inten    --     68.6602                11.7289                57.7693

                      4
                      A
 Frequencies --    769.7269
 Red. masses --      1.0226
 Frc consts  --      0.3570
 IR Inten    --     57.7693

 - Thermochemistry -
 -------------------
 Temperature   298.150 Kelvin.  Pressure   1.00000 Atm.
 Atom     1 has atomic number  1 and mass   1.00783

 Molecular mass:    21.01405 amu.
 Principal axes and moments of inertia in atomic units:
                           1         2         3
     Eigenvalues --     0.00000  65.09397  65.09397
           X            1.00000  -0.00000   0.00000
           Y            0.00000   1.00000   0.00000
           Z            0.00000   0.00000   1.00000
 This molecule is a prolate symmetric top.
 Rotational symmetry number  1.
 Rotational temperature (Kelvin)      1.33060
 Rotational constant (GHZ):          27.725167
    2 imaginary frequencies ignored.
 Zero-point vibrational energy       9208.0 (Joules/Mol)
                                    2.20076 (Kcal/Mol)
 Vibrational temperatures:   1107.47  1107.47
          (Kelvin)

 Zero-point correction=                           0.003507 (Hartree/Particle)
 Thermal correction to Energy=                    0.006043
 Thermal correction to Enthalpy=                  0.006987
 Thermal correction to Gibbs Free Energy=        -0.016605
 Sum of electronic and zero-point Energies=           -100.817553
 Sum of electronic and thermal Energies=              -100.815017
 Sum of electronic and thermal Enthalpies=            -100.814073
 Sum of electronic and thermal Free Energies=         -100.837665

                     E (Thermal)             CV                S
                      KCal/Mol        Cal/Mol-Kelvin    Cal/Mol-Kelvin
 Total                    3.792              6.372             49.654
 Electronic               0.000              0.000              1.377
 Translational            0.889              2.981             35.068
 Rotational               0.592              1.987             12.742
 Vibrational              2.311              1.404              0.467

 Normal termination of Gaussian 16 at Fri Aug 22 16:37:48 2025.
