 Gaussian 16, Revision C.01,
 Gaussian 16:  ES64L-G16RevC.01  3-Jul-2019

 -----------------------------------------
 # sp b3lyp/6-311g** Force nosymm scf=(qc)
 -----------------------------------------

 -------------------
 Title Card Required
 -------------------
 Symbolic Z-matrix:
 Charge =  0 Multiplicity = 2

                          Input orientation:
 ---------------------------------------------------------------------
 Center     Atomic      Atomic             Coordinates (Angstroms)
 Number     Number       Type             X           Y           Z
 ---------------------------------------------------------------------
      1          1           0        0.000000    0.000000    0.000000
      2          1           0       -1.800000    0.000000    0.000000
      3          9           0        2.900000    0.000000    0.000000
 ---------------------------------------------------------------------

 SCF Done:  E(UB3LYP) =  -100.788301389     a.u. after   25 cycles

 Alpha  occ. eigenvalues --  -24.74212  -1.20259  -0.53335  -0.44783  -0.44783
 Alpha  occ. eigenvalues --   -0.34194
 Alpha virt. eigenvalues --   -0.11881   0.25149   0.30869   0.89933   0.92183
 Alpha virt. eigenvalues --    0.92183   1.04352   1.09824   1.23383   1.23383
 Alpha virt. eigenvalues --    1.36255   1.36255   1.60178   2.13714   2.39572

  Beta  occ. eigenvalues --  -24.71187  -1.11590  -0.41755  -0.41755  -0.34117
  Beta virt. eigenvalues --   -0.24989  -0.11443   0.25924   0.31025   0.93641
  Beta virt. eigenvalues --    0.93641   0.98401   1.07496   1.11005   1.23472
  Beta virt. eigenvalues --    1.23472   1.36809   1.36809   1.60707   2.14799

 Mulliken charges and spin densities:
               1          2
     1  H    0.014635  -0.695016
     2  H    0.021346   0.736629
     3  F   -0.035980   0.958387
 Sum of Mulliken charges =   0.00000   1.00000

 Dipole moment (field-independent basis, Debye):
    X=             -0.7171    Y=             -0.0000    Z=             -0.0000  Tot=              0.7171
 Quadrupole moment (field-independent basis, Debye-Ang):
   XX=             -7.0959   YY=             -7.7286   ZZ=             -7.7286
   XY=             -0.0000   XZ=             -0.0000   YZ=             -0.0000

  Exact polarizability:      62.081      -0.000       2.009      -0.000      -0.000       2.009
 Approx polarizability:      65.827      -0.000       1.953      -0.000       0.000       1.953

 ******    2 imaginary frequencies (negative Signs) ******

                      1                      2                      3
                      A                      A                      A
 Frequencies --  -1739.9364              -254.6070               760.2885
 Red. masses --      1.0080                 1.1084                 1.0132
 Frc consts  --      1.7979                 0.0423                 0.3451
 IR Inten    --     93.7348                32.8769                 0.0291

                      4
                      A
 Frequencies --    760.2885
 Red. masses --      1.0132
 Frc consts  --      0.3451
 IR Inten    --      0.0291

 - Thermochemistry -
 -------------------
 Temperature   298.150 Kelvin.  Pressure   1.00000 Atm.
 Atom     1 has atomic number  1 and mass   1.00783

 Molecular mass:    21.01405 amu.
 Principal axes and moments of inertia in atomic units:
                           1         2         3
     Eigenvalues --     0.00000  99.79999  99.79999
           X            1.00000  -0.00000   0.00000
           Y            0.00000   1.00000   0.00000
           Z            0.00000   0.00000   1.00000
 This molecule is a prolate symmetric top.
 Rotational symmetry number  1.
 Rotational temperature (Kelvin)      0.86788
 Rotational constant (GHZ):          18.083582
    2 imaginary frequencies ignored.
 Zero-point vibrational energy       9095.1 (Joules/Mol)
                                    2.17377 (Kcal/Mol)
 Vibrational temperatures:   1093.89  1093.89
          (Kelvin)

 Zero-point correction=                           0.003464 (Hartree/Particle)
 Thermal correction to Energy=                    0.006006
 Thermal correction to Enthalpy=                  0.006950
 Thermal correction to Gibbs Free Energy=        -0.017054
 Sum of electronic and zero-point Energies=           -100.784837
 Sum of electronic and thermal Energies=              -100.782295
 Sum of electronic and thermal Enthalpies=            -100.781351
 Sum of electronic and thermal Free Energies=         -100.805355

                     E (Thermal)             CV                S
                      KCal/Mol        Cal/Mol-Kelvin    Cal/Mol-Kelvin
 Total                    3.769              6.405             50.521
 Electronic               0.000              0.000              1.377
 Translational            0.889              2.981             35.068
 Rotational               0.592              1.987             13.591
 Vibrational              2.288              1.437              0.484

 Normal termination of Gaussian 16 at Fri Aug 22 19:02:52 2025.
