 Gaussian 16, Revision C.01,
 Gaussian 16:  ES64L-G16RevC.01  3-Jul-2019

 -----------------------------------------
 # sp b3lyp/6-311g** Force nosymm scf=(qc)
 -----------------------------------------

 -------------------
 Title Card Required
 -------------------
 Symbolic Z-matrix:
 Charge =  0 Multiplicity = 2

                          Input orientation:
 ---------------------------------------------------------------------
 Center     Atomic      Atomic             Coordinates (Angstroms)
 Number     Number       Type             X           Y           Z
 ---------------------------------------------------------------------
      1          1           0        0.000000    0.000000    0.000000
      2          1           0       -2.700000    0.000000    0.000000
      3          9           0        2.250000    0.000000    0.000000
 ---------------------------------------------------------------------

 SCF Done:  E(UB3LYP) =  -100.776665976     a.u. after   14 cycles

 Alpha  occ. eigenvalues --  -24.70101  -1.16391  -0.49167  -0.41331  -0.41331
 Alpha  occ. eigenvalues --   -0.33925
 Alpha virt. eigenvalues --   -0.12545   0.24144   0.32795   0.89031   0.94395
 Alpha virt. eigenvalues --    0.94395   1.06503   1.23667   1.23667   1.25643
 Alpha virt. eigenvalues --    1.37319   1.37319   1.49497   2.14698   2.31768

  Beta  occ. eigenvalues --  -24.67431  -1.08844  -0.38681  -0.38681  -0.36441
  Beta virt. eigenvalues --   -0.22251  -0.09000   0.25028   0.35538   0.93217
  Beta virt. eigenvalues --    0.95556   0.95556   1.08767   1.21715   1.21715
  Beta virt. eigenvalues --    1.39050   1.42821   1.42821   1.44274   2.13336

 Mulliken charges and spin densities:
               1          2
     1  H    0.123944  -0.824212
     2  H    0.008924   0.982794
     3  F   -0.132867   0.841418
 Sum of Mulliken charges =   0.00000   1.00000

 Dipole moment (field-independent basis, Debye):
    X=             -1.6181    Y=             -0.0000    Z=              0.0000  Tot=              1.6181
 Quadrupole moment (field-independent basis, Debye-Ang):
   XX=             -9.3592   YY=             -7.5617   ZZ=             -7.5617
   XY=              0.0000   XZ=             -0.0000   YZ=             -0.0000

  Exact polarizability:      36.590       0.000       2.031      -0.000       0.000       2.031
 Approx polarizability:      43.990       0.000       1.925      -0.000      -0.000       1.925

 ******    2 imaginary frequencies (negative Signs) ******

                      1                      2                      3
                      A                      A                      A
 Frequencies --   -884.6029              -309.5669               364.3969
 Red. masses --      1.0414                 1.0705                 1.0203
 Frc consts  --      0.4801                 0.0604                 0.0798
 IR Inten    --     86.5275                 9.5241                13.3541

                      4
                      A
 Frequencies --    364.3969
 Red. masses --      1.0203
 Frc consts  --      0.0798
 IR Inten    --     13.3541

 - Thermochemistry -
 -------------------
 Temperature   298.150 Kelvin.  Pressure   1.00000 Atm.
 Atom     1 has atomic number  1 and mass   1.00783

 Molecular mass:    21.01405 amu.
 Principal axes and moments of inertia in atomic units:
                           1         2         3
     Eigenvalues --     0.00000  97.45675  97.45675
           X            1.00000  -0.00000   0.00000
           Y            0.00000   1.00000   0.00000
           Z            0.00000   0.00000   1.00000
 This molecule is a prolate symmetric top.
 Rotational symmetry number  1.
 Rotational temperature (Kelvin)      0.88874
 Rotational constant (GHZ):          18.518382
    2 imaginary frequencies ignored.
 Zero-point vibrational energy       4359.2 (Joules/Mol)
                                    1.04186 (Kcal/Mol)
 Warning -- explicit consideration of   2 degrees of freedom as
           vibrations may cause significant error
 Vibrational temperatures:    524.29   524.29
          (Kelvin)

 Zero-point correction=                           0.001660 (Hartree/Particle)
 Thermal correction to Energy=                    0.004712
 Thermal correction to Enthalpy=                  0.005656
 Thermal correction to Gibbs Free Energy=        -0.019144
 Sum of electronic and zero-point Energies=           -100.775006
 Sum of electronic and thermal Energies=              -100.771954
 Sum of electronic and thermal Enthalpies=            -100.771010
 Sum of electronic and thermal Free Energies=         -100.795810

                     E (Thermal)             CV                S
                      KCal/Mol        Cal/Mol-Kelvin    Cal/Mol-Kelvin
 Total                    2.957              8.059             52.196
 Electronic               0.000              0.000              1.377
 Translational            0.889              2.981             35.068
 Rotational               0.592              1.987             13.544
 Vibrational              1.476              3.091              2.207
 Vibration     1          0.738              1.546              1.103
 Vibration     2          0.738              1.546              1.103

 Normal termination of Gaussian 16 at Fri Aug 22 17:17:03 2025.
