 Gaussian 16, Revision C.01,
 Gaussian 16:  ES64L-G16RevC.01  3-Jul-2019

 -----------------------------------------
 # sp b3lyp/6-311g** Force nosymm scf=(qc)
 -----------------------------------------

 -------------------
 Title Card Required
 -------------------
 Symbolic Z-matrix:
 Charge =  0 Multiplicity = 2

                          Input orientation:
 ---------------------------------------------------------------------
 Center     Atomic      Atomic             Coordinates (Angstroms)
 Number     Number       Type             X           Y           Z
 ---------------------------------------------------------------------
      1          1           0        0.000000    0.000000    0.000000
      2          1           0       -3.500000    0.000000    0.000000
      3          9           0        1.400000    0.000000    0.000000
 ---------------------------------------------------------------------

 SCF Done:  E(UB3LYP) =  -100.877334853     a.u. after    7 cycles

 Alpha  occ. eigenvalues --  -24.64364  -1.10276  -0.44557  -0.36704  -0.36704
 Alpha  occ. eigenvalues --   -0.33951
 Alpha virt. eigenvalues --   -0.11868   0.20795   0.27953   0.93119   0.93119
 Alpha virt. eigenvalues --    1.03163   1.15313   1.23563   1.23563   1.23600
 Alpha virt. eigenvalues --    1.32623   1.32623   1.71565   2.13505   2.21287

  Beta  occ. eigenvalues --  -24.64353  -1.10245  -0.44526  -0.36693  -0.36693
  Beta virt. eigenvalues --   -0.12262  -0.06360   0.23998   0.38290   0.93115
  Beta virt. eigenvalues --    0.93115   1.03195   1.15355   1.32579   1.32579
  Beta virt. eigenvalues --    1.45983   1.46449   1.46449   1.71585   2.20800

 Mulliken charges and spin densities:
               1          2
     1  H    0.355934  -0.002002
     2  H    0.001648   0.998235
     3  F   -0.357582   0.003767
 Sum of Mulliken charges =   0.00000   1.00000

 Dipole moment (field-independent basis, Debye):
    X=             -2.5187    Y=              0.0000    Z=              0.0000  Tot=              2.5187
 Quadrupole moment (field-independent basis, Debye-Ang):
   XX=             -9.5357   YY=             -7.2641   ZZ=             -7.2641
   XY=              0.0000   XZ=              0.0000   YZ=             -0.0000

  Exact polarizability:      13.347       0.000       2.233      -0.000      -0.000       2.233
 Approx polarizability:      22.580       0.000       2.167      -0.000       0.000       2.167

 ******    2 imaginary frequencies (negative Signs) ******

                      1                      2                      3
                      A                      A                      A
 Frequencies --  -1017.1524               -73.5223              1091.9761
 Red. masses --      1.0574                 1.0541                 1.0317
 Frc consts  --      0.6446                 0.0034                 0.7248
 IR Inten    --     51.5733                 0.1343               126.3226

                      4
                      A
 Frequencies --   1091.9761
 Red. masses --      1.0317
 Frc consts  --      0.7248
 IR Inten    --    126.3226

 - Thermochemistry -
 -------------------
 Temperature   298.150 Kelvin.  Pressure   1.00000 Atm.
 Atom     1 has atomic number  1 and mass   1.00783

 Molecular mass:    21.01405 amu.
 Principal axes and moments of inertia in atomic units:
                           1         2         3
     Eigenvalues --     0.00000  86.61548  86.61548
           X            1.00000  -0.00000   0.00000
           Y            0.00000   1.00000   0.00000
           Z            0.00000   0.00000   1.00000
 This molecule is a prolate symmetric top.
 Rotational symmetry number  1.
 Rotational temperature (Kelvin)      0.99998
 Rotational constant (GHZ):          20.836242
    2 imaginary frequencies ignored.
 Zero-point vibrational energy      13062.9 (Joules/Mol)
                                    3.12212 (Kcal/Mol)
 Vibrational temperatures:   1571.11  1571.11
          (Kelvin)

 Zero-point correction=                           0.004975 (Hartree/Particle)
 Thermal correction to Energy=                    0.007387
 Thermal correction to Enthalpy=                  0.008332
 Thermal correction to Gibbs Free Energy=        -0.015370
 Sum of electronic and zero-point Energies=           -100.872359
 Sum of electronic and thermal Energies=              -100.869948
 Sum of electronic and thermal Enthalpies=            -100.869003
 Sum of electronic and thermal Free Energies=         -100.892705

                     E (Thermal)             CV                S
                      KCal/Mol        Cal/Mol-Kelvin    Cal/Mol-Kelvin
 Total                    4.636              5.542             49.884
 Electronic               0.000              0.000              1.377
 Translational            0.889              2.981             35.068
 Rotational               0.592              1.987             13.310
 Vibrational              3.154              0.574              0.129

 Normal termination of Gaussian 16 at Fri Aug 22 16:21:12 2025.
