 Gaussian 16, Revision C.01,
 Gaussian 16:  ES64L-G16RevC.01  3-Jul-2019

 -----------------------------------------
 # sp b3lyp/6-311g** Force nosymm scf=(qc)
 -----------------------------------------

 -------------------
 Title Card Required
 -------------------
 Symbolic Z-matrix:
 Charge =  0 Multiplicity = 2

                          Input orientation:
 ---------------------------------------------------------------------
 Center     Atomic      Atomic             Coordinates (Angstroms)
 Number     Number       Type             X           Y           Z
 ---------------------------------------------------------------------
      1          1           0        0.000000    0.000000    0.000000
      2          1           0       -2.350000    0.000000    0.000000
      3          9           0        3.550000    0.000000    0.000000
 ---------------------------------------------------------------------

 SCF Done:  E(UB3LYP) =  -100.764869934     a.u. after   33 cycles

 Alpha  occ. eigenvalues --  -24.75551  -1.21502  -0.54674  -0.45907  -0.45907
 Alpha  occ. eigenvalues --   -0.32757
 Alpha virt. eigenvalues --   -0.09981   0.25827   0.33874   0.87447   0.91373
 Alpha virt. eigenvalues --    0.91373   1.01643   1.24975   1.24975   1.25857
 Alpha virt. eigenvalues --    1.40366   1.40366   1.43495   2.15114   2.35872

  Beta  occ. eigenvalues --  -24.72429  -1.12528  -0.42777  -0.42777  -0.32976
  Beta virt. eigenvalues --   -0.25588  -0.09589   0.25653   0.34460   0.92865
  Beta virt. eigenvalues --    0.92865   0.96652   1.05702   1.24711   1.24711
  Beta virt. eigenvalues --    1.25565   1.40958   1.40958   1.44055   2.15617

 Mulliken charges and spin densities:
               1          2
     1  H    0.005951  -0.942835
     2  H    0.002906   0.952864
     3  F   -0.008857   0.989971
 Sum of Mulliken charges =   0.00000   1.00000

 Dipole moment (field-independent basis, Debye):
    X=             -0.1939    Y=             -0.0000    Z=             -0.0000  Tot=              0.1939
 Quadrupole moment (field-independent basis, Debye-Ang):
   XX=             -6.9366   YY=             -7.6805   ZZ=             -7.6805
   XY=             -0.0000   XZ=              0.0000   YZ=             -0.0000

  Exact polarizability:      34.731      -0.000       2.110       0.000       0.000       2.110
 Approx polarizability:      26.244      -0.000       1.929       0.000      -0.000       1.929

 ******    2 imaginary frequencies (negative Signs) ******

                      1                      2                      3
                      A                      A                      A
 Frequencies --   -826.4663              -132.8842               304.2542
 Red. masses --      1.0079                 1.1084                 1.0137
 Frc consts  --      0.4056                 0.0115                 0.0553
 IR Inten    --      5.1492                 5.4357                 0.0007

                      4
                      A
 Frequencies --    304.2547
 Red. masses --      1.0137
 Frc consts  --      0.0553
 IR Inten    --      0.0007

 - Thermochemistry -
 -------------------
 Temperature   298.150 Kelvin.  Pressure   1.00000 Atm.
 Atom     1 has atomic number  1 and mass   1.00783

 Molecular mass:    21.01405 amu.
 Principal axes and moments of inertia in atomic units:
                           1         2         3
     Eigenvalues --     0.00000 155.22376 155.22376
           X            1.00000  -0.00000   0.00000
           Y            0.00000   1.00000   0.00000
           Z            0.00000   0.00000   1.00000
 This molecule is a prolate symmetric top.
 Rotational symmetry number  1.
 Rotational temperature (Kelvin)      0.55799
 Rotational constant (GHZ):          11.626707
    2 imaginary frequencies ignored.
 Zero-point vibrational energy       3639.7 (Joules/Mol)
                                    0.86991 (Kcal/Mol)
 Warning -- explicit consideration of   2 degrees of freedom as
           vibrations may cause significant error
 Vibrational temperatures:    437.75   437.75
          (Kelvin)

 Zero-point correction=                           0.001386 (Hartree/Particle)
 Thermal correction to Energy=                    0.004576
 Thermal correction to Enthalpy=                  0.005521
 Thermal correction to Gibbs Free Energy=        -0.019994
 Sum of electronic and zero-point Energies=           -100.763484
 Sum of electronic and thermal Energies=              -100.760293
 Sum of electronic and thermal Enthalpies=            -100.759349
 Sum of electronic and thermal Free Energies=         -100.784864

                     E (Thermal)             CV                S
                      KCal/Mol        Cal/Mol-Kelvin    Cal/Mol-Kelvin
 Total                    2.872              8.299             53.701
 Electronic               0.000              0.000              1.377
 Translational            0.889              2.981             35.068
 Rotational               0.592              1.987             14.469
 Vibrational              1.391              3.331              2.787
 Vibration     1          0.695              1.666              1.393
 Vibration     2          0.695              1.666              1.393

 Normal termination of Gaussian 16 at Fri Aug 22 22:39:34 2025.
