 Gaussian 16, Revision C.01,
 Gaussian 16:  ES64L-G16RevC.01  3-Jul-2019

 -----------------------------------------
 # sp b3lyp/6-311g** Force nosymm scf=(qc)
 -----------------------------------------

 -------------------
 Title Card Required
 -------------------
 Symbolic Z-matrix:
 Charge =  0 Multiplicity = 2

                          Input orientation:
 ---------------------------------------------------------------------
 Center     Atomic      Atomic             Coordinates (Angstroms)
 Number     Number       Type             X           Y           Z
 ---------------------------------------------------------------------
      1          1           0        0.000000    0.000000    0.000000
      2          1           0       -3.700000    0.000000    0.000000
      3          9           0        1.300000    0.000000    0.000000
 ---------------------------------------------------------------------

 SCF Done:  E(UB3LYP) =  -100.901227471     a.u. after    7 cycles

 Alpha  occ. eigenvalues --  -24.64379  -1.11118  -0.46065  -0.37076  -0.37076
 Alpha  occ. eigenvalues --   -0.33728
 Alpha virt. eigenvalues --   -0.08954   0.21367   0.28278   0.92996   0.92996
 Alpha virt. eigenvalues --    1.02057   1.21391   1.23775   1.23783   1.23783
 Alpha virt. eigenvalues --    1.33786   1.33786   1.70443   2.13448   2.24724

  Beta  occ. eigenvalues --  -24.64375  -1.11108  -0.46054  -0.37072  -0.37072
  Beta virt. eigenvalues --   -0.09457  -0.05761   0.24966   0.38527   0.92995
  Beta virt. eigenvalues --    0.92995   1.02068   1.21429   1.33773   1.33773
  Beta virt. eigenvalues --    1.46689   1.47075   1.47075   1.70467   2.24076

 Mulliken charges and spin densities:
               1          2
     1  H    0.358312  -0.000370
     2  H    0.000897   0.999036
     3  F   -0.359209   0.001334
 Sum of Mulliken charges =   0.00000   1.00000

 Dipole moment (field-independent basis, Debye):
    X=             -2.4033    Y=             -0.0000    Z=             -0.0000  Tot=              2.4033
 Quadrupole moment (field-independent basis, Debye-Ang):
   XX=             -9.2304   YY=             -7.1994   ZZ=             -7.1994
   XY=             -0.0000   XZ=              0.0000   YZ=              0.0000

  Exact polarizability:      11.051       0.000       2.279      -0.000      -0.000       2.279
 Approx polarizability:      17.222      -0.000       2.222       0.000      -0.000       2.222

 ******    2 imaginary frequencies (negative Signs) ******

                      1                      2                      3
                      A                      A                      A
 Frequencies --   -605.0925               -50.6228              1163.6755
 Red. masses --      1.0571                 1.0544                 1.0338
 Frc consts  --      0.2280                 0.0016                 0.8248
 IR Inten    --     56.3004                 0.0256               137.2691

                      4
                      A
 Frequencies --   1163.6755
 Red. masses --      1.0338
 Frc consts  --      0.8248
 IR Inten    --    137.2691

 - Thermochemistry -
 -------------------
 Temperature   298.150 Kelvin.  Pressure   1.00000 Atm.
 Atom     1 has atomic number  1 and mass   1.00783

 Molecular mass:    21.01405 amu.
 Principal axes and moments of inertia in atomic units:
                           1         2         3
     Eigenvalues --     0.00000  89.20677  89.20677
           X            1.00000  -0.00000   0.00000
           Y            0.00000   1.00000   0.00000
           Z            0.00000   0.00000   1.00000
 This molecule is a prolate symmetric top.
 Rotational symmetry number  1.
 Rotational temperature (Kelvin)      0.97093
 Rotational constant (GHZ):          20.230989
    2 imaginary frequencies ignored.
 Zero-point vibrational energy      13920.7 (Joules/Mol)
                                    3.32712 (Kcal/Mol)
 Vibrational temperatures:   1674.27  1674.27
          (Kelvin)

 Zero-point correction=                           0.005302 (Hartree/Particle)
 Thermal correction to Energy=                    0.007701
 Thermal correction to Enthalpy=                  0.008645
 Thermal correction to Gibbs Free Energy=        -0.015068
 Sum of electronic and zero-point Energies=           -100.895925
 Sum of electronic and thermal Energies=              -100.893526
 Sum of electronic and thermal Enthalpies=            -100.892582
 Sum of electronic and thermal Free Energies=         -100.916296

                     E (Thermal)             CV                S
                      KCal/Mol        Cal/Mol-Kelvin    Cal/Mol-Kelvin
 Total                    4.833              5.428             49.910
 Electronic               0.000              0.000              1.377
 Translational            0.889              2.981             35.068
 Rotational               0.592              1.987             13.368
 Vibrational              3.351              0.460              0.096

 Normal termination of Gaussian 16 at Fri Aug 22 16:16:12 2025.
