 Gaussian 16, Revision C.01,
 Gaussian 16:  ES64L-G16RevC.01  3-Jul-2019

 -----------------------------------------
 # sp b3lyp/6-311g** Force nosymm scf=(qc)
 -----------------------------------------

 -------------------
 Title Card Required
 -------------------
 Symbolic Z-matrix:
 Charge =  0 Multiplicity = 2

                          Input orientation:
 ---------------------------------------------------------------------
 Center     Atomic      Atomic             Coordinates (Angstroms)
 Number     Number       Type             X           Y           Z
 ---------------------------------------------------------------------
      1          1           0        0.000000    0.000000    0.000000
      2          1           0       -2.550000    0.000000    0.000000
      3          9           0        0.800000    0.000000    0.000000
 ---------------------------------------------------------------------

 SCF Done:  E(UB3LYP) =  -100.950534402     a.u. after    6 cycles

 Alpha  occ. eigenvalues --  -24.63611  -1.22978  -0.56165  -0.40588  -0.40588
 Alpha  occ. eigenvalues --   -0.34569
 Alpha virt. eigenvalues --    0.06326   0.25417   0.45827   0.94263   0.94263
 Alpha virt. eigenvalues --    0.96893   1.18866   1.22980   1.22980   1.39880
 Alpha virt. eigenvalues --    1.39880   1.40035   2.02869   2.14136   2.53186

  Beta  occ. eigenvalues --  -24.63601  -1.22950  -0.56124  -0.40580  -0.40580
  Beta virt. eigenvalues --   -0.08579   0.07793   0.37722   0.46009   0.94264
  Beta virt. eigenvalues --    0.94264   0.96992   1.28853   1.39865   1.39865
  Beta virt. eigenvalues --    1.45770   1.45770   1.54051   2.02754   2.42180

 Mulliken charges and spin densities:
               1          2
     1  H    0.270699   0.003284
     2  H    0.004715   0.993110
     3  F   -0.275414   0.003605
 Sum of Mulliken charges =   0.00000   1.00000

 Dipole moment (field-independent basis, Debye):
    X=             -1.7953    Y=              0.0000    Z=             -0.0000  Tot=              1.7953
 Quadrupole moment (field-independent basis, Debye-Ang):
   XX=             -7.4204   YY=             -6.7629   ZZ=             -6.7629
   XY=              0.0000   XZ=             -0.0000   YZ=             -0.0000

  Exact polarizability:       6.224       0.000       2.469      -0.000       0.000       2.469
 Approx polarizability:       6.565      -0.000       2.453       0.000      -0.000       2.453

 ******    2 imaginary frequencies (negative Signs) ******

                      1                      2                      3
                      A                      A                      A
 Frequencies --  -1961.6760             -1961.6760                64.4194
 Red. masses --      1.0355                 1.0355                 1.0532
 Frc consts  --      2.3478                 2.3478                 0.0026
 IR Inten    --    182.9314               182.9314                 0.3446

                      4
                      A
 Frequencies --   6347.0528
 Red. masses --      1.0583
 Frc consts  --     25.1200
 IR Inten    --    125.5017

 - Thermochemistry -
 -------------------
 Temperature   298.150 Kelvin.  Pressure   1.00000 Atm.
 Atom     1 has atomic number  1 and mass   1.00783

 Molecular mass:    21.01405 amu.
 Principal axes and moments of inertia in atomic units:
                           1         2         3
     Eigenvalues --     0.00000  39.72052  39.72052
           X            1.00000  -0.00000   0.00000
           Y            0.00000   1.00000   0.00000
           Z            0.00000   0.00000   1.00000
 This molecule is a prolate symmetric top.
 Rotational symmetry number  1.
 Rotational temperature (Kelvin)      2.18058
 Rotational constant (GHZ):          45.435996
    2 imaginary frequencies ignored.
 Zero-point vibrational energy      38349.1 (Joules/Mol)
                                    9.16566 (Kcal/Mol)
 Warning -- explicit consideration of   1 degrees of freedom as
           vibrations may cause significant error
 Vibrational temperatures:     92.69  9131.99
          (Kelvin)

 Zero-point correction=                           0.014606 (Hartree/Particle)
 Thermal correction to Energy=                    0.017772
 Thermal correction to Enthalpy=                  0.018716
 Thermal correction to Gibbs Free Energy=        -0.006239
 Sum of electronic and zero-point Energies=           -100.935928
 Sum of electronic and thermal Energies=              -100.932763
 Sum of electronic and thermal Enthalpies=            -100.931818
 Sum of electronic and thermal Free Energies=         -100.956774

                     E (Thermal)             CV                S
                      KCal/Mol        Cal/Mol-Kelvin    Cal/Mol-Kelvin
 Total                   11.152              6.939             52.523
 Electronic               0.000              0.000              1.377
 Translational            0.889              2.981             35.068
 Rotational               0.592              1.987             11.760
 Vibrational              9.671              1.971              4.317
 Vibration     1          0.597              1.971              4.317

 Normal termination of Gaussian 16 at Fri Aug 22 15:51:28 2025.
