 Gaussian 16, Revision C.01,
 Gaussian 16:  ES64L-G16RevC.01  3-Jul-2019

 -----------------------------------------
 # sp b3lyp/6-311g** Force nosymm scf=(qc)
 -----------------------------------------

 -------------------
 Title Card Required
 -------------------
 Symbolic Z-matrix:
 Charge =  0 Multiplicity = 2

                          Input orientation:
 ---------------------------------------------------------------------
 Center     Atomic      Atomic             Coordinates (Angstroms)
 Number     Number       Type             X           Y           Z
 ---------------------------------------------------------------------
      1          1           0        0.000000    0.000000    0.000000
      2          1           0       -2.250000    0.000000    0.000000
      3          9           0        2.500000    0.000000    0.000000
 ---------------------------------------------------------------------

 SCF Done:  E(UB3LYP) =  -100.774771787     a.u. after   18 cycles

 Alpha  occ. eigenvalues --  -24.71766  -1.17970  -0.50865  -0.42719  -0.42719
 Alpha  occ. eigenvalues --   -0.34270
 Alpha virt. eigenvalues --   -0.12471   0.24940   0.32632   0.90130   0.93625
 Alpha virt. eigenvalues --    0.93625   1.06485   1.23523   1.23523   1.26132
 Alpha virt. eigenvalues --    1.36444   1.36444   1.43506   2.12949   2.33024

  Beta  occ. eigenvalues --  -24.68922  -1.09873  -0.39883  -0.39883  -0.35240
  Beta virt. eigenvalues --   -0.23436  -0.10666   0.26280   0.33487   0.94991
  Beta virt. eigenvalues --    0.94991   0.97140   1.09476   1.22577   1.22577
  Beta virt. eigenvalues --    1.29156   1.39393   1.39393   1.43989   2.13236

 Mulliken charges and spin densities:
               1          2
     1  H    0.068946  -0.837731
     2  H    0.018942   0.938982
     3  F   -0.087888   0.898749
 Sum of Mulliken charges =  -0.00000   1.00000

 Dipole moment (field-independent basis, Debye):
    X=             -1.3220    Y=              0.0000    Z=             -0.0000  Tot=              1.3220
 Quadrupole moment (field-independent basis, Debye-Ang):
   XX=             -8.5421   YY=             -7.6336   ZZ=             -7.6336
   XY=              0.0000   XZ=             -0.0000   YZ=              0.0000

  Exact polarizability:      51.377      -0.000       2.011       0.000       0.000       2.011
 Approx polarizability:      53.281      -0.000       1.920       0.000      -0.000       1.920

 ******    2 imaginary frequencies (negative Signs) ******

                      1                      2                      3
                      A                      A                      A
 Frequencies --  -1037.6553              -379.8171               410.4713
 Red. masses --      1.0122                 1.1032                 1.0167
 Frc consts  --      0.6422                 0.0938                 0.1009
 IR Inten    --     46.7738                41.1354                 3.3766

                      4
                      A
 Frequencies --    410.4713
 Red. masses --      1.0167
 Frc consts  --      0.1009
 IR Inten    --      3.3766

 - Thermochemistry -
 -------------------
 Temperature   298.150 Kelvin.  Pressure   1.00000 Atm.
 Atom     1 has atomic number  1 and mass   1.00783

 Molecular mass:    21.01405 amu.
 Principal axes and moments of inertia in atomic units:
                           1         2         3
     Eigenvalues --     0.00000  94.62378  94.62378
           X            1.00000  -0.00000   0.00000
           Y            0.00000   1.00000   0.00000
           Z            0.00000   0.00000   1.00000
 This molecule is a prolate symmetric top.
 Rotational symmetry number  1.
 Rotational temperature (Kelvin)      0.91535
 Rotational constant (GHZ):          19.072808
    2 imaginary frequencies ignored.
 Zero-point vibrational energy       4910.3 (Joules/Mol)
                                    1.17360 (Kcal/Mol)
 Warning -- explicit consideration of   2 degrees of freedom as
           vibrations may cause significant error
 Vibrational temperatures:    590.58   590.58
          (Kelvin)

 Zero-point correction=                           0.001870 (Hartree/Particle)
 Thermal correction to Energy=                    0.004829
 Thermal correction to Enthalpy=                  0.005774
 Thermal correction to Gibbs Free Energy=        -0.018829
 Sum of electronic and zero-point Energies=           -100.772902
 Sum of electronic and thermal Energies=              -100.769942
 Sum of electronic and thermal Enthalpies=            -100.768998
 Sum of electronic and thermal Free Energies=         -100.793601

                     E (Thermal)             CV                S
                      KCal/Mol        Cal/Mol-Kelvin    Cal/Mol-Kelvin
 Total                    3.030              7.863             51.781
 Electronic               0.000              0.000              1.377
 Translational            0.889              2.981             35.068
 Rotational               0.592              1.987             13.485
 Vibrational              1.549              2.895              1.850
 Vibration     1          0.775              1.447              0.925
 Vibration     2          0.775              1.447              0.925

 Normal termination of Gaussian 16 at Fri Aug 22 17:45:02 2025.
