 Gaussian 16, Revision C.01,
 Gaussian 16:  ES64L-G16RevC.01  3-Jul-2019

 -----------------------------------------
 # sp b3lyp/6-311g** Force nosymm scf=(qc)
 -----------------------------------------

 -------------------
 Title Card Required
 -------------------
 Symbolic Z-matrix:
 Charge =  0 Multiplicity = 2

                          Input orientation:
 ---------------------------------------------------------------------
 Center     Atomic      Atomic             Coordinates (Angstroms)
 Number     Number       Type             X           Y           Z
 ---------------------------------------------------------------------
      1          1           0        0.000000    0.000000    0.000000
      2          1           0       -3.750000    0.000000    0.000000
      3          9           0        1.350000    0.000000    0.000000
 ---------------------------------------------------------------------

 SCF Done:  E(UB3LYP) =  -100.889134961     a.u. after    7 cycles

 Alpha  occ. eigenvalues --  -24.64382  -1.10668  -0.45293  -0.36886  -0.36886
 Alpha  occ. eigenvalues --   -0.33711
 Alpha virt. eigenvalues --   -0.10471   0.21048   0.27888   0.93013   0.93013
 Alpha virt. eigenvalues --    1.02645   1.18384   1.23777   1.23799   1.23799
 Alpha virt. eigenvalues --    1.33236   1.33236   1.70667   2.13289   2.22951

  Beta  occ. eigenvalues --  -24.64378  -1.10655  -0.45280  -0.36882  -0.36882
  Beta virt. eigenvalues --   -0.10774  -0.05967   0.24326   0.38465   0.93012
  Beta virt. eigenvalues --    0.93012   1.02658   1.18407   1.33219   1.33219
  Beta virt. eigenvalues --    1.46584   1.46968   1.46968   1.70688   2.22194

 Mulliken charges and spin densities:
               1          2
     1  H    0.358237  -0.000675
     2  H    0.000843   0.999101
     3  F   -0.359081   0.001574
 Sum of Mulliken charges =  -0.00000   1.00000

 Dipole moment (field-independent basis, Debye):
    X=             -2.4548    Y=             -0.0000    Z=             -0.0000  Tot=              2.4548
 Quadrupole moment (field-independent basis, Debye-Ang):
   XX=             -9.4093   YY=             -7.2324   ZZ=             -7.2324
   XY=             -0.0000   XZ=             -0.0000   YZ=             -0.0000

  Exact polarizability:      11.912      -0.000       2.255      -0.000      -0.000       2.255
 Approx polarizability:      19.516       0.000       2.194       0.000       0.000       2.194

 ******    2 imaginary frequencies (negative Signs) ******

                      1                      2                      3
                      A                      A                      A
 Frequencies --   -871.9033               -51.4123              1131.9252
 Red. masses --      1.0578                 1.0538                 1.0334
 Frc consts  --      0.4738                 0.0016                 0.7801
 IR Inten    --     51.3796                 0.0416               132.6921

                      4
                      A
 Frequencies --   1131.9252
 Red. masses --      1.0334
 Frc consts  --      0.7801
 IR Inten    --    132.6921

 - Thermochemistry -
 -------------------
 Temperature   298.150 Kelvin.  Pressure   1.00000 Atm.
 Atom     1 has atomic number  1 and mass   1.00783

 Molecular mass:    21.01405 amu.
 Principal axes and moments of inertia in atomic units:
                           1         2         3
     Eigenvalues --     0.00000  92.98853  92.98853
           X            1.00000  -0.00000   0.00000
           Y            0.00000   1.00000   0.00000
           Z            0.00000   0.00000   1.00000
 This molecule is a prolate symmetric top.
 Rotational symmetry number  1.
 Rotational temperature (Kelvin)      0.93145
 Rotational constant (GHZ):          19.408214
    2 imaginary frequencies ignored.
 Zero-point vibrational energy      13540.8 (Joules/Mol)
                                    3.23634 (Kcal/Mol)
 Vibrational temperatures:   1628.59  1628.59
          (Kelvin)

 Zero-point correction=                           0.005157 (Hartree/Particle)
 Thermal correction to Energy=                    0.007562
 Thermal correction to Enthalpy=                  0.008506
 Thermal correction to Gibbs Free Energy=        -0.015253
 Sum of electronic and zero-point Energies=           -100.883978
 Sum of electronic and thermal Energies=              -100.881573
 Sum of electronic and thermal Enthalpies=            -100.880629
 Sum of electronic and thermal Free Energies=         -100.904388

                     E (Thermal)             CV                S
                      KCal/Mol        Cal/Mol-Kelvin    Cal/Mol-Kelvin
 Total                    4.745              5.476             50.005
 Electronic               0.000              0.000              1.377
 Translational            0.889              2.981             35.068
 Rotational               0.592              1.987             13.451
 Vibrational              3.264              0.508              0.109

 Normal termination of Gaussian 16 at Fri Aug 22 16:18:47 2025.
