 Gaussian 16, Revision C.01,
 Gaussian 16:  ES64L-G16RevC.01  3-Jul-2019

 -----------------------------------------
 # sp b3lyp/6-311g** Force nosymm scf=(qc)
 -----------------------------------------

 -------------------
 Title Card Required
 -------------------
 Symbolic Z-matrix:
 Charge =  0 Multiplicity = 2

                          Input orientation:
 ---------------------------------------------------------------------
 Center     Atomic      Atomic             Coordinates (Angstroms)
 Number     Number       Type             X           Y           Z
 ---------------------------------------------------------------------
      1          1           0        0.000000    0.000000    0.000000
      2          1           0       -1.900000    0.000000    0.000000
      3          9           0        1.200000    0.000000    0.000000
 ---------------------------------------------------------------------

 SCF Done:  E(UB3LYP) =  -100.928403432     a.u. after    6 cycles

 Alpha  occ. eigenvalues --  -24.63636  -1.11828  -0.48000  -0.36962  -0.36962
 Alpha  occ. eigenvalues --   -0.36880
 Alpha virt. eigenvalues --   -0.02442   0.23274   0.28844   0.93717   0.93717
 Alpha virt. eigenvalues --    1.01012   1.10150   1.20031   1.20031   1.35803
 Alpha virt. eigenvalues --    1.35803   1.47869   1.72172   2.14845   2.32970

  Beta  occ. eigenvalues --  -24.63432  -1.11314  -0.46893  -0.36776  -0.36776
  Beta virt. eigenvalues --   -0.15285   0.00849   0.28236   0.33203   0.93720
  Beta virt. eigenvalues --    0.93720   1.01616   1.18436   1.33549   1.33549
  Beta virt. eigenvalues --    1.40155   1.40155   1.55616   1.74620   2.27493

 Mulliken charges and spin densities:
               1          2
     1  H    0.328788  -0.012774
     2  H    0.031699   0.952508
     3  F   -0.360487   0.060267
 Sum of Mulliken charges =  -0.00000   1.00000

 Dipole moment (field-independent basis, Debye):
    X=             -2.6202    Y=             -0.0000    Z=             -0.0000  Tot=              2.6202
 Quadrupole moment (field-independent basis, Debye-Ang):
   XX=             -8.1814   YY=             -7.0737   ZZ=             -7.0737
   XY=             -0.0000   XZ=             -0.0000   YZ=              0.0000

  Exact polarizability:      16.365       0.000       2.389       0.000      -0.000       2.389
 Approx polarizability:      20.114       0.000       2.353      -0.000      -0.000       2.353

 ******    1 imaginary frequencies (negative Signs) ******

                      1                      2                      3
                      A                      A                      A
 Frequencies --   -563.0233               705.3021              1152.4338
 Red. masses --      1.0127                 1.1027                 1.0243
 Frc consts  --      0.1891                 0.3232                 0.8015
 IR Inten    --     95.9842               133.5067               102.1681

                      4
                      A
 Frequencies --   1152.4338
 Red. masses --      1.0243
 Frc consts  --      0.8015
 IR Inten    --    102.1681

 - Thermochemistry -
 -------------------
 Temperature   298.150 Kelvin.  Pressure   1.00000 Atm.
 Atom     1 has atomic number  1 and mass   1.00783

 Molecular mass:    21.01405 amu.
 Principal axes and moments of inertia in atomic units:
                           1         2         3
     Eigenvalues --     0.00000  36.57754  36.57754
           X            1.00000  -0.00000   0.00000
           Y            0.00000   1.00000   0.00000
           Z            0.00000   0.00000   1.00000
 This molecule is a prolate symmetric top.
 Rotational symmetry number  1.
 Rotational temperature (Kelvin)      2.36795
 Rotational constant (GHZ):          49.340144
    1 imaginary frequencies ignored.
 Zero-point vibrational energy      18004.8 (Joules/Mol)
                                    4.30325 (Kcal/Mol)
 Vibrational temperatures:   1014.77  1658.10  1658.10
          (Kelvin)

 Zero-point correction=                           0.006858 (Hartree/Particle)
 Thermal correction to Energy=                    0.009369
 Thermal correction to Enthalpy=                  0.010313
 Thermal correction to Gibbs Free Energy=        -0.012703
 Sum of electronic and zero-point Energies=           -100.921546
 Sum of electronic and thermal Energies=              -100.919034
 Sum of electronic and thermal Enthalpies=            -100.918090
 Sum of electronic and thermal Free Energies=         -100.941107

                     E (Thermal)             CV                S
                      KCal/Mol        Cal/Mol-Kelvin    Cal/Mol-Kelvin
 Total                    5.879              6.263             48.442
 Electronic               0.000              0.000              1.377
 Translational            0.889              2.981             35.068
 Rotational               0.592              1.987             11.596
 Vibrational              4.398              1.295              0.400

 Normal termination of Gaussian 16 at Fri Aug 22 16:10:05 2025.
