 Gaussian 16, Revision C.01,
 Gaussian 16:  ES64L-G16RevC.01  3-Jul-2019

 -----------------------------------------
 # sp b3lyp/6-311g** Force nosymm scf=(qc)
 -----------------------------------------

 -------------------
 Title Card Required
 -------------------
 Symbolic Z-matrix:
 Charge =  0 Multiplicity = 2

                          Input orientation:
 ---------------------------------------------------------------------
 Center     Atomic      Atomic             Coordinates (Angstroms)
 Number     Number       Type             X           Y           Z
 ---------------------------------------------------------------------
      1          1           0        0.000000    0.000000    0.000000
      2          1           0       -1.350000    0.000000    0.000000
      3          9           0        3.000000    0.000000    0.000000
 ---------------------------------------------------------------------

 SCF Done:  E(UB3LYP) =  -100.845585628     a.u. after  123 cycles

 Alpha  occ. eigenvalues --  -24.76707  -1.22531  -0.55720  -0.46972  -0.46870
 Alpha  occ. eigenvalues --   -0.34667
 Alpha virt. eigenvalues --   -0.06958   0.24074   0.32304   0.85736   0.90608
 Alpha virt. eigenvalues --    0.93182   1.03559   1.13150   1.16771   1.16777
 Alpha virt. eigenvalues --    1.47341   1.47347   1.95030   2.27673   2.52485

  Beta  occ. eigenvalues --  -24.73546  -1.13446  -0.43810  -0.43701  -0.34656
  Beta virt. eigenvalues --   -0.26346  -0.06944   0.24094   0.32375   0.92107
  Beta virt. eigenvalues --    0.94841   0.95194   1.07460   1.13152   1.16770
  Beta virt. eigenvalues --    1.16776   1.47339   1.47346   1.95038   2.27675

 Mulliken charges and spin densities:
               1          2
     1  H   -0.000750   0.000563
     2  H   -0.006806  -0.001577
     3  F    0.007556   1.001015
 Sum of Mulliken charges =  -0.00000   1.00000

 Dipole moment (field-independent basis, Debye):
    X=              0.1108    Y=             -0.0000    Z=             -0.0000  Tot=              0.1108
 Quadrupole moment (field-independent basis, Debye-Ang):
   XX=             -6.1503   YY=             -7.2135   ZZ=             -7.2145
   XY=             -0.0000   XZ=             -0.0000   YZ=              0.4318

  Exact polarizability:      19.842      -0.000       2.300      -0.000       0.231       2.300
 Approx polarizability:      33.097      -0.000       2.371      -0.000       0.290       2.370

 ******    1 imaginary frequencies (negative Signs) ******

                      1                      2                      3
                      A                      A                      A
 Frequencies --  -1087.2673                28.1181              1350.3760
 Red. masses --      1.0078                 1.1085                 1.0111
 Frc consts  --      0.7020                 0.0005                 1.0863
 IR Inten    --      1.2099                 0.6697                 0.0052

                      4
                      A
 Frequencies --   1350.7641
 Red. masses --      1.0111
 Frc consts  --      1.0870
 IR Inten    --      0.0051

 - Thermochemistry -
 -------------------
 Temperature   298.150 Kelvin.  Pressure   1.00000 Atm.
 Atom     1 has atomic number  1 and mass   1.00783

 Molecular mass:    21.01405 amu.
 Principal axes and moments of inertia in atomic units:
                           1         2         3
     Eigenvalues --     0.00000  91.16866  91.16866
           X            1.00000  -0.00000   0.00000
           Y            0.00000   1.00000   0.00000
           Z            0.00000   0.00000   1.00000
 This molecule is a prolate symmetric top.
 Rotational symmetry number  1.
 Rotational temperature (Kelvin)      0.95004
 Rotational constant (GHZ):          19.795632
    1 imaginary frequencies ignored.
 Zero-point vibrational energy      16324.6 (Joules/Mol)
                                    3.90167 (Kcal/Mol)
 Warning -- explicit consideration of   1 degrees of freedom as
           vibrations may cause significant error
 Vibrational temperatures:     40.46  1942.89  1943.45
          (Kelvin)

 Zero-point correction=                           0.006218 (Hartree/Particle)
 Thermal correction to Energy=                    0.009478
 Thermal correction to Enthalpy=                  0.010422
 Thermal correction to Gibbs Free Energy=        -0.016118
 Sum of electronic and zero-point Energies=           -100.839368
 Sum of electronic and thermal Energies=              -100.836108
 Sum of electronic and thermal Enthalpies=            -100.835163
 Sum of electronic and thermal Free Energies=         -100.861704

                     E (Thermal)             CV                S
                      KCal/Mol        Cal/Mol-Kelvin    Cal/Mol-Kelvin
 Total                    5.948              7.202             55.859
 Electronic               0.000              0.000              1.377
 Translational            0.889              2.981             35.068
 Rotational               0.592              1.987             13.411
 Vibrational              4.466              2.234              6.002
 Vibration     1          0.593              1.984              5.958

 Normal termination of Gaussian 16 at Fri Aug 22 19:28:33 2025.
