 Gaussian 16, Revision C.01,
 Gaussian 16:  ES64L-G16RevC.01  3-Jul-2019

 -----------------------------------------
 # sp b3lyp/6-311g** Force nosymm scf=(qc)
 -----------------------------------------

 -------------------
 Title Card Required
 -------------------
 Symbolic Z-matrix:
 Charge =  0 Multiplicity = 2

                          Input orientation:
 ---------------------------------------------------------------------
 Center     Atomic      Atomic             Coordinates (Angstroms)
 Number     Number       Type             X           Y           Z
 ---------------------------------------------------------------------
      1          1           0        0.000000    0.000000    0.000000
      2          1           0       -1.850000    0.000000    0.000000
      3          9           0        2.750000    0.000000    0.000000
 ---------------------------------------------------------------------

 SCF Done:  E(UB3LYP) =  -100.786135907     a.u. after   21 cycles

 Alpha  occ. eigenvalues --  -24.73471  -1.19568  -0.52592  -0.44156  -0.44156
 Alpha  occ. eigenvalues --   -0.34462
 Alpha virt. eigenvalues --   -0.12204   0.25019   0.31229   0.90208   0.92636
 Alpha virt. eigenvalues --    0.92636   1.04916   1.12534   1.23300   1.23300
 Alpha virt. eigenvalues --    1.35743   1.35743   1.56813   2.12659   2.38314

  Beta  occ. eigenvalues --  -24.70497  -1.11061  -0.41183  -0.41183  -0.34434
  Beta virt. eigenvalues --   -0.24573  -0.11599   0.26194   0.31218   0.94073
  Beta virt. eigenvalues --    0.94073   0.98249   1.07878   1.14183   1.23353
  Beta virt. eigenvalues --    1.23353   1.36589   1.36589   1.57491   2.13756

 Mulliken charges and spin densities:
               1          2
     1  H    0.025399  -0.721620
     2  H    0.025405   0.780125
     3  F   -0.050803   0.941495
 Sum of Mulliken charges =   0.00000   1.00000

 Dipole moment (field-independent basis, Debye):
    X=             -0.9391    Y=             -0.0000    Z=             -0.0000  Tot=              0.9391
 Quadrupole moment (field-independent basis, Debye-Ang):
   XX=             -7.4622   YY=             -7.7093   ZZ=             -7.7093
   XY=             -0.0000   XZ=             -0.0000   YZ=             -0.0000

  Exact polarizability:      63.115      -0.000       2.007      -0.000       0.000       2.007
 Approx polarizability:      67.507      -0.000       1.944      -0.000       0.000       1.944

 ******    2 imaginary frequencies (negative Signs) ******

                      1                      2                      3
                      A                      A                      A
 Frequencies --  -1651.3398              -302.6380               700.9702
 Red. masses --      1.0081                 1.1082                 1.0139
 Frc consts  --      1.6197                 0.0598                 0.2935
 IR Inten    --     98.3418                41.3825                 0.1856

                      4
                      A
 Frequencies --    700.9702
 Red. masses --      1.0139
 Frc consts  --      0.2935
 IR Inten    --      0.1856

 - Thermochemistry -
 -------------------
 Temperature   298.150 Kelvin.  Pressure   1.00000 Atm.
 Atom     1 has atomic number  1 and mass   1.00783

 Molecular mass:    21.01405 amu.
 Principal axes and moments of inertia in atomic units:
                           1         2         3
     Eigenvalues --     0.00000  94.04787  94.04787
           X            1.00000  -0.00000   0.00000
           Y            0.00000   1.00000   0.00000
           Z            0.00000   0.00000   1.00000
 This molecule is a prolate symmetric top.
 Rotational symmetry number  1.
 Rotational temperature (Kelvin)      0.92096
 Rotational constant (GHZ):          19.189603
    2 imaginary frequencies ignored.
 Zero-point vibrational energy       8385.5 (Joules/Mol)
                                    2.00417 (Kcal/Mol)
 Vibrational temperatures:   1008.54  1008.54
          (Kelvin)

 Zero-point correction=                           0.003194 (Hartree/Particle)
 Thermal correction to Energy=                    0.005779
 Thermal correction to Enthalpy=                  0.006723
 Thermal correction to Gibbs Free Energy=        -0.017285
 Sum of electronic and zero-point Energies=           -100.782942
 Sum of electronic and thermal Energies=              -100.780357
 Sum of electronic and thermal Enthalpies=            -100.779413
 Sum of electronic and thermal Free Energies=         -100.803421

                     E (Thermal)             CV                S
                      KCal/Mol        Cal/Mol-Kelvin    Cal/Mol-Kelvin
 Total                    3.626              6.623             50.528
 Electronic               0.000              0.000              1.377
 Translational            0.889              2.981             35.068
 Rotational               0.592              1.987             13.473
 Vibrational              2.145              1.655              0.610

 Normal termination of Gaussian 16 at Fri Aug 22 18:33:25 2025.
