 Gaussian 16, Revision C.01,
 Gaussian 16:  ES64L-G16RevC.01  3-Jul-2019

 -----------------------------------------
 # sp b3lyp/6-311g** Force nosymm scf=(qc)
 -----------------------------------------

 -------------------
 Title Card Required
 -------------------
 Symbolic Z-matrix:
 Charge =  0 Multiplicity = 2

                          Input orientation:
 ---------------------------------------------------------------------
 Center     Atomic      Atomic             Coordinates (Angstroms)
 Number     Number       Type             X           Y           Z
 ---------------------------------------------------------------------
      1          1           0        0.000000    0.000000    0.000000
      2          1           0       -3.050000    0.000000    0.000000
      3          9           0        0.850000    0.000000    0.000000
 ---------------------------------------------------------------------

 SCF Done:  E(UB3LYP) =  -100.965583880     a.u. after    6 cycles

 Alpha  occ. eigenvalues --  -24.63838  -1.20887  -0.55001  -0.40118  -0.40118
 Alpha  occ. eigenvalues --   -0.33977
 Alpha virt. eigenvalues --    0.04461   0.25194   0.42442   0.94353   0.94353
 Alpha virt. eigenvalues --    0.97401   1.22670   1.23550   1.23550   1.32228
 Alpha virt. eigenvalues --    1.38376   1.38376   2.03387   2.14691   2.42943

  Beta  occ. eigenvalues --  -24.63835  -1.20878  -0.54991  -0.40116  -0.40116
  Beta virt. eigenvalues --   -0.06603   0.05498   0.39017   0.42533   0.94353
  Beta virt. eigenvalues --    0.94353   0.97388   1.30188   1.38375   1.38375
  Beta virt. eigenvalues --    1.50055   1.50055   1.50560   2.03509   2.42656

 Mulliken charges and spin densities:
               1          2
     1  H    0.283013   0.001345
     2  H    0.002014   0.997307
     3  F   -0.285026   0.001348
 Sum of Mulliken charges =   0.00000   1.00000

 Dipole moment (field-independent basis, Debye):
    X=             -1.8376    Y=             -0.0000    Z=              0.0000  Tot=              1.8376
 Quadrupole moment (field-independent basis, Debye-Ang):
   XX=             -7.6805   YY=             -6.8190   ZZ=             -6.8190
   XY=             -0.0000   XZ=              0.0000   YZ=             -0.0000

  Exact polarizability:       5.708       0.000       2.444      -0.000       0.000       2.444
 Approx polarizability:       6.346       0.000       2.426      -0.000       0.000       2.426

 ******    3 imaginary frequencies (negative Signs) ******

                      1                      2                      3
                      A                      A                      A
 Frequencies --  -1320.4233             -1320.4233               -53.1286
 Red. masses --      1.0373                 1.0373                 1.0532
 Frc consts  --      1.0656                 1.0656                 0.0018
 IR Inten    --    184.2156               184.2156                 0.1315

                      4
                      A
 Frequencies --   5310.6463
 Red. masses --      1.0583
 Frc consts  --     17.5860
 IR Inten    --    110.0837

 - Thermochemistry -
 -------------------
 Temperature   298.150 Kelvin.  Pressure   1.00000 Atm.
 Atom     1 has atomic number  1 and mass   1.00783

 Molecular mass:    21.01405 amu.
 Principal axes and moments of inertia in atomic units:
                           1         2         3
     Eigenvalues --     0.00000  53.44676  53.44676
           X            1.00000  -0.00000   0.00000
           Y            0.00000   1.00000   0.00000
           Z            0.00000   0.00000   1.00000
 This molecule is a prolate symmetric top.
 Rotational symmetry number  1.
 Rotational temperature (Kelvin)      1.62056
 Rotational constant (GHZ):          33.767083
    3 imaginary frequencies ignored.
 Zero-point vibrational energy      31764.7 (Joules/Mol)
                                    7.59195 (Kcal/Mol)
 Vibrational temperatures:   7640.84
          (Kelvin)

 Zero-point correction=                           0.012099 (Hartree/Particle)
 Thermal correction to Energy=                    0.014459
 Thermal correction to Enthalpy=                  0.015403
 Thermal correction to Gibbs Free Energy=        -0.007781
 Sum of electronic and zero-point Energies=           -100.953485
 Sum of electronic and thermal Energies=              -100.951125
 Sum of electronic and thermal Enthalpies=            -100.950181
 Sum of electronic and thermal Free Energies=         -100.973365

                     E (Thermal)             CV                S
                      KCal/Mol        Cal/Mol-Kelvin    Cal/Mol-Kelvin
 Total                    9.073              4.968             48.796
 Electronic               0.000              0.000              1.377
 Translational            0.889              2.981             35.068
 Rotational               0.592              1.987             12.350
 Vibrational              7.592              0.000              0.000

 Normal termination of Gaussian 16 at Fri Aug 22 15:54:08 2025.
