 Gaussian 16, Revision C.01,
 Gaussian 16:  ES64L-G16RevC.01  3-Jul-2019

 -----------------------------------------
 # sp b3lyp/6-311g** Force nosymm scf=(qc)
 -----------------------------------------

 -------------------
 Title Card Required
 -------------------
 Symbolic Z-matrix:
 Charge =  0 Multiplicity = 2

                          Input orientation:
 ---------------------------------------------------------------------
 Center     Atomic      Atomic             Coordinates (Angstroms)
 Number     Number       Type             X           Y           Z
 ---------------------------------------------------------------------
      1          1           0        0.000000    0.000000    0.000000
      2          1           0       -1.300000    0.000000    0.000000
      3          9           0        2.500000    0.000000    0.000000
 ---------------------------------------------------------------------

 SCF Done:  E(UB3LYP) =  -100.855413823     a.u. after   21 cycles

 Alpha  occ. eigenvalues --  -24.74636  -1.20668  -0.53853  -0.45164  -0.45164
 Alpha  occ. eigenvalues --   -0.36789
 Alpha virt. eigenvalues --   -0.06971   0.23011   0.33079   0.89285   0.91794
 Alpha virt. eigenvalues --    0.91794   1.07242   1.13817   1.13817   1.17822
 Alpha virt. eigenvalues --    1.47967   1.47967   1.97238   2.27328   2.52784

  Beta  occ. eigenvalues --  -24.71608  -1.11999  -0.42136  -0.42136  -0.36477
  Beta virt. eigenvalues --   -0.25615  -0.06299   0.23444   0.33572   0.93232
  Beta virt. eigenvalues --    0.93232   0.97192   1.10124   1.14241   1.14241
  Beta virt. eigenvalues --    1.20027   1.48329   1.48329   1.97748   2.27924

 Mulliken charges and spin densities:
               1          2
     1  H    0.003181  -0.074810
     2  H    0.029862   0.117837
     3  F   -0.033043   0.956973
 Sum of Mulliken charges =   0.00000   1.00000

 Dipole moment (field-independent basis, Debye):
    X=             -0.6007    Y=              0.0000    Z=             -0.0000  Tot=              0.6007
 Quadrupole moment (field-independent basis, Debye-Ang):
   XX=             -6.2706   YY=             -7.5524   ZZ=             -7.5524
   XY=              0.0000   XZ=             -0.0000   YZ=              0.0000

  Exact polarizability:      43.895       0.000       2.156      -0.000       0.000       2.156
 Approx polarizability:      58.010       0.000       2.096      -0.000       0.000       2.096

 ******    2 imaginary frequencies (negative Signs) ******

                      1                      2                      3
                      A                      A                      A
 Frequencies --  -1244.3988              -222.5188              1333.7274
 Red. masses --      1.0095                 1.1065                 1.0120
 Frc consts  --      0.9211                 0.0323                 1.0606
 IR Inten    --    433.5241                11.5161                 0.0219

                      4
                      A
 Frequencies --   1333.7275
 Red. masses --      1.0120
 Frc consts  --      1.0606
 IR Inten    --      0.0219

 - Thermochemistry -
 -------------------
 Temperature   298.150 Kelvin.  Pressure   1.00000 Atm.
 Atom     1 has atomic number  1 and mass   1.00783

 Molecular mass:    21.01405 amu.
 Principal axes and moments of inertia in atomic units:
                           1         2         3
     Eigenvalues --     0.00000  67.61272  67.61272
           X            1.00000  -0.00000   0.00000
           Y            0.00000   1.00000   0.00000
           Z            0.00000   0.00000   1.00000
 This molecule is a prolate symmetric top.
 Rotational symmetry number  1.
 Rotational temperature (Kelvin)      1.28103
 Rotational constant (GHZ):          26.692333
    2 imaginary frequencies ignored.
 Zero-point vibrational energy      15954.9 (Joules/Mol)
                                    3.81332 (Kcal/Mol)
 Vibrational temperatures:   1918.94  1918.94
          (Kelvin)

 Zero-point correction=                           0.006077 (Hartree/Particle)
 Thermal correction to Energy=                    0.008457
 Thermal correction to Enthalpy=                  0.009401
 Thermal correction to Gibbs Free Energy=        -0.014028
 Sum of electronic and zero-point Energies=           -100.849337
 Sum of electronic and thermal Energies=              -100.846957
 Sum of electronic and thermal Enthalpies=            -100.846013
 Sum of electronic and thermal Free Energies=         -100.869442

                     E (Thermal)             CV                S
                      KCal/Mol        Cal/Mol-Kelvin    Cal/Mol-Kelvin
 Total                    5.307              5.233             49.310
 Electronic               0.000              0.000              1.377
 Translational            0.889              2.981             35.068
 Rotational               0.592              1.987             12.817
 Vibrational              3.826              0.265              0.047

 Normal termination of Gaussian 16 at Fri Aug 22 17:44:00 2025.
