 Gaussian 16, Revision C.01,
 Gaussian 16:  ES64L-G16RevC.01  3-Jul-2019

 -----------------------------------------
 # sp b3lyp/6-311g** Force nosymm scf=(qc)
 -----------------------------------------

 -------------------
 Title Card Required
 -------------------
 Symbolic Z-matrix:
 Charge =  0 Multiplicity = 2

                          Input orientation:
 ---------------------------------------------------------------------
 Center     Atomic      Atomic             Coordinates (Angstroms)
 Number     Number       Type             X           Y           Z
 ---------------------------------------------------------------------
      1          1           0        0.000000    0.000000    0.000000
      2          1           0       -3.200000    0.000000    0.000000
      3          9           0        1.250000    0.000000    0.000000
 ---------------------------------------------------------------------

 SCF Done:  E(UB3LYP) =  -100.913541834     a.u. after    6 cycles

 Alpha  occ. eigenvalues --  -24.64334  -1.11622  -0.46865  -0.37260  -0.37260
 Alpha  occ. eigenvalues --   -0.34194
 Alpha virt. eigenvalues --   -0.07256   0.22342   0.28755   0.93082   0.93082
 Alpha virt. eigenvalues --    1.01450   1.23116   1.23329   1.23329   1.24888
 Alpha virt. eigenvalues --    1.34284   1.34284   1.71457   2.13982   2.26767

  Beta  occ. eigenvalues --  -24.64324  -1.11596  -0.46832  -0.37250  -0.37250
  Beta virt. eigenvalues --   -0.09332  -0.04994   0.26265   0.38076   0.93081
  Beta virt. eigenvalues --    0.93081   1.01479   1.24537   1.34259   1.34259
  Beta virt. eigenvalues --    1.45795   1.46255   1.46255   1.71535   2.26691

 Mulliken charges and spin densities:
               1          2
     1  H    0.355307  -0.000328
     2  H    0.002646   0.997007
     3  F   -0.357953   0.003321
 Sum of Mulliken charges =   0.00000   1.00000

 Dipole moment (field-independent basis, Debye):
    X=             -2.3757    Y=             -0.0000    Z=              0.0000  Tot=              2.3757
 Quadrupole moment (field-independent basis, Debye-Ang):
   XX=             -8.9587   YY=             -7.1648   ZZ=             -7.1648
   XY=              0.0000   XZ=              0.0000   YZ=             -0.0000

  Exact polarizability:      11.092       0.000       2.305      -0.000      -0.000       2.305
 Approx polarizability:      15.955       0.000       2.256      -0.000      -0.000       2.256

 ******    1 imaginary frequencies (negative Signs) ******

                      1                      2                      3
                      A                      A                      A
 Frequencies --    -92.5310               428.4254              1181.6929
 Red. masses --      1.0462                 1.0656                 1.0321
 Frc consts  --      0.0053                 0.1152                 0.8491
 IR Inten    --      1.3736                70.2134               138.2915

                      4
                      A
 Frequencies --   1181.6929
 Red. masses --      1.0321
 Frc consts  --      0.8491
 IR Inten    --    138.2915

 - Thermochemistry -
 -------------------
 Temperature   298.150 Kelvin.  Pressure   1.00000 Atm.
 Atom     1 has atomic number  1 and mass   1.00783

 Molecular mass:    21.01405 amu.
 Principal axes and moments of inertia in atomic units:
                           1         2         3
     Eigenvalues --     0.00000  71.28482  71.28482
           X            1.00000  -0.00000   0.00000
           Y            0.00000   1.00000   0.00000
           Z            0.00000   0.00000   1.00000
 This molecule is a prolate symmetric top.
 Rotational symmetry number  1.
 Rotational temperature (Kelvin)      1.21504
 Rotational constant (GHZ):          25.317329
    1 imaginary frequencies ignored.
 Zero-point vibrational energy      16698.7 (Joules/Mol)
                                    3.99109 (Kcal/Mol)
 Warning -- explicit consideration of   1 degrees of freedom as
           vibrations may cause significant error
 Vibrational temperatures:    616.41  1700.19  1700.19
          (Kelvin)

 Zero-point correction=                           0.006360 (Hartree/Particle)
 Thermal correction to Energy=                    0.009039
 Thermal correction to Enthalpy=                  0.009984
 Thermal correction to Gibbs Free Energy=        -0.013925
 Sum of electronic and zero-point Energies=           -100.907182
 Sum of electronic and thermal Energies=              -100.904502
 Sum of electronic and thermal Enthalpies=            -100.903558
 Sum of electronic and thermal Free Energies=         -100.927467

                     E (Thermal)             CV                S
                      KCal/Mol        Cal/Mol-Kelvin    Cal/Mol-Kelvin
 Total                    5.672              6.811             50.321
 Electronic               0.000              0.000              1.377
 Translational            0.889              2.981             35.068
 Rotational               0.592              1.987             12.922
 Vibrational              4.191              1.843              0.953
 Vibration     1          0.790              1.408              0.864

 Normal termination of Gaussian 16 at Fri Aug 22 16:13:24 2025.
