 Gaussian 16, Revision C.01,
 Gaussian 16:  ES64L-G16RevC.01  3-Jul-2019

 -----------------------------------------
 # sp b3lyp/6-311g** Force nosymm scf=(qc)
 -----------------------------------------

 -------------------
 Title Card Required
 -------------------
 Symbolic Z-matrix:
 Charge =  0 Multiplicity = 2

                          Input orientation:
 ---------------------------------------------------------------------
 Center     Atomic      Atomic             Coordinates (Angstroms)
 Number     Number       Type             X           Y           Z
 ---------------------------------------------------------------------
      1          1           0        0.000000    0.000000    0.000000
      2          1           0       -1.100000    0.000000    0.000000
      3          9           0        3.900000    0.000000    0.000000
 ---------------------------------------------------------------------

 SCF Done:  E(UB3LYP) =  -100.889569782     a.u. after   19 cycles

 Alpha  occ. eigenvalues --  -24.76217  -1.22115  -0.55318  -0.46494  -0.46474
 Alpha  occ. eigenvalues --   -0.37526
 Alpha virt. eigenvalues --   -0.01893   0.22134   0.36292   0.86052   0.90929
 Alpha virt. eigenvalues --    0.91471   1.00954   1.10781   1.10783   1.29648
 Alpha virt. eigenvalues --    1.59894   1.59896   2.16072   2.34082   2.55174

  Beta  occ. eigenvalues --  -24.73062  -1.13041  -0.43331  -0.43311  -0.37525
  Beta virt. eigenvalues --   -0.25968  -0.01891   0.22137   0.36306   0.92430
  Beta virt. eigenvalues --    0.92964   0.95518   1.05100   1.10781   1.10783
  Beta virt. eigenvalues --    1.29650   1.59894   1.59896   2.16074   2.34083

 Mulliken charges and spin densities:
               1          2
     1  H    0.000843  -0.000088
     2  H   -0.001973  -0.000035
     3  F    0.001130   1.000124
 Sum of Mulliken charges =   0.00000   1.00000

 Dipole moment (field-independent basis, Debye):
    X=              0.0227    Y=              0.0000    Z=              0.0000  Tot=              0.0227
 Quadrupole moment (field-independent basis, Debye-Ang):
   XX=             -6.3376   YY=             -6.6818   ZZ=             -7.2277
   XY=              0.0000   XZ=              0.0000   YZ=              0.3352

  Exact polarizability:      13.795       0.000       2.456       0.000       0.182       2.161
 Approx polarizability:      19.462       0.000       2.588       0.000       0.226       2.220

 ******    1 imaginary frequencies (negative Signs) ******

                      1                      2                      3
                      A                      A                      A
 Frequencies --    -54.8302              1026.9110              1528.1205
 Red. masses --      1.1085                 1.0078                 1.0093
 Frc consts  --      0.0020                 0.6262                 1.3887
 IR Inten    --      0.0459                 0.0544                 0.0027

                      4
                      A
 Frequencies --   1530.2364
 Red. masses --      1.0093
 Frc consts  --      1.3925
 IR Inten    --      0.0009

 - Thermochemistry -
 -------------------
 Temperature   298.150 Kelvin.  Pressure   1.00000 Atm.
 Atom     1 has atomic number  1 and mass   1.00783

 Molecular mass:    21.01405 amu.
 Principal axes and moments of inertia in atomic units:
                           1         2         3
     Eigenvalues --     0.00000 131.04394 131.04394
           X            1.00000  -0.00000   0.00000
           Y            0.00000   1.00000   0.00000
           Z            0.00000   0.00000   1.00000
 This molecule is a prolate symmetric top.
 Rotational symmetry number  1.
 Rotational temperature (Kelvin)      0.66095
 Rotational constant (GHZ):          13.772031
    1 imaginary frequencies ignored.
 Zero-point vibrational energy      24435.3 (Joules/Mol)
                                    5.84018 (Kcal/Mol)
 Vibrational temperatures:   1477.50  2198.62  2201.67
          (Kelvin)

 Zero-point correction=                           0.009307 (Hartree/Particle)
 Thermal correction to Energy=                    0.011709
 Thermal correction to Enthalpy=                  0.012653
 Thermal correction to Gibbs Free Energy=        -0.011427
 Sum of electronic and zero-point Energies=           -100.880263
 Sum of electronic and thermal Energies=              -100.877860
 Sum of electronic and thermal Enthalpies=            -100.876916
 Sum of electronic and thermal Free Energies=         -100.900997

                     E (Thermal)             CV                S
                      KCal/Mol        Cal/Mol-Kelvin    Cal/Mol-Kelvin
 Total                    7.348              5.452             50.682
 Electronic               0.000              0.000              1.377
 Translational            0.889              2.981             35.068
 Rotational               0.592              1.987             14.132
 Vibrational              5.866              0.484              0.105

 Normal termination of Gaussian 16 at Sat Aug 23 01:15:23 2025.
