 Gaussian 16, Revision C.01,
 Gaussian 16:  ES64L-G16RevC.01  3-Jul-2019

 -----------------------------------------
 # sp b3lyp/6-311g** Force nosymm scf=(qc)
 -----------------------------------------

 -------------------
 Title Card Required
 -------------------
 Symbolic Z-matrix:
 Charge =  0 Multiplicity = 2

                          Input orientation:
 ---------------------------------------------------------------------
 Center     Atomic      Atomic             Coordinates (Angstroms)
 Number     Number       Type             X           Y           Z
 ---------------------------------------------------------------------
      1          1           0        0.000000    0.000000    0.000000
      2          1           0       -1.450000    0.000000    0.000000
      3          9           0        2.250000    0.000000    0.000000
 ---------------------------------------------------------------------

 SCF Done:  E(UB3LYP) =  -100.834581063     a.u. after   13 cycles

 Alpha  occ. eigenvalues --  -24.72172  -1.18385  -0.51465  -0.43105  -0.43105
 Alpha  occ. eigenvalues --   -0.36999
 Alpha virt. eigenvalues --   -0.10000   0.23016   0.31706   0.86913   0.93070
 Alpha virt. eigenvalues --    0.93070   1.03560   1.16261   1.16261   1.21579
 Alpha virt. eigenvalues --    1.40886   1.40886   1.84052   2.21259   2.47183

  Beta  occ. eigenvalues --  -24.69339  -1.10333  -0.40284  -0.40284  -0.36424
  Beta virt. eigenvalues --   -0.24507  -0.08836   0.24333   0.31798   0.92552
  Beta virt. eigenvalues --    0.94381   0.94381   1.06921   1.17302   1.17302
  Beta virt. eigenvalues --    1.25332   1.41595   1.41595   1.85087   2.22383

 Mulliken charges and spin densities:
               1          2
     1  H    0.037764  -0.276904
     2  H    0.049167   0.383960
     3  F   -0.086931   0.892943
 Sum of Mulliken charges =  -0.00000   1.00000

 Dipole moment (field-independent basis, Debye):
    X=             -1.3203    Y=              0.0000    Z=             -0.0000  Tot=              1.3203
 Quadrupole moment (field-independent basis, Debye-Ang):
   XX=             -7.1413   YY=             -7.5931   ZZ=             -7.5931
   XY=              0.0000   XZ=             -0.0000   YZ=              0.0000

  Exact polarizability:      54.920       0.000       2.085      -0.000       0.000       2.085
 Approx polarizability:      81.135      -0.000       2.059       0.000      -0.000       2.059

 ******    2 imaginary frequencies (negative Signs) ******

                      1                      2                      3
                      A                      A                      A
 Frequencies --  -2009.7040              -359.7070              1175.0105
 Red. masses --      1.0097                 1.1062                 1.0135
 Frc consts  --      2.4028                 0.0843                 0.8244
 IR Inten    --    883.3731                23.9943                 0.1284

                      4
                      A
 Frequencies --   1175.0105
 Red. masses --      1.0135
 Frc consts  --      0.8244
 IR Inten    --      0.1284

 - Thermochemistry -
 -------------------
 Temperature   298.150 Kelvin.  Pressure   1.00000 Atm.
 Atom     1 has atomic number  1 and mass   1.00783

 Molecular mass:    21.01405 amu.
 Principal axes and moments of inertia in atomic units:
                           1         2         3
     Eigenvalues --     0.00000  61.37969  61.37969
           X            1.00000  -0.00000   0.00000
           Y            0.00000   1.00000   0.00000
           Z            0.00000   0.00000   1.00000
 This molecule is a prolate symmetric top.
 Rotational symmetry number  1.
 Rotational temperature (Kelvin)      1.41112
 Rotational constant (GHZ):          29.402905
    2 imaginary frequencies ignored.
 Zero-point vibrational energy      14056.2 (Joules/Mol)
                                    3.35952 (Kcal/Mol)
 Vibrational temperatures:   1690.58  1690.58
          (Kelvin)

 Zero-point correction=                           0.005354 (Hartree/Particle)
 Thermal correction to Energy=                    0.007751
 Thermal correction to Enthalpy=                  0.008695
 Thermal correction to Gibbs Free Energy=        -0.014663
 Sum of electronic and zero-point Energies=           -100.829227
 Sum of electronic and thermal Energies=              -100.826830
 Sum of electronic and thermal Enthalpies=            -100.825886
 Sum of electronic and thermal Free Energies=         -100.849244

                     E (Thermal)             CV                S
                      KCal/Mol        Cal/Mol-Kelvin    Cal/Mol-Kelvin
 Total                    4.864              5.412             49.162
 Electronic               0.000              0.000              1.377
 Translational            0.889              2.981             35.068
 Rotational               0.592              1.987             12.625
 Vibrational              3.383              0.444              0.092

 Normal termination of Gaussian 16 at Fri Aug 22 17:15:55 2025.
