 Gaussian 16, Revision C.01,
 Gaussian 16:  ES64L-G16RevC.01  3-Jul-2019

 -----------------------------------------
 # sp b3lyp/6-311g** Force nosymm scf=(qc)
 -----------------------------------------

 -------------------
 Title Card Required
 -------------------
 Symbolic Z-matrix:
 Charge =  0 Multiplicity = 2

                          Input orientation:
 ---------------------------------------------------------------------
 Center     Atomic      Atomic             Coordinates (Angstroms)
 Number     Number       Type             X           Y           Z
 ---------------------------------------------------------------------
      1          1           0        0.000000    0.000000    0.000000
      2          1           0       -3.800000    0.000000    0.000000
      3          9           0        2.850000    0.000000    0.000000
 ---------------------------------------------------------------------

 SCF Done:  E(UB3LYP) =  -100.762113479     a.u. after   23 cycles

 Alpha  occ. eigenvalues --  -24.73490  -1.19594  -0.52608  -0.44177  -0.44177
 Alpha  occ. eigenvalues --   -0.32559
 Alpha virt. eigenvalues --   -0.08423   0.23777   0.36042   0.89750   0.92629
 Alpha virt. eigenvalues --    0.92629   1.04740   1.24941   1.24941   1.24987
 Alpha virt. eigenvalues --    1.43368   1.43368   1.44366   2.14400   2.39952

  Beta  occ. eigenvalues --  -24.70505  -1.11052  -0.41192  -0.41192  -0.34130
  Beta virt. eigenvalues --   -0.24428  -0.06166   0.23806   0.38097   0.94076
  Beta virt. eigenvalues --    0.94076   0.98119   1.08225   1.23179   1.23179
  Beta virt. eigenvalues --    1.24301   1.46342   1.46533   1.46533   2.14116

 Mulliken charges and spin densities:
               1          2
     1  H    0.049432  -0.944354
     2  H    0.000257   0.999019
     3  F   -0.049690   0.945335
 Sum of Mulliken charges =  -0.00000   1.00000

 Dipole moment (field-independent basis, Debye):
    X=             -0.7309    Y=             -0.0000    Z=              0.0000  Tot=              0.7309
 Quadrupole moment (field-independent basis, Debye-Ang):
   XX=             -8.6463   YY=             -7.5982   ZZ=             -7.5982
   XY=              0.0000   XZ=             -0.0000   YZ=              0.0000

  Exact polarizability:      31.534       0.000       2.025      -0.000       0.000       2.025
 Approx polarizability:      34.875       0.000       1.924      -0.000      -0.000       1.924

 ******    2 imaginary frequencies (negative Signs) ******

                      1                      2                      3
                      A                      A                      A
 Frequencies --   -427.5374               -86.0884               154.0491
 Red. masses --      1.0539                 1.0577                 1.0218
 Frc consts  --      0.1135                 0.0046                 0.0143
 IR Inten    --     50.9646                 0.1272                 2.3533

                      4
                      A
 Frequencies --    154.0491
 Red. masses --      1.0218
 Frc consts  --      0.0143
 IR Inten    --      2.3533

 - Thermochemistry -
 -------------------
 Temperature   298.150 Kelvin.  Pressure   1.00000 Atm.
 Atom     1 has atomic number  1 and mass   1.00783

 Molecular mass:    21.01405 amu.
 Principal axes and moments of inertia in atomic units:
                           1         2         3
     Eigenvalues --     0.00000 172.81233 172.81233
           X            1.00000  -0.00000   0.00000
           Y            0.00000   1.00000   0.00000
           Z            0.00000   0.00000   1.00000
 This molecule is a prolate symmetric top.
 Rotational symmetry number  1.
 Rotational temperature (Kelvin)      0.50120
 Rotational constant (GHZ):          10.443359
    2 imaginary frequencies ignored.
 Zero-point vibrational energy       1842.8 (Joules/Mol)
                                    0.44045 (Kcal/Mol)
 Warning -- explicit consideration of   2 degrees of freedom as
           vibrations may cause significant error
 Vibrational temperatures:    221.64   221.64
          (Kelvin)

 Zero-point correction=                           0.000702 (Hartree/Particle)
 Thermal correction to Energy=                    0.004335
 Thermal correction to Enthalpy=                  0.005279
 Thermal correction to Gibbs Free Energy=        -0.021504
 Sum of electronic and zero-point Energies=           -100.761412
 Sum of electronic and thermal Energies=              -100.757778
 Sum of electronic and thermal Enthalpies=            -100.756834
 Sum of electronic and thermal Free Energies=         -100.783618

                     E (Thermal)             CV                S
                      KCal/Mol        Cal/Mol-Kelvin    Cal/Mol-Kelvin
 Total                    2.720              8.764             56.371
 Electronic               0.000              0.000              1.377
 Translational            0.889              2.981             35.068
 Rotational               0.592              1.987             14.682
 Vibrational              1.239              3.796              5.243
 Vibration     1          0.620              1.898              2.622
 Vibration     2          0.620              1.898              2.622

 Normal termination of Gaussian 16 at Fri Aug 22 18:55:14 2025.
