 Gaussian 16, Revision C.01,
 Gaussian 16:  ES64L-G16RevC.01  3-Jul-2019

 -----------------------------------------
 # sp b3lyp/6-311g** Force nosymm scf=(qc)
 -----------------------------------------

 -------------------
 Title Card Required
 -------------------
 Symbolic Z-matrix:
 Charge =  0 Multiplicity = 2

                          Input orientation:
 ---------------------------------------------------------------------
 Center     Atomic      Atomic             Coordinates (Angstroms)
 Number     Number       Type             X           Y           Z
 ---------------------------------------------------------------------
      1          1           0        0.000000    0.000000    0.000000
      2          1           0       -2.650000    0.000000    0.000000
      3          9           0        2.450000    0.000000    0.000000
 ---------------------------------------------------------------------

 SCF Done:  E(UB3LYP) =  -100.770999480     a.u. after   23 cycles

 Alpha  occ. eigenvalues --  -24.71442  -1.17669  -0.50536  -0.42455  -0.42455
 Alpha  occ. eigenvalues --   -0.33651
 Alpha virt. eigenvalues --   -0.11776   0.24561   0.33393   0.89849   0.93780
 Alpha virt. eigenvalues --    0.93780   1.06633   1.23952   1.23952   1.26199
 Alpha virt. eigenvalues --    1.38448   1.38448   1.44134   2.14984   2.33550

  Beta  occ. eigenvalues --  -24.68629  -1.09669  -0.39652  -0.39652  -0.35532
  Beta virt. eigenvalues --   -0.23172  -0.09042   0.25448   0.35319   0.95119
  Beta virt. eigenvalues --    0.95119   0.96211   1.09188   1.22107   1.22107
  Beta virt. eigenvalues --    1.31565   1.42626   1.42626   1.43676   2.14170

 Mulliken charges and spin densities:
               1          2
     1  H    0.088873  -0.869327
     2  H    0.008105   0.980700
     3  F   -0.096978   0.888627
 Sum of Mulliken charges =  -0.00000   1.00000

 Dipole moment (field-independent basis, Debye):
    X=             -1.3090    Y=             -0.0000    Z=             -0.0000  Tot=              1.3090
 Quadrupole moment (field-independent basis, Debye-Ang):
   XX=             -9.0349   YY=             -7.5944   ZZ=             -7.5944
   XY=              0.0000   XZ=              0.0000   YZ=             -0.0000

  Exact polarizability:      39.538       0.000       2.020       0.000      -0.000       2.020
 Approx polarizability:      44.763       0.000       1.919       0.000       0.000       1.919

 ******    2 imaginary frequencies (negative Signs) ******

                      1                      2                      3
                      A                      A                      A
 Frequencies --   -763.5589              -309.7450               305.0985
 Red. masses --      1.0306                 1.0823                 1.0189
 Frc consts  --      0.3540                 0.0612                 0.0559
 IR Inten    --     67.3702                14.3120                 6.7811

                      4
                      A
 Frequencies --    305.0985
 Red. masses --      1.0189
 Frc consts  --      0.0559
 IR Inten    --      6.7811

 - Thermochemistry -
 -------------------
 Temperature   298.150 Kelvin.  Pressure   1.00000 Atm.
 Atom     1 has atomic number  1 and mass   1.00783

 Molecular mass:    21.01405 amu.
 Principal axes and moments of inertia in atomic units:
                           1         2         3
     Eigenvalues --     0.00000 105.37424 105.37424
           X            1.00000  -0.00000   0.00000
           Y            0.00000   1.00000   0.00000
           Z            0.00000   0.00000   1.00000
 This molecule is a prolate symmetric top.
 Rotational symmetry number  1.
 Rotational temperature (Kelvin)      0.82196
 Rotational constant (GHZ):          17.126968
    2 imaginary frequencies ignored.
 Zero-point vibrational energy       3649.8 (Joules/Mol)
                                    0.87232 (Kcal/Mol)
 Warning -- explicit consideration of   2 degrees of freedom as
           vibrations may cause significant error
 Vibrational temperatures:    438.97   438.97
          (Kelvin)

 Zero-point correction=                           0.001390 (Hartree/Particle)
 Thermal correction to Energy=                    0.004578
 Thermal correction to Enthalpy=                  0.005522
 Thermal correction to Gibbs Free Energy=        -0.019623
 Sum of electronic and zero-point Energies=           -100.769609
 Sum of electronic and thermal Energies=              -100.766421
 Sum of electronic and thermal Enthalpies=            -100.765477
 Sum of electronic and thermal Free Energies=         -100.790622

                     E (Thermal)             CV                S
                      KCal/Mol        Cal/Mol-Kelvin    Cal/Mol-Kelvin
 Total                    2.873              8.296             52.922
 Electronic               0.000              0.000              1.377
 Translational            0.889              2.981             35.068
 Rotational               0.592              1.987             13.699
 Vibrational              1.392              3.328              2.778
 Vibration     1          0.696              1.664              1.389
 Vibration     2          0.696              1.664              1.389

 Normal termination of Gaussian 16 at Fri Aug 22 17:38:57 2025.
