 Gaussian 16, Revision C.01,
 Gaussian 16:  ES64L-G16RevC.01  3-Jul-2019

 -----------------------------------------
 # sp b3lyp/6-311g** Force nosymm scf=(qc)
 -----------------------------------------

 -------------------
 Title Card Required
 -------------------
 Symbolic Z-matrix:
 Charge =  0 Multiplicity = 2

                          Input orientation:
 ---------------------------------------------------------------------
 Center     Atomic      Atomic             Coordinates (Angstroms)
 Number     Number       Type             X           Y           Z
 ---------------------------------------------------------------------
      1          1           0        0.000000    0.000000    0.000000
      2          1           0       -2.800000    0.000000    0.000000
      3          9           0        1.850000    0.000000    0.000000
 ---------------------------------------------------------------------

 SCF Done:  E(UB3LYP) =  -100.800824817     a.u. after   21 cycles

 Alpha  occ. eigenvalues --  -24.66929  -1.13174  -0.45802  -0.38633  -0.38633
 Alpha  occ. eigenvalues --   -0.34555
 Alpha virt. eigenvalues --   -0.14530   0.22965   0.30023   0.91956   0.94908
 Alpha virt. eigenvalues --    0.94908   1.06119   1.23013   1.23013   1.24307
 Alpha virt. eigenvalues --    1.34050   1.34050   1.67757   2.13949   2.27231

  Beta  occ. eigenvalues --  -24.64875  -1.07492  -0.38847  -0.36623  -0.36623
  Beta virt. eigenvalues --   -0.19719  -0.08836   0.23505   0.35994   0.93052
  Beta virt. eigenvalues --    0.95090   0.95090   1.08339   1.23338   1.23338
  Beta virt. eigenvalues --    1.43199   1.43202   1.43202   1.62814   2.13141

 Mulliken charges and spin densities:
               1          2
     1  H    0.229286  -0.631646
     2  H    0.010316   0.985671
     3  F   -0.239602   0.645975
 Sum of Mulliken charges =   0.00000   1.00000

 Dipole moment (field-independent basis, Debye):
    X=             -2.3084    Y=             -0.0000    Z=              0.0000  Tot=              2.3084
 Quadrupole moment (field-independent basis, Debye-Ang):
   XX=             -9.7739   YY=             -7.4688   ZZ=             -7.4688
   XY=             -0.0000   XZ=              0.0000   YZ=             -0.0000

  Exact polarizability:      30.012      -0.000       2.087       0.000      -0.000       2.087
 Approx polarizability:      40.669      -0.000       1.978       0.000       0.000       1.978

 ******    2 imaginary frequencies (negative Signs) ******

                      1                      2                      3
                      A                      A                      A
 Frequencies --  -1428.2801              -272.3250               605.7338
 Red. masses --      1.0536                 1.0579                 1.0237
 Frc consts  --      1.2664                 0.0462                 0.2213
 IR Inten    --    113.5851                 4.9676                45.8753

                      4
                      A
 Frequencies --    605.7338
 Red. masses --      1.0237
 Frc consts  --      0.2213
 IR Inten    --     45.8753

 - Thermochemistry -
 -------------------
 Temperature   298.150 Kelvin.  Pressure   1.00000 Atm.
 Atom     1 has atomic number  1 and mass   1.00783

 Molecular mass:    21.01405 amu.
 Principal axes and moments of inertia in atomic units:
                           1         2         3
     Eigenvalues --     0.00000  82.84453  82.84453
           X            1.00000  -0.00000   0.00000
           Y            0.00000   1.00000   0.00000
           Z            0.00000   0.00000   1.00000
 This molecule is a prolate symmetric top.
 Rotational symmetry number  1.
 Rotational temperature (Kelvin)      1.04550
 Rotational constant (GHZ):          21.784676
    2 imaginary frequencies ignored.
 Zero-point vibrational energy       7246.2 (Joules/Mol)
                                    1.73188 (Kcal/Mol)
 Warning -- explicit consideration of   2 degrees of freedom as
           vibrations may cause significant error
 Vibrational temperatures:    871.52   871.52
          (Kelvin)

 Zero-point correction=                           0.002760 (Hartree/Particle)
 Thermal correction to Energy=                    0.005434
 Thermal correction to Enthalpy=                  0.006378
 Thermal correction to Gibbs Free Energy=        -0.017638
 Sum of electronic and zero-point Energies=           -100.798065
 Sum of electronic and thermal Energies=              -100.795391
 Sum of electronic and thermal Enthalpies=            -100.794447
 Sum of electronic and thermal Free Energies=         -100.818463

                     E (Thermal)             CV                S
                      KCal/Mol        Cal/Mol-Kelvin    Cal/Mol-Kelvin
 Total                    3.410              7.007             50.546
 Electronic               0.000              0.000              1.377
 Translational            0.889              2.981             35.068
 Rotational               0.592              1.987             13.221
 Vibrational              1.929              2.039              0.880
 Vibration     1          0.964              1.020              0.440
 Vibration     2          0.964              1.020              0.440

 Normal termination of Gaussian 16 at Fri Aug 22 16:47:30 2025.
