 Gaussian 16, Revision C.01,
 Gaussian 16:  ES64L-G16RevC.01  3-Jul-2019

 -----------------------------------------
 # sp b3lyp/6-311g** Force nosymm scf=(qc)
 -----------------------------------------

 -------------------
 Title Card Required
 -------------------
 Symbolic Z-matrix:
 Charge =  0 Multiplicity = 2

                          Input orientation:
 ---------------------------------------------------------------------
 Center     Atomic      Atomic             Coordinates (Angstroms)
 Number     Number       Type             X           Y           Z
 ---------------------------------------------------------------------
      1          1           0        0.000000    0.000000    0.000000
      2          1           0       -3.150000    0.000000    0.000000
      3          9           0        3.650000    0.000000    0.000000
 ---------------------------------------------------------------------

 SCF Done:  E(UB3LYP) =  -100.759395270     a.u. after   30 cycles

 Alpha  occ. eigenvalues --  -24.75610  -1.21557  -0.54734  -0.45955  -0.45955
 Alpha  occ. eigenvalues --   -0.32364
 Alpha virt. eigenvalues --   -0.07532   0.24763   0.36600   0.87184   0.91341
 Alpha virt. eigenvalues --    0.91341   1.01485   1.25158   1.25158   1.25629
 Alpha virt. eigenvalues --    1.44467   1.44626   1.44626   2.15559   2.40068

  Beta  occ. eigenvalues --  -24.72482  -1.12565  -0.42820  -0.42820  -0.32701
  Beta virt. eigenvalues --   -0.25599  -0.07132   0.24554   0.37234   0.92834
  Beta virt. eigenvalues --    0.92834   0.96421   1.05549   1.24776   1.24776
  Beta virt. eigenvalues --    1.25220   1.45093   1.45259   1.45259   2.15724

 Mulliken charges and spin densities:
               1          2
     1  H    0.007067  -0.986661
     2  H    0.000333   0.994859
     3  F   -0.007401   0.991803
 Sum of Mulliken charges =  -0.00000   1.00000

 Dipole moment (field-independent basis, Debye):
    X=             -0.1441    Y=             -0.0000    Z=             -0.0000  Tot=              0.1441
 Quadrupole moment (field-independent basis, Debye-Ang):
   XX=             -7.1511   YY=             -7.6305   ZZ=             -7.6305
   XY=             -0.0000   XZ=             -0.0000   YZ=             -0.0000

  Exact polarizability:      20.988       0.000       2.012       0.000       0.000       2.012
 Approx polarizability:      15.753       0.000       1.933       0.000      -0.000       1.933

 ******    2 imaginary frequencies (negative Signs) ******

                      1                      2                      3
                      A                      A                      A
 Frequencies --   -297.2122              -108.6263               108.9803
 Red. masses --      1.0110                 1.1047                 1.0163
 Frc consts  --      0.0526                 0.0077                 0.0071
 IR Inten    --      4.2864                 2.2667                 0.0583

                      4
                      A
 Frequencies --    108.9807
 Red. masses --      1.0163
 Frc consts  --      0.0071
 IR Inten    --      0.0583

 - Thermochemistry -
 -------------------
 Temperature   298.150 Kelvin.  Pressure   1.00000 Atm.
 Atom     1 has atomic number  1 and mass   1.00783

 Molecular mass:    21.01405 amu.
 Principal axes and moments of inertia in atomic units:
                           1         2         3
     Eigenvalues --     0.00000 195.51684 195.51684
           X            1.00000  -0.00000   0.00000
           Y            0.00000   1.00000   0.00000
           Z            0.00000   0.00000   1.00000
 This molecule is a prolate symmetric top.
 Rotational symmetry number  1.
 Rotational temperature (Kelvin)      0.44300
 Rotational constant (GHZ):           9.230618
    2 imaginary frequencies ignored.
 Zero-point vibrational energy       1303.7 (Joules/Mol)
                                    0.31159 (Kcal/Mol)
 Warning -- explicit consideration of   2 degrees of freedom as
           vibrations may cause significant error
 Vibrational temperatures:    156.80   156.80
          (Kelvin)

 Zero-point correction=                           0.000497 (Hartree/Particle)
 Thermal correction to Energy=                    0.004292
 Thermal correction to Enthalpy=                  0.005236
 Thermal correction to Gibbs Free Energy=        -0.022296
 Sum of electronic and zero-point Energies=           -100.758899
 Sum of electronic and thermal Energies=              -100.755103
 Sum of electronic and thermal Enthalpies=            -100.754159
 Sum of electronic and thermal Free Energies=         -100.781691

                     E (Thermal)             CV                S
                      KCal/Mol        Cal/Mol-Kelvin    Cal/Mol-Kelvin
 Total                    2.693              8.852             57.947
 Electronic               0.000              0.000              1.377
 Translational            0.889              2.981             35.068
 Rotational               0.592              1.987             14.927
 Vibrational              1.212              3.884              6.574
 Vibration     1          0.606              1.942              3.287
 Vibration     2          0.606              1.942              3.287

 Normal termination of Gaussian 16 at Fri Aug 22 23:37:31 2025.
