 Gaussian 16, Revision C.01,
 Gaussian 16:  ES64L-G16RevC.01  3-Jul-2019

 -----------------------------------------
 # sp b3lyp/6-311g** Force nosymm scf=(qc)
 -----------------------------------------

 -------------------
 Title Card Required
 -------------------
 Symbolic Z-matrix:
 Charge =  0 Multiplicity = 2

                          Input orientation:
 ---------------------------------------------------------------------
 Center     Atomic      Atomic             Coordinates (Angstroms)
 Number     Number       Type             X           Y           Z
 ---------------------------------------------------------------------
      1          1           0        0.000000    0.000000    0.000000
      2          1           0       -1.200000    0.000000    0.000000
      3          9           0        1.850000    0.000000    0.000000
 ---------------------------------------------------------------------

 SCF Done:  E(UB3LYP) =  -100.882431558     a.u. after   13 cycles

 Alpha  occ. eigenvalues --  -24.70853  -1.17271  -0.51071  -0.42103  -0.42103
 Alpha  occ. eigenvalues --   -0.39753
 Alpha virt. eigenvalues --   -0.04162   0.21322   0.33055   0.90999   0.92134
 Alpha virt. eigenvalues --    0.92134   1.05912   1.10029   1.10029   1.44387
 Alpha virt. eigenvalues --    1.51591   1.51591   2.08315   2.27456   2.53590

  Beta  occ. eigenvalues --  -24.68216  -1.09869  -0.39774  -0.39498  -0.39498
  Beta virt. eigenvalues --   -0.24331  -0.02122   0.22658   0.33648   0.93190
  Beta virt. eigenvalues --    0.93190   0.97112   1.08973   1.11958   1.11958
  Beta virt. eigenvalues --    1.48017   1.52738   1.52738   2.10531   2.29167

 Mulliken charges and spin densities:
               1          2
     1  H    0.075838  -0.146966
     2  H    0.058603   0.323615
     3  F   -0.134441   0.823351
 Sum of Mulliken charges =  -0.00000   1.00000

 Dipole moment (field-independent basis, Debye):
    X=             -1.5424    Y=              0.0000    Z=             -0.0000  Tot=              1.5424
 Quadrupole moment (field-independent basis, Debye-Ang):
   XX=             -7.1824   YY=             -7.3246   ZZ=             -7.3246
   XY=              0.0000   XZ=             -0.0000   YZ=             -0.0000

  Exact polarizability:      40.123       0.000       2.217      -0.000      -0.000       2.217
 Approx polarizability:      60.260      -0.000       2.200       0.000       0.000       2.200

 ******    1 imaginary frequencies (negative Signs) ******

                      1                      2                      3
                      A                      A                      A
 Frequencies --  -1743.6398                65.6087              1342.7807
 Red. masses --      1.0198                 1.0944                 1.0136
 Frc consts  --      1.8267                 0.0028                 1.0767
 IR Inten    --   1166.0826                 4.5313                 0.7315

                      4
                      A
 Frequencies --   1342.7807
 Red. masses --      1.0136
 Frc consts  --      1.0767
 IR Inten    --      0.7315

 - Thermochemistry -
 -------------------
 Temperature   298.150 Kelvin.  Pressure   1.00000 Atm.
 Atom     1 has atomic number  1 and mass   1.00783

 Molecular mass:    21.01405 amu.
 Principal axes and moments of inertia in atomic units:
                           1         2         3
     Eigenvalues --     0.00000  41.65309  41.65309
           X            1.00000  -0.00000   0.00000
           Y            0.00000   1.00000   0.00000
           Z            0.00000   0.00000   1.00000
 This molecule is a prolate symmetric top.
 Rotational symmetry number  1.
 Rotational temperature (Kelvin)      2.07941
 Rotational constant (GHZ):          43.327905
    1 imaginary frequencies ignored.
 Zero-point vibrational energy      16455.7 (Joules/Mol)
                                    3.93300 (Kcal/Mol)
 Warning -- explicit consideration of   1 degrees of freedom as
           vibrations may cause significant error
 Vibrational temperatures:     94.40  1931.96  1931.96
          (Kelvin)

 Zero-point correction=                           0.006268 (Hartree/Particle)
 Thermal correction to Energy=                    0.009449
 Thermal correction to Enthalpy=                  0.010394
 Thermal correction to Gibbs Free Energy=        -0.014611
 Sum of electronic and zero-point Energies=           -100.876164
 Sum of electronic and thermal Energies=              -100.872982
 Sum of electronic and thermal Enthalpies=            -100.872038
 Sum of electronic and thermal Free Energies=         -100.897043

                     E (Thermal)             CV                S
                      KCal/Mol        Cal/Mol-Kelvin    Cal/Mol-Kelvin
 Total                    5.930              7.195             52.627
 Electronic               0.000              0.000              1.377
 Translational            0.889              2.981             35.068
 Rotational               0.592              1.987             11.855
 Vibrational              4.448              2.227              4.327
 Vibration     1          0.597              1.971              4.281

 Normal termination of Gaussian 16 at Fri Aug 22 16:45:58 2025.
