 Gaussian 16, Revision C.01,
 Gaussian 16:  ES64L-G16RevC.01  3-Jul-2019

 -----------------------------------------
 # sp b3lyp/6-311g** Force nosymm scf=(qc)
 -----------------------------------------

 -------------------
 Title Card Required
 -------------------
 Symbolic Z-matrix:
 Charge =  0 Multiplicity = 2

                          Input orientation:
 ---------------------------------------------------------------------
 Center     Atomic      Atomic             Coordinates (Angstroms)
 Number     Number       Type             X           Y           Z
 ---------------------------------------------------------------------
      1          1           0        0.000000    0.000000    0.000000
      2          1           0       -2.350000    0.000000    0.000000
      3          9           0        3.850000    0.000000    0.000000
 ---------------------------------------------------------------------

 SCF Done:  E(UB3LYP) =  -100.764567400     a.u. after   39 cycles

 Alpha  occ. eigenvalues --  -24.75849  -1.21779  -0.54973  -0.46159  -0.46159
 Alpha  occ. eigenvalues --   -0.32642
 Alpha virt. eigenvalues --   -0.09745   0.25915   0.34204   0.86746   0.91184
 Alpha virt. eigenvalues --    0.91184   1.01166   1.25090   1.25090   1.25937
 Alpha virt. eigenvalues --    1.40701   1.40701   1.43802   2.15233   2.35806

  Beta  occ. eigenvalues --  -24.72707  -1.12745  -0.43009  -0.43009  -0.32772
  Beta virt. eigenvalues --   -0.25733  -0.09528   0.25754   0.34516   0.92682
  Beta virt. eigenvalues --    0.92682   0.96094   1.05284   1.24945   1.24945
  Beta virt. eigenvalues --    1.25789   1.41011   1.41011   1.44086   2.15422

 Mulliken charges and spin densities:
               1          2
     1  H    0.001811  -0.948566
     2  H    0.001598   0.952481
     3  F   -0.003409   0.996084
 Sum of Mulliken charges =   0.00000   1.00000

 Dipole moment (field-independent basis, Debye):
    X=             -0.0852    Y=             -0.0000    Z=              0.0000  Tot=              0.0852
 Quadrupole moment (field-independent basis, Debye-Ang):
   XX=             -6.6672   YY=             -7.6821   ZZ=             -7.6821
   XY=             -0.0000   XZ=              0.0000   YZ=              0.0000

  Exact polarizability:      25.299      -0.000       2.017       0.000      -0.000       2.017
 Approx polarizability:      19.669      -0.000       1.931       0.000      -0.000       1.931

 ******    2 imaginary frequencies (negative Signs) ******

                      1                      2                      3
                      A                      A                      A
 Frequencies --   -820.4728               -87.0521               310.5056
 Red. masses --      1.0078                 1.1085                 1.0131
 Frc consts  --      0.3997                 0.0049                 0.0575
 IR Inten    --      1.2051                 1.3777                 0.0014

                      4
                      A
 Frequencies --    310.5056
 Red. masses --      1.0131
 Frc consts  --      0.0575
 IR Inten    --      0.0014

 - Thermochemistry -
 -------------------
 Temperature   298.150 Kelvin.  Pressure   1.00000 Atm.
 Atom     1 has atomic number  1 and mass   1.00783

 Molecular mass:    21.01405 amu.
 Principal axes and moments of inertia in atomic units:
                           1         2         3
     Eigenvalues --     0.00000 174.25846 174.25846
           X            1.00000  -0.00000   0.00000
           Y            0.00000   1.00000   0.00000
           Z            0.00000   0.00000   1.00000
 This molecule is a prolate symmetric top.
 Rotational symmetry number  1.
 Rotational temperature (Kelvin)      0.49704
 Rotational constant (GHZ):          10.356692
    2 imaginary frequencies ignored.
 Zero-point vibrational energy       3714.5 (Joules/Mol)
                                    0.88778 (Kcal/Mol)
 Warning -- explicit consideration of   2 degrees of freedom as
           vibrations may cause significant error
 Vibrational temperatures:    446.75   446.75
          (Kelvin)

 Zero-point correction=                           0.001415 (Hartree/Particle)
 Thermal correction to Energy=                    0.004590
 Thermal correction to Enthalpy=                  0.005534
 Thermal correction to Gibbs Free Energy=        -0.020058
 Sum of electronic and zero-point Energies=           -100.763153
 Sum of electronic and thermal Energies=              -100.759978
 Sum of electronic and thermal Enthalpies=            -100.759034
 Sum of electronic and thermal Free Energies=         -100.784626

                     E (Thermal)             CV                S
                      KCal/Mol        Cal/Mol-Kelvin    Cal/Mol-Kelvin
 Total                    2.880              8.275             53.863
 Electronic               0.000              0.000              1.377
 Translational            0.889              2.981             35.068
 Rotational               0.592              1.987             14.699
 Vibrational              1.399              3.307              2.719
 Vibration     1          0.699              1.654              1.360
 Vibration     2          0.699              1.654              1.360

 Normal termination of Gaussian 16 at Sat Aug 23 01:08:47 2025.
