 Gaussian 16, Revision C.01,
 Gaussian 16:  ES64L-G16RevC.01  3-Jul-2019

 -----------------------------------------
 # sp b3lyp/6-311g** Force nosymm scf=(qc)
 -----------------------------------------

 -------------------
 Title Card Required
 -------------------
 Symbolic Z-matrix:
 Charge =  0 Multiplicity = 2

                          Input orientation:
 ---------------------------------------------------------------------
 Center     Atomic      Atomic             Coordinates (Angstroms)
 Number     Number       Type             X           Y           Z
 ---------------------------------------------------------------------
      1          1           0        0.000000    0.000000    0.000000
      2          1           0       -2.850000    0.000000    0.000000
      3          9           0        2.900000    0.000000    0.000000
 ---------------------------------------------------------------------

 SCF Done:  E(UB3LYP) =  -100.763205936     a.u. after   19 cycles

 Alpha  occ. eigenvalues --  -24.73734  -1.19817  -0.52851  -0.44379  -0.44379
 Alpha  occ. eigenvalues --   -0.32885
 Alpha virt. eigenvalues --   -0.09703   0.24817   0.34521   0.89792   0.92487
 Alpha virt. eigenvalues --    0.92487   1.04551   1.24674   1.24674   1.25882
 Alpha virt. eigenvalues --    1.41476   1.41476   1.42306   2.15547   2.37973

  Beta  occ. eigenvalues --  -24.70732  -1.11223  -0.41376  -0.41376  -0.34025
  Beta virt. eigenvalues --   -0.24579  -0.08103   0.24978   0.36156   0.93939
  Beta virt. eigenvalues --    0.93939   0.98370   1.08297   1.23357   1.23357
  Beta virt. eigenvalues --    1.24887   1.43965   1.43965   1.44210   2.15990

 Mulliken charges and spin densities:
               1          2
     1  H    0.041681  -0.939795
     2  H    0.002750   0.989004
     3  F   -0.044432   0.950791
 Sum of Mulliken charges =  -0.00000   1.00000

 Dipole moment (field-independent basis, Debye):
    X=             -0.6985    Y=             -0.0000    Z=              0.0000  Tot=              0.6985
 Quadrupole moment (field-independent basis, Debye-Ang):
   XX=             -8.3352   YY=             -7.6235   ZZ=             -7.6235
   XY=              0.0000   XZ=             -0.0000   YZ=              0.0000

  Exact polarizability:      37.393       0.000       2.019      -0.000       0.000       2.019
 Approx polarizability:      37.449       0.000       1.922      -0.000      -0.000       1.922

 ******    2 imaginary frequencies (negative Signs) ******

                      1                      2                      3
                      A                      A                      A
 Frequencies --   -516.4160              -218.0759               193.5321
 Red. masses --      1.0223                 1.0915                 1.0177
 Frc consts  --      0.1606                 0.0306                 0.0225
 IR Inten    --     38.3143                 9.2709                 1.5191

                      4
                      A
 Frequencies --    193.5321
 Red. masses --      1.0177
 Frc consts  --      0.0225
 IR Inten    --      1.5191

 - Thermochemistry -
 -------------------
 Temperature   298.150 Kelvin.  Pressure   1.00000 Atm.
 Atom     1 has atomic number  1 and mass   1.00783

 Molecular mass:    21.01405 amu.
 Principal axes and moments of inertia in atomic units:
                           1         2         3
     Eigenvalues --     0.00000 136.34500 136.34500
           X            1.00000  -0.00000   0.00000
           Y            0.00000   1.00000   0.00000
           Z            0.00000   0.00000   1.00000
 This molecule is a prolate symmetric top.
 Rotational symmetry number  1.
 Rotational temperature (Kelvin)      0.63526
 Rotational constant (GHZ):          13.236578
    2 imaginary frequencies ignored.
 Zero-point vibrational energy       2315.2 (Joules/Mol)
                                    0.55334 (Kcal/Mol)
 Warning -- explicit consideration of   2 degrees of freedom as
           vibrations may cause significant error
 Vibrational temperatures:    278.45   278.45
          (Kelvin)

 Zero-point correction=                           0.000882 (Hartree/Particle)
 Thermal correction to Energy=                    0.004384
 Thermal correction to Enthalpy=                  0.005328
 Thermal correction to Gibbs Free Energy=        -0.020825
 Sum of electronic and zero-point Energies=           -100.762324
 Sum of electronic and thermal Energies=              -100.758822
 Sum of electronic and thermal Enthalpies=            -100.757878
 Sum of electronic and thermal Free Energies=         -100.784031

                     E (Thermal)             CV                S
                      KCal/Mol        Cal/Mol-Kelvin    Cal/Mol-Kelvin
 Total                    2.751              8.666             55.044
 Electronic               0.000              0.000              1.377
 Translational            0.889              2.981             35.068
 Rotational               0.592              1.987             14.211
 Vibrational              1.270              3.698              4.387
 Vibration     1          0.635              1.849              2.194
 Vibration     2          0.635              1.849              2.194

 Normal termination of Gaussian 16 at Fri Aug 22 19:04:06 2025.
