 Gaussian 16, Revision C.01,
 Gaussian 16:  ES64L-G16RevC.01  3-Jul-2019

 -----------------------------------------
 # sp b3lyp/6-311g** Force nosymm scf=(qc)
 -----------------------------------------

 -------------------
 Title Card Required
 -------------------
 Symbolic Z-matrix:
 Charge =  0 Multiplicity = 2

                          Input orientation:
 ---------------------------------------------------------------------
 Center     Atomic      Atomic             Coordinates (Angstroms)
 Number     Number       Type             X           Y           Z
 ---------------------------------------------------------------------
      1          1           0        0.000000    0.000000    0.000000
      2          1           0       -1.600000    0.000000    0.000000
      3          9           0        3.550000    0.000000    0.000000
 ---------------------------------------------------------------------

 SCF Done:  E(UB3LYP) =  -100.806134735     a.u. after  347 cycles

 Alpha  occ. eigenvalues --  -24.76333  -1.22215  -0.55416  -0.46603  -0.46571
 Alpha  occ. eigenvalues --   -0.33256
 Alpha virt. eigenvalues --   -0.10234   0.25421   0.30548   0.85970   0.90847
 Alpha virt. eigenvalues --    0.91874   1.01190   1.06714   1.22417   1.22419
 Alpha virt. eigenvalues --    1.39514   1.39518   1.74646   2.19471   2.44115

  Beta  occ. eigenvalues --  -24.73178  -1.13142  -0.43446  -0.43407  -0.33247
  Beta virt. eigenvalues --   -0.26062  -0.10262   0.25405   0.30624   0.92348
  Beta virt. eigenvalues --    0.93331   0.95437   1.05277   1.06717   1.22408
  Beta virt. eigenvalues --    1.22412   1.39507   1.39509   1.74688   2.19665

 Mulliken charges and spin densities:
               1          2
     1  H    0.000618  -0.451885
     2  H   -0.002844   0.451805
     3  F    0.002225   1.000080
 Sum of Mulliken charges =   0.00000   1.00000

 Dipole moment (field-independent basis, Debye):
    X=              0.0446    Y=             -0.0000    Z=              0.0000  Tot=              0.0446
 Quadrupole moment (field-independent basis, Debye-Ang):
   XX=             -6.4131   YY=             -6.9070   ZZ=             -7.7713
   XY=             -0.0001   XZ=             -0.0000   YZ=              0.0073

  Exact polarizability:      23.671      -0.000       2.488      -0.000       0.004       2.027
 Approx polarizability:      41.273      -0.000       2.587      -0.000       0.005       2.005

 ******    2 imaginary frequencies (negative Signs) ******

                      1                      2                      3
                      A                      A                      A
 Frequencies --  -2062.4473               -39.2032              1056.4140
 Red. masses --      1.0078                 1.1085                 1.0111
 Frc consts  --      2.5258                 0.0010                 0.6649
 IR Inten    --      0.0449                 0.1436                 0.0024

                      4
                      A
 Frequencies --   1058.4332
 Red. masses --      1.0111
 Frc consts  --      0.6674
 IR Inten    --      0.0004

 - Thermochemistry -
 -------------------
 Temperature   298.150 Kelvin.  Pressure   1.00000 Atm.
 Atom     1 has atomic number  1 and mass   1.00783

 Molecular mass:    21.01405 amu.
 Principal axes and moments of inertia in atomic units:
                           1         2         3
     Eigenvalues --     0.00000 127.74659 127.74659
           X            1.00000  -0.00000   0.00000
           Y            0.00000   1.00000   0.00000
           Z            0.00000   0.00000   1.00000
 This molecule is a prolate symmetric top.
 Rotational symmetry number  1.
 Rotational temperature (Kelvin)      0.67801
 Rotational constant (GHZ):          14.127510
    2 imaginary frequencies ignored.
 Zero-point vibrational energy      12649.6 (Joules/Mol)
                                    3.02333 (Kcal/Mol)
 Vibrational temperatures:   1519.94  1522.85
          (Kelvin)

 Zero-point correction=                           0.004818 (Hartree/Particle)
 Thermal correction to Energy=                    0.007237
 Thermal correction to Enthalpy=                  0.008182
 Thermal correction to Gibbs Free Energy=        -0.015896
 Sum of electronic and zero-point Energies=           -100.801317
 Sum of electronic and thermal Energies=              -100.798897
 Sum of electronic and thermal Enthalpies=            -100.797953
 Sum of electronic and thermal Free Energies=         -100.822031

                     E (Thermal)             CV                S
                      KCal/Mol        Cal/Mol-Kelvin    Cal/Mol-Kelvin
 Total                    4.542              5.605             50.675
 Electronic               0.000              0.000              1.377
 Translational            0.889              2.981             35.068
 Rotational               0.592              1.987             14.082
 Vibrational              3.060              0.637              0.148

 Normal termination of Gaussian 16 at Fri Aug 22 22:37:04 2025.
