 Gaussian 16, Revision C.01,
 Gaussian 16:  ES64L-G16RevC.01  3-Jul-2019

 -----------------------------------------
 # sp b3lyp/6-311g** Force nosymm scf=(qc)
 -----------------------------------------

 -------------------
 Title Card Required
 -------------------
 Symbolic Z-matrix:
 Charge =  0 Multiplicity = 2

                          Input orientation:
 ---------------------------------------------------------------------
 Center     Atomic      Atomic             Coordinates (Angstroms)
 Number     Number       Type             X           Y           Z
 ---------------------------------------------------------------------
      1          1           0        0.000000    0.000000    0.000000
      2          1           0       -2.550000    0.000000    0.000000
      3          9           0        3.100000    0.000000    0.000000
 ---------------------------------------------------------------------

 SCF Done:  E(UB3LYP) =  -100.763763069     a.u. after   23 cycles

 Alpha  occ. eigenvalues --  -24.74490  -1.20517  -0.53608  -0.45012  -0.45012
 Alpha  occ. eigenvalues --   -0.32927
 Alpha virt. eigenvalues --   -0.10061   0.25393   0.33844   0.89138   0.92032
 Alpha virt. eigenvalues --    0.92032   1.03374   1.24706   1.24706   1.26480
 Alpha virt. eigenvalues --    1.40599   1.40599   1.41997   2.15591   2.36985

  Beta  occ. eigenvalues --  -24.71436  -1.11759  -0.41954  -0.41954  -0.33580
  Beta virt. eigenvalues --   -0.25016  -0.09019   0.25408   0.35080   0.93502
  Beta virt. eigenvalues --    0.93502   0.98012   1.07296   1.23918   1.23918
  Beta virt. eigenvalues --    1.25519   1.42278   1.42278   1.43619   2.16502

 Mulliken charges and spin densities:
               1          2
     1  H    0.024742  -0.942200
     2  H    0.004241   0.974432
     3  F   -0.028983   0.967768
 Sum of Mulliken charges =  -0.00000   1.00000

 Dipole moment (field-independent basis, Debye):
    X=             -0.5128    Y=              0.0000    Z=             -0.0000  Tot=              0.5128
 Quadrupole moment (field-independent basis, Debye-Ang):
   XX=             -7.7851   YY=             -7.6520   ZZ=             -7.6520
   XY=              0.0000   XZ=             -0.0000   YZ=              0.0000

  Exact polarizability:      41.475       0.000       2.017      -0.000       0.000       2.017
 Approx polarizability:      36.019       0.000       1.924      -0.000      -0.000       1.924

 ******    2 imaginary frequencies (negative Signs) ******

                      1                      2                      3
                      A                      A                      A
 Frequencies --   -651.7121              -211.4598               242.1935
 Red. masses --      1.0096                 1.1064                 1.0157
 Frc consts  --      0.2526                 0.0291                 0.0351
 IR Inten    --     19.2284                15.7382                 0.4766

                      4
                      A
 Frequencies --    242.1935
 Red. masses --      1.0157
 Frc consts  --      0.0351
 IR Inten    --      0.4766

 - Thermochemistry -
 -------------------
 Temperature   298.150 Kelvin.  Pressure   1.00000 Atm.
 Atom     1 has atomic number  1 and mass   1.00783

 Molecular mass:    21.01405 amu.
 Principal axes and moments of inertia in atomic units:
                           1         2         3
     Eigenvalues --     0.00000 136.26061 136.26061
           X            1.00000  -0.00000   0.00000
           Y            0.00000   1.00000   0.00000
           Z            0.00000   0.00000   1.00000
 This molecule is a prolate symmetric top.
 Rotational symmetry number  1.
 Rotational temperature (Kelvin)      0.63565
 Rotational constant (GHZ):          13.244776
    2 imaginary frequencies ignored.
 Zero-point vibrational energy       2897.3 (Joules/Mol)
                                    0.69247 (Kcal/Mol)
 Warning -- explicit consideration of   2 degrees of freedom as
           vibrations may cause significant error
 Vibrational temperatures:    348.46   348.46
          (Kelvin)

 Zero-point correction=                           0.001104 (Hartree/Particle)
 Thermal correction to Energy=                    0.004459
 Thermal correction to Enthalpy=                  0.005403
 Thermal correction to Gibbs Free Energy=        -0.020363
 Sum of electronic and zero-point Energies=           -100.762660
 Sum of electronic and thermal Energies=              -100.759304
 Sum of electronic and thermal Enthalpies=            -100.758360
 Sum of electronic and thermal Free Energies=         -100.784126

                     E (Thermal)             CV                S
                      KCal/Mol        Cal/Mol-Kelvin    Cal/Mol-Kelvin
 Total                    2.798              8.519             54.229
 Electronic               0.000              0.000              1.377
 Translational            0.889              2.981             35.068
 Rotational               0.592              1.987             14.210
 Vibrational              1.317              3.551              3.573
 Vibration     1          0.658              1.776              1.787
 Vibration     2          0.658              1.776              1.787

 Normal termination of Gaussian 16 at Fri Aug 22 19:55:15 2025.
