 Gaussian 16, Revision C.01,
 Gaussian 16:  ES64L-G16RevC.01  3-Jul-2019

 -----------------------------------------
 # sp b3lyp/6-311g** Force nosymm scf=(qc)
 -----------------------------------------

 -------------------
 Title Card Required
 -------------------
 Symbolic Z-matrix:
 Charge =  0 Multiplicity = 2

                          Input orientation:
 ---------------------------------------------------------------------
 Center     Atomic      Atomic             Coordinates (Angstroms)
 Number     Number       Type             X           Y           Z
 ---------------------------------------------------------------------
      1          1           0        0.000000    0.000000    0.000000
      2          1           0       -2.850000    0.000000    0.000000
      3          9           0        1.600000    0.000000    0.000000
 ---------------------------------------------------------------------

 SCF Done:  E(UB3LYP) =  -100.834849118     a.u. after   10 cycles

 Alpha  occ. eigenvalues --  -24.64789  -1.10489  -0.43383  -0.36731  -0.36731
 Alpha  occ. eigenvalues --   -0.34916
 Alpha virt. eigenvalues --   -0.14964   0.21974   0.27944   0.94265   0.94265
 Alpha virt. eigenvalues --    1.00662   1.07483   1.22618   1.22618   1.23588
 Alpha virt. eigenvalues --    1.32297   1.32297   1.74773   2.13495   2.21513

  Beta  occ. eigenvalues --  -24.63912  -1.08134  -0.41263  -0.35889  -0.35889
  Beta virt. eigenvalues --   -0.17321  -0.08281   0.23398   0.36411   0.93961
  Beta virt. eigenvalues --    0.93961   1.01752   1.07748   1.27762   1.27762
  Beta virt. eigenvalues --    1.43639   1.43728   1.43728   1.72873   2.14820

 Mulliken charges and spin densities:
               1          2
     1  H    0.320171  -0.265491
     2  H    0.009942   0.988364
     3  F   -0.330112   0.277127
 Sum of Mulliken charges =  -0.00000   1.00000

 Dipole moment (field-independent basis, Debye):
    X=             -2.7150    Y=              0.0000    Z=             -0.0000  Tot=              2.7150
 Quadrupole moment (field-independent basis, Debye-Ang):
   XX=             -9.8013   YY=             -7.3772   ZZ=             -7.3772
   XY=              0.0000   XZ=             -0.0000   YZ=             -0.0000

  Exact polarizability:      23.923      -0.000       2.153       0.000      -0.000       2.153
 Approx polarizability:      37.455       0.000       2.067       0.000      -0.000       2.067

 ******    2 imaginary frequencies (negative Signs) ******

                      1                      2                      3
                      A                      A                      A
 Frequencies --  -1886.9952              -212.8924               895.2873
 Red. masses --      1.0552                 1.0564                 1.0262
 Frc consts  --      2.2137                 0.0282                 0.4846
 IR Inten    --     37.0942                 3.1913                92.2145

                      4
                      A
 Frequencies --    895.2873
 Red. masses --      1.0262
 Frc consts  --      0.4846
 IR Inten    --     92.2145

 - Thermochemistry -
 -------------------
 Temperature   298.150 Kelvin.  Pressure   1.00000 Atm.
 Atom     1 has atomic number  1 and mass   1.00783

 Molecular mass:    21.01405 amu.
 Principal axes and moments of inertia in atomic units:
                           1         2         3
     Eigenvalues --     0.00000  74.16498  74.16498
           X            1.00000  -0.00000   0.00000
           Y            0.00000   1.00000   0.00000
           Z            0.00000   0.00000   1.00000
 This molecule is a prolate symmetric top.
 Rotational symmetry number  1.
 Rotational temperature (Kelvin)      1.16785
 Rotational constant (GHZ):          24.334141
    2 imaginary frequencies ignored.
 Zero-point vibrational energy      10710.0 (Joules/Mol)
                                    2.55975 (Kcal/Mol)
 Vibrational temperatures:   1288.12  1288.12
          (Kelvin)

 Zero-point correction=                           0.004079 (Hartree/Particle)
 Thermal correction to Energy=                    0.006550
 Thermal correction to Enthalpy=                  0.007494
 Thermal correction to Gibbs Free Energy=        -0.016135
 Sum of electronic and zero-point Energies=           -100.830770
 Sum of electronic and thermal Energies=              -100.828299
 Sum of electronic and thermal Enthalpies=            -100.827355
 Sum of electronic and thermal Free Energies=         -100.850984

                     E (Thermal)             CV                S
                      KCal/Mol        Cal/Mol-Kelvin    Cal/Mol-Kelvin
 Total                    4.110              5.981             49.731
 Electronic               0.000              0.000              1.377
 Translational            0.889              2.981             35.068
 Rotational               0.592              1.987             13.001
 Vibrational              2.629              1.013              0.285

 Normal termination of Gaussian 16 at Fri Aug 22 16:31:55 2025.
