 Gaussian 16, Revision C.01,
 Gaussian 16:  ES64L-G16RevC.01  3-Jul-2019

 -----------------------------------------
 # sp b3lyp/6-311g** Force nosymm scf=(qc)
 -----------------------------------------

 -------------------
 Title Card Required
 -------------------
 Symbolic Z-matrix:
 Charge =  0 Multiplicity = 2

                          Input orientation:
 ---------------------------------------------------------------------
 Center     Atomic      Atomic             Coordinates (Angstroms)
 Number     Number       Type             X           Y           Z
 ---------------------------------------------------------------------
      1          1           0        0.000000    0.000000    0.000000
      2          1           0       -3.050000    0.000000    0.000000
      3          9           0        1.600000    0.000000    0.000000
 ---------------------------------------------------------------------

 SCF Done:  E(UB3LYP) =  -100.834446276     a.u. after   12 cycles

 Alpha  occ. eigenvalues --  -24.64835  -1.10503  -0.43366  -0.36766  -0.36766
 Alpha  occ. eigenvalues --   -0.34556
 Alpha virt. eigenvalues --   -0.15144   0.21398   0.28246   0.94218   0.94218
 Alpha virt. eigenvalues --    1.00550   1.07267   1.22971   1.22971   1.23463
 Alpha virt. eigenvalues --    1.32180   1.32180   1.74543   2.13639   2.21123

  Beta  occ. eigenvalues --  -24.63983  -1.08217  -0.41342  -0.35948  -0.35948
  Beta virt. eigenvalues --   -0.17239  -0.07844   0.22914   0.37060   0.93912
  Beta virt. eigenvalues --    0.93912   1.01504   1.07529   1.27709   1.27709
  Beta virt. eigenvalues --    1.44266   1.44626   1.44626   1.72555   2.14577

 Mulliken charges and spin densities:
               1          2
     1  H    0.324037  -0.261902
     2  H    0.006285   0.992789
     3  F   -0.330322   0.269112
 Sum of Mulliken charges =  -0.00000   1.00000

 Dipole moment (field-independent basis, Debye):
    X=             -2.6736    Y=              0.0000    Z=             -0.0000  Tot=              2.6736
 Quadrupole moment (field-independent basis, Debye-Ang):
   XX=             -9.9346   YY=             -7.3747   ZZ=             -7.3747
   XY=              0.0000   XZ=              0.0000   YZ=              0.0000

  Exact polarizability:      22.208       0.000       2.151      -0.000       0.000       2.151
 Approx polarizability:      36.178       0.000       2.064       0.000      -0.000       2.064

 ******    2 imaginary frequencies (negative Signs) ******

                      1                      2                      3
                      A                      A                      A
 Frequencies --  -1891.2172              -169.4668               899.9738
 Red. masses --      1.0564                 1.0552                 1.0273
 Frc consts  --      2.2261                 0.0179                 0.4902
 IR Inten    --     46.6709                 1.6742                96.3855

                      4
                      A
 Frequencies --    899.9738
 Red. masses --      1.0273
 Frc consts  --      0.4902
 IR Inten    --     96.3855

 - Thermochemistry -
 -------------------
 Temperature   298.150 Kelvin.  Pressure   1.00000 Atm.
 Atom     1 has atomic number  1 and mass   1.00783

 Molecular mass:    21.01405 amu.
 Principal axes and moments of inertia in atomic units:
                           1         2         3
     Eigenvalues --     0.00000  80.29057  80.29057
           X            1.00000  -0.00000   0.00000
           Y            0.00000   1.00000   0.00000
           Z            0.00000   0.00000   1.00000
 This molecule is a prolate symmetric top.
 Rotational symmetry number  1.
 Rotational temperature (Kelvin)      1.07876
 Rotational constant (GHZ):          22.477625
    2 imaginary frequencies ignored.
 Zero-point vibrational energy      10766.1 (Joules/Mol)
                                    2.57315 (Kcal/Mol)
 Vibrational temperatures:   1294.86  1294.86
          (Kelvin)

 Zero-point correction=                           0.004101 (Hartree/Particle)
 Thermal correction to Energy=                    0.006569
 Thermal correction to Enthalpy=                  0.007513
 Thermal correction to Gibbs Free Energy=        -0.016188
 Sum of electronic and zero-point Energies=           -100.830346
 Sum of electronic and thermal Energies=              -100.827877
 Sum of electronic and thermal Enthalpies=            -100.826933
 Sum of electronic and thermal Free Energies=         -100.850634

                     E (Thermal)             CV                S
                      KCal/Mol        Cal/Mol-Kelvin    Cal/Mol-Kelvin
 Total                    4.122              5.968             49.884
 Electronic               0.000              0.000              1.377
 Translational            0.889              2.981             35.068
 Rotational               0.592              1.987             13.159
 Vibrational              2.641              1.000              0.279

 Normal termination of Gaussian 16 at Fri Aug 22 16:32:05 2025.
