 Gaussian 16, Revision C.01,
 Gaussian 16:  ES64L-G16RevC.01  3-Jul-2019

 -----------------------------------------
 # sp b3lyp/6-311g** Force nosymm scf=(qc)
 -----------------------------------------

 -------------------
 Title Card Required
 -------------------
 Symbolic Z-matrix:
 Charge =  0 Multiplicity = 2

                          Input orientation:
 ---------------------------------------------------------------------
 Center     Atomic      Atomic             Coordinates (Angstroms)
 Number     Number       Type             X           Y           Z
 ---------------------------------------------------------------------
      1          1           0        0.000000    0.000000    0.000000
      2          1           0       -2.050000    0.000000    0.000000
      3          9           0        3.700000    0.000000    0.000000
 ---------------------------------------------------------------------

 SCF Done:  E(UB3LYP) =  -100.772333313     a.u. after   39 cycles

 Alpha  occ. eigenvalues --  -24.75797  -1.21731  -0.54922  -0.46118  -0.46118
 Alpha  occ. eigenvalues --   -0.32937
 Alpha virt. eigenvalues --   -0.10755   0.25964   0.32708   0.87027   0.91210
 Alpha virt. eigenvalues --    0.91210   1.01316   1.19066   1.25023   1.25023
 Alpha virt. eigenvalues --    1.38365   1.38365   1.49457   2.13316   2.36007

  Beta  occ. eigenvalues --  -24.72661  -1.12715  -0.42974  -0.42974  -0.33012
  Beta virt. eigenvalues --   -0.25731  -0.10568   0.25824   0.33039   0.92706
  Beta virt. eigenvalues --    0.92706   0.96312   1.05413   1.19036   1.24935
  Beta virt. eigenvalues --    1.24935   1.38617   1.38617   1.49637   2.13657

 Mulliken charges and spin densities:
               1          2
     1  H    0.001113  -0.872598
     2  H    0.003727   0.878276
     3  F   -0.004840   0.994321
 Sum of Mulliken charges =   0.00000   1.00000

 Dipole moment (field-independent basis, Debye):
    X=             -0.1278    Y=              0.0000    Z=             -0.0000  Tot=              0.1278
 Quadrupole moment (field-independent basis, Debye-Ang):
   XX=             -6.4828   YY=             -7.7206   ZZ=             -7.7206
   XY=              0.0000   XZ=             -0.0000   YZ=              0.0000

  Exact polarizability:      35.313       0.000       2.009      -0.000      -0.000       2.009
 Approx polarizability:      31.049       0.000       1.936      -0.000       0.000       1.936

 ******    2 imaginary frequencies (negative Signs) ******

                      1                      2                      3
                      A                      A                      A
 Frequencies --  -1263.8746              -103.6427               508.5617
 Red. masses --      1.0078                 1.1085                 1.0124
 Frc consts  --      0.9485                 0.0070                 0.1543
 IR Inten    --      3.5651                 2.7741                 0.0001

                      4
                      A
 Frequencies --    508.5617
 Red. masses --      1.0124
 Frc consts  --      0.1543
 IR Inten    --      0.0001

 - Thermochemistry -
 -------------------
 Temperature   298.150 Kelvin.  Pressure   1.00000 Atm.
 Atom     1 has atomic number  1 and mass   1.00783

 Molecular mass:    21.01405 amu.
 Principal axes and moments of inertia in atomic units:
                           1         2         3
     Eigenvalues --     0.00000 152.84842 152.84842
           X            1.00000  -0.00000   0.00000
           Y            0.00000   1.00000   0.00000
           Z            0.00000   0.00000   1.00000
 This molecule is a prolate symmetric top.
 Rotational symmetry number  1.
 Rotational temperature (Kelvin)      0.56667
 Rotational constant (GHZ):          11.807392
    2 imaginary frequencies ignored.
 Zero-point vibrational energy       6083.7 (Joules/Mol)
                                    1.45405 (Kcal/Mol)
 Warning -- explicit consideration of   2 degrees of freedom as
           vibrations may cause significant error
 Vibrational temperatures:    731.71   731.71
          (Kelvin)

 Zero-point correction=                           0.002317 (Hartree/Particle)
 Thermal correction to Energy=                    0.005113
 Thermal correction to Enthalpy=                  0.006058
 Thermal correction to Gibbs Free Energy=        -0.018724
 Sum of electronic and zero-point Energies=           -100.770016
 Sum of electronic and thermal Energies=              -100.767220
 Sum of electronic and thermal Enthalpies=            -100.766276
 Sum of electronic and thermal Free Energies=         -100.791058

                     E (Thermal)             CV                S
                      KCal/Mol        Cal/Mol-Kelvin    Cal/Mol-Kelvin
 Total                    3.209              7.430             52.158
 Electronic               0.000              0.000              1.377
 Translational            0.889              2.981             35.068
 Rotational               0.592              1.987             14.438
 Vibrational              1.727              2.462              1.274
 Vibration     1          0.864              1.231              0.637
 Vibration     2          0.864              1.231              0.637

 Normal termination of Gaussian 16 at Sat Aug 23 00:02:35 2025.
