 Gaussian 16, Revision C.01,
 Gaussian 16:  ES64L-G16RevC.01  3-Jul-2019

 -----------------------------------------
 # sp b3lyp/6-311g** Force nosymm scf=(qc)
 -----------------------------------------

 -------------------
 Title Card Required
 -------------------
 Symbolic Z-matrix:
 Charge =  0 Multiplicity = 2

                          Input orientation:
 ---------------------------------------------------------------------
 Center     Atomic      Atomic             Coordinates (Angstroms)
 Number     Number       Type             X           Y           Z
 ---------------------------------------------------------------------
      1          1           0        0.000000    0.000000    0.000000
      2          1           0       -0.650000    0.000000    0.000000
      3          9           0        2.950000    0.000000    0.000000
 ---------------------------------------------------------------------

 SCF Done:  E(UB3LYP) =  -100.927194690     a.u. after  135 cycles

 Alpha  occ. eigenvalues --  -24.76620  -1.22418  -0.55610  -0.46966  -0.46759
 Alpha  occ. eigenvalues --   -0.45076
 Alpha virt. eigenvalues --    0.08031   0.19408   0.50625   0.85860   0.90732
 Alpha virt. eigenvalues --    0.93941   1.07120   1.09641   1.09649   1.59899
 Alpha virt. eigenvalues --    1.86278   1.89445   1.89455   2.38362   3.64651

  Beta  occ. eigenvalues --  -24.73458  -1.13330  -0.45372  -0.43589  -0.43495
  Beta virt. eigenvalues --   -0.26230   0.08088   0.19443   0.50739   0.92231
  Beta virt. eigenvalues --    0.95317   0.95822   1.09640   1.09648   1.10695
  Beta virt. eigenvalues --    1.59916   1.86317   1.89444   1.89454   2.38369

 Mulliken charges and spin densities:
               1          2
     1  H   -0.007310  -0.001527
     2  H   -0.003106   0.000104
     3  F    0.010416   1.001423
 Sum of Mulliken charges =   0.00000   1.00000

 Dipole moment (field-independent basis, Debye):
    X=              0.0968    Y=              0.0000    Z=              0.0000  Tot=              0.0968
 Quadrupole moment (field-independent basis, Debye-Ang):
   XX=             -6.0274   YY=             -6.3876   ZZ=             -6.3873
   XY=             -0.0000   XZ=             -0.0000   YZ=              0.4317

  Exact polarizability:       7.420      -0.000       2.136      -0.000       0.229       2.137
 Approx polarizability:       8.118      -0.000       2.277      -0.000       0.288       2.277

 ******    2 imaginary frequencies (negative Signs) ******

                      1                      2                      3
                      A                      A                      A
 Frequencies --  -1944.5519             -1944.3782                68.8258
 Red. masses --      1.0088                 1.0088                 1.1085
 Frc consts  --      2.2475                 2.2471                 0.0031
 IR Inten    --      0.0272                 0.0250                 0.2161

                      4
                      A
 Frequencies --   5976.0940
 Red. masses --      1.0078
 Frc consts  --     21.2066
 IR Inten    --      0.4405

 - Thermochemistry -
 -------------------
 Temperature   298.150 Kelvin.  Pressure   1.00000 Atm.
 Atom     1 has atomic number  1 and mass   1.00783

 Molecular mass:    21.01405 amu.
 Principal axes and moments of inertia in atomic units:
                           1         2         3
     Eigenvalues --     0.00000  70.55825  70.55825
           X            1.00000  -0.00000   0.00000
           Y            0.00000   1.00000   0.00000
           Z            0.00000   0.00000   1.00000
 This molecule is a prolate symmetric top.
 Rotational symmetry number  1.
 Rotational temperature (Kelvin)      1.22755
 Rotational constant (GHZ):          25.578031
    2 imaginary frequencies ignored.
 Zero-point vibrational energy      36156.7 (Joules/Mol)
                                    8.64165 (Kcal/Mol)
 Warning -- explicit consideration of   1 degrees of freedom as
           vibrations may cause significant error
 Vibrational temperatures:     99.03  8598.27
          (Kelvin)

 Zero-point correction=                           0.013771 (Hartree/Particle)
 Thermal correction to Energy=                    0.016928
 Thermal correction to Enthalpy=                  0.017872
 Thermal correction to Gibbs Free Energy=        -0.007564
 Sum of electronic and zero-point Energies=           -100.913423
 Sum of electronic and thermal Energies=              -100.910267
 Sum of electronic and thermal Enthalpies=            -100.909323
 Sum of electronic and thermal Free Energies=         -100.934758

                     E (Thermal)             CV                S
                      KCal/Mol        Cal/Mol-Kelvin    Cal/Mol-Kelvin
 Total                   10.622              6.937             53.534
 Electronic               0.000              0.000              1.377
 Translational            0.889              2.981             35.068
 Rotational               0.592              1.987             12.902
 Vibrational              9.141              1.969              4.187
 Vibration     1          0.598              1.969              4.187

 Normal termination of Gaussian 16 at Fri Aug 22 19:07:58 2025.
