 Gaussian 16, Revision C.01,
 Gaussian 16:  ES64L-G16RevC.01  3-Jul-2019

 -----------------------------------------
 # sp b3lyp/6-311g** Force nosymm scf=(qc)
 -----------------------------------------

 -------------------
 Title Card Required
 -------------------
 Symbolic Z-matrix:
 Charge =  0 Multiplicity = 2

                          Input orientation:
 ---------------------------------------------------------------------
 Center     Atomic      Atomic             Coordinates (Angstroms)
 Number     Number       Type             X           Y           Z
 ---------------------------------------------------------------------
      1          1           0        0.000000    0.000000    0.000000
      2          1           0       -0.900000    0.000000    0.000000
      3          9           0        3.800000    0.000000    0.000000
 ---------------------------------------------------------------------

 SCF Done:  E(UB3LYP) =  -100.921835001     a.u. after   74 cycles

 Alpha  occ. eigenvalues --  -24.76234  -1.22122  -0.55325  -0.46505  -0.46481
 Alpha  occ. eigenvalues --   -0.40418
 Alpha virt. eigenvalues --    0.02601   0.20757   0.41601   0.86053   0.90930
 Alpha virt. eigenvalues --    0.91807   1.01132   1.08371   1.08373   1.45348
 Alpha virt. eigenvalues --    1.72257   1.72259   2.17086   2.37316   2.74176

  Beta  occ. eigenvalues --  -24.73078  -1.13047  -0.43343  -0.43317  -0.40416
  Beta virt. eigenvalues --   -0.25972   0.02607   0.20762   0.41625   0.92431
  Beta virt. eigenvalues --    0.93299   0.95519   1.05264   1.08371   1.08373
  Beta virt. eigenvalues --    1.45351   1.72257   1.72259   2.17092   2.37316

 Mulliken charges and spin densities:
               1          2
     1  H    0.000302  -0.000161
     2  H   -0.002036  -0.000030
     3  F    0.001734   1.000190
 Sum of Mulliken charges =   0.00000   1.00000

 Dipole moment (field-independent basis, Debye):
    X=              0.0274    Y=             -0.0000    Z=              0.0000  Tot=              0.0274
 Quadrupole moment (field-independent basis, Debye-Ang):
   XX=             -6.3062   YY=             -6.4145   ZZ=             -7.0209
   XY=              0.0000   XZ=             -0.0000   YZ=             -0.3081

  Exact polarizability:      10.310       0.000       2.423      -0.000      -0.166       2.096
 Approx polarizability:      12.856       0.000       2.584      -0.000      -0.208       2.175

 ******    1 imaginary frequencies (negative Signs) ******

                      1                      2                      3
                      A                      A                      A
 Frequencies --    -60.4181              1451.6057              1453.8188
 Red. masses --      1.1085                 1.0089                 1.0089
 Frc consts  --      0.0024                 1.2526                 1.2564
 IR Inten    --      0.0680                 0.0006                 0.0002

                      4
                      A
 Frequencies --   2642.6531
 Red. masses --      1.0078
 Frc consts  --      4.1468
 IR Inten    --      0.0571

 - Thermochemistry -
 -------------------
 Temperature   298.150 Kelvin.  Pressure   1.00000 Atm.
 Atom     1 has atomic number  1 and mass   1.00783

 Molecular mass:    21.01405 amu.
 Principal axes and moments of inertia in atomic units:
                           1         2         3
     Eigenvalues --     0.00000 119.00093 119.00093
           X            1.00000  -0.00000   0.00000
           Y            0.00000   1.00000   0.00000
           Z            0.00000   0.00000   1.00000
 This molecule is a prolate symmetric top.
 Rotational symmetry number  1.
 Rotational temperature (Kelvin)      0.72784
 Rotational constant (GHZ):          15.165774
    1 imaginary frequencies ignored.
 Zero-point vibrational energy      33184.9 (Joules/Mol)
                                    7.93138 (Kcal/Mol)
 Vibrational temperatures:   2088.54  2091.72  3802.19
          (Kelvin)

 Zero-point correction=                           0.012639 (Hartree/Particle)
 Thermal correction to Energy=                    0.015012
 Thermal correction to Enthalpy=                  0.015956
 Thermal correction to Gibbs Free Energy=        -0.007998
 Sum of electronic and zero-point Energies=           -100.909196
 Sum of electronic and thermal Energies=              -100.906823
 Sum of electronic and thermal Enthalpies=            -100.905879
 Sum of electronic and thermal Free Energies=         -100.929833

                     E (Thermal)             CV                S
                      KCal/Mol        Cal/Mol-Kelvin    Cal/Mol-Kelvin
 Total                    9.420              5.146             50.415
 Electronic               0.000              0.000              1.377
 Translational            0.889              2.981             35.068
 Rotational               0.592              1.987             13.941
 Vibrational              7.939              0.178              0.029

 Normal termination of Gaussian 16 at Sat Aug 23 00:31:29 2025.
