 Gaussian 16, Revision C.01,
 Gaussian 16:  ES64L-G16RevC.01  3-Jul-2019

 -----------------------------------------
 # sp b3lyp/6-311g** Force nosymm scf=(qc)
 -----------------------------------------

 -------------------
 Title Card Required
 -------------------
 Symbolic Z-matrix:
 Charge =  0 Multiplicity = 2

                          Input orientation:
 ---------------------------------------------------------------------
 Center     Atomic      Atomic             Coordinates (Angstroms)
 Number     Number       Type             X           Y           Z
 ---------------------------------------------------------------------
      1          1           0        0.000000    0.000000    0.000000
      2          1           0       -2.000000    0.000000    0.000000
      3          9           0        0.900000    0.000000    0.000000
 ---------------------------------------------------------------------

 SCF Done:  E(UB3LYP) =  -100.971880761     a.u. after    5 cycles

 Alpha  occ. eigenvalues --  -24.63710  -1.18834  -0.53902  -0.39418  -0.39418
 Alpha  occ. eigenvalues --   -0.35860
 Alpha virt. eigenvalues --    0.06662   0.24195   0.38489   0.94541   0.94541
 Alpha virt. eigenvalues --    0.97663   1.14918   1.21469   1.21469   1.37674
 Alpha virt. eigenvalues --    1.37674   1.50687   1.95832   2.20673   2.37739

  Beta  occ. eigenvalues --  -24.63651  -1.18684  -0.53579  -0.39368  -0.39368
  Beta virt. eigenvalues --   -0.11799   0.08667   0.34656   0.38748   0.94551
  Beta virt. eigenvalues --    0.94551   0.98062   1.24419   1.36710   1.36710
  Beta virt. eigenvalues --    1.42137   1.42137   1.59216   2.00248   2.35944

 Mulliken charges and spin densities:
               1          2
     1  H    0.282291   0.007098
     2  H    0.014030   0.977683
     3  F   -0.296321   0.015218
 Sum of Mulliken charges =   0.00000   1.00000

 Dipole moment (field-independent basis, Debye):
    X=             -2.0340    Y=              0.0000    Z=             -0.0000  Tot=              2.0340
 Quadrupole moment (field-independent basis, Debye-Ang):
   XX=             -7.5345   YY=             -6.8304   ZZ=             -6.8304
   XY=              0.0000   XZ=             -0.0000   YZ=              0.0000

  Exact polarizability:       8.939       0.000       2.485      -0.000      -0.000       2.485
 Approx polarizability:       9.405      -0.000       2.473      -0.000      -0.000       2.473

 ******    2 imaginary frequencies (negative Signs) ******

                      1                      2                      3
                      A                      A                      A
 Frequencies --   -641.5165              -641.5165               220.5414
 Red. masses --      1.0298                 1.0298                 1.0529
 Frc consts  --      0.2497                 0.2497                 0.0302
 IR Inten    --    147.9062               147.9062                 1.3437

                      4
                      A
 Frequencies --   4404.7986
 Red. masses --      1.0586
 Frc consts  --     12.1019
 IR Inten    --    174.0583

 - Thermochemistry -
 -------------------
 Temperature   298.150 Kelvin.  Pressure   1.00000 Atm.
 Atom     1 has atomic number  1 and mass   1.00783

 Molecular mass:    21.01405 amu.
 Principal axes and moments of inertia in atomic units:
                           1         2         3
     Eigenvalues --     0.00000  30.69041  30.69041
           X            1.00000  -0.00000   0.00000
           Y            0.00000   1.00000   0.00000
           Z            0.00000   0.00000   1.00000
 This molecule is a prolate symmetric top.
 Rotational symmetry number  1.
 Rotational temperature (Kelvin)      2.82218
 Rotational constant (GHZ):          58.804718
    2 imaginary frequencies ignored.
 Zero-point vibrational energy      27665.7 (Joules/Mol)
                                    6.61226 (Kcal/Mol)
 Warning -- explicit consideration of   1 degrees of freedom as
           vibrations may cause significant error
 Vibrational temperatures:    317.31  6337.52
          (Kelvin)

 Zero-point correction=                           0.010537 (Hartree/Particle)
 Thermal correction to Energy=                    0.013427
 Thermal correction to Enthalpy=                  0.014371
 Thermal correction to Gibbs Free Energy=        -0.009218
 Sum of electronic and zero-point Energies=           -100.961343
 Sum of electronic and thermal Energies=              -100.958454
 Sum of electronic and thermal Enthalpies=            -100.957510
 Sum of electronic and thermal Free Energies=         -100.981099

                     E (Thermal)             CV                S
                      KCal/Mol        Cal/Mol-Kelvin    Cal/Mol-Kelvin
 Total                    8.426              6.778             49.648
 Electronic               0.000              0.000              1.377
 Translational            0.889              2.981             35.068
 Rotational               0.592              1.987             11.248
 Vibrational              6.944              1.810              1.955
 Vibration     1          0.647              1.810              1.955

 Normal termination of Gaussian 16 at Fri Aug 22 15:55:49 2025.
