 Gaussian 16, Revision C.01,
 Gaussian 16:  ES64L-G16RevC.01  3-Jul-2019

 -----------------------------------------
 # sp b3lyp/6-311g** Force nosymm scf=(qc)
 -----------------------------------------

 -------------------
 Title Card Required
 -------------------
 Symbolic Z-matrix:
 Charge =  0 Multiplicity = 2

                          Input orientation:
 ---------------------------------------------------------------------
 Center     Atomic      Atomic             Coordinates (Angstroms)
 Number     Number       Type             X           Y           Z
 ---------------------------------------------------------------------
      1          1           0        0.000000    0.000000    0.000000
      2          1           0       -3.600000    0.000000    0.000000
      3          9           0        2.350000    0.000000    0.000000
 ---------------------------------------------------------------------

 SCF Done:  E(UB3LYP) =  -100.771235592     a.u. after   14 cycles

 Alpha  occ. eigenvalues --  -24.70804  -1.17071  -0.49890  -0.41929  -0.41929
 Alpha  occ. eigenvalues --   -0.32996
 Alpha virt. eigenvalues --   -0.11188   0.23184   0.34554   0.88996   0.94076
 Alpha virt. eigenvalues --    0.94076   1.06241   1.24512   1.24512   1.24610
 Alpha virt. eigenvalues --    1.39071   1.39071   1.47241   2.14232   2.34816

  Beta  occ. eigenvalues --  -24.68055  -1.09276  -0.39195  -0.39195  -0.36019
  Beta virt. eigenvalues --   -0.22707  -0.06645   0.23603   0.37990   0.93673
  Beta virt. eigenvalues --    0.95342   0.95342   1.08328   1.21700   1.21700
  Beta virt. eigenvalues --    1.34972   1.45878   1.46132   1.46132   2.12038

 Mulliken charges and spin densities:
               1          2
     1  H    0.113951  -0.865687
     2  H    0.000835   0.998343
     3  F   -0.114787   0.867344
 Sum of Mulliken charges =  -0.00000   1.00000

 Dipole moment (field-independent basis, Debye):
    X=             -1.3773    Y=              0.0000    Z=              0.0000  Tot=              1.3773
 Quadrupole moment (field-independent basis, Debye-Ang):
   XX=             -9.5791   YY=             -7.5506   ZZ=             -7.5506
   XY=              0.0000   XZ=              0.0000   YZ=             -0.0000

  Exact polarizability:      29.340       0.000       2.031       0.000      -0.000       2.031
 Approx polarizability:      38.863       0.000       1.922       0.000       0.000       1.922

 ******    2 imaginary frequencies (negative Signs) ******

                      1                      2                      3
                      A                      A                      A
 Frequencies --   -725.4046              -107.8395               293.9721
 Red. masses --      1.0559                 1.0556                 1.0238
 Frc consts  --      0.3274                 0.0072                 0.0521
 IR Inten    --     93.3094                 0.1665                12.4447

                      4
                      A
 Frequencies --    293.9721
 Red. masses --      1.0238
 Frc consts  --      0.0521
 IR Inten    --     12.4447

 - Thermochemistry -
 -------------------
 Temperature   298.150 Kelvin.  Pressure   1.00000 Atm.
 Atom     1 has atomic number  1 and mass   1.00783

 Molecular mass:    21.01405 amu.
 Principal axes and moments of inertia in atomic units:
                           1         2         3
     Eigenvalues --     0.00000 135.39853 135.39853
           X            1.00000  -0.00000   0.00000
           Y            0.00000   1.00000   0.00000
           Z            0.00000   0.00000   1.00000
 This molecule is a prolate symmetric top.
 Rotational symmetry number  1.
 Rotational temperature (Kelvin)      0.63970
 Rotational constant (GHZ):          13.329104
    2 imaginary frequencies ignored.
 Zero-point vibrational energy       3516.7 (Joules/Mol)
                                    0.84051 (Kcal/Mol)
 Warning -- explicit consideration of   2 degrees of freedom as
           vibrations may cause significant error
 Vibrational temperatures:    422.96   422.96
          (Kelvin)

 Zero-point correction=                           0.001339 (Hartree/Particle)
 Thermal correction to Energy=                    0.004555
 Thermal correction to Enthalpy=                  0.005500
 Thermal correction to Gibbs Free Energy=        -0.019941
 Sum of electronic and zero-point Energies=           -100.769896
 Sum of electronic and thermal Energies=              -100.766680
 Sum of electronic and thermal Enthalpies=            -100.765736
 Sum of electronic and thermal Free Energies=         -100.791177

                     E (Thermal)             CV                S
                      KCal/Mol        Cal/Mol-Kelvin    Cal/Mol-Kelvin
 Total                    2.859              8.338             53.545
 Electronic               0.000              0.000              1.377
 Translational            0.889              2.981             35.068
 Rotational               0.592              1.987             14.197
 Vibrational              1.377              3.370              2.902
 Vibration     1          0.689              1.685              1.451
 Vibration     2          0.689              1.685              1.451

 Normal termination of Gaussian 16 at Fri Aug 22 17:27:49 2025.
