 Gaussian 16, Revision C.01,
 Gaussian 16:  ES64L-G16RevC.01  3-Jul-2019

 -----------------------------------------
 # sp b3lyp/6-311g** Force nosymm scf=(qc)
 -----------------------------------------

 -------------------
 Title Card Required
 -------------------
 Symbolic Z-matrix:
 Charge =  0 Multiplicity = 2

                          Input orientation:
 ---------------------------------------------------------------------
 Center     Atomic      Atomic             Coordinates (Angstroms)
 Number     Number       Type             X           Y           Z
 ---------------------------------------------------------------------
      1          1           0        0.000000    0.000000    0.000000
      2          1           0       -2.750000    0.000000    0.000000
      3          9           0        2.550000    0.000000    0.000000
 ---------------------------------------------------------------------

 SCF Done:  E(UB3LYP) =  -100.768272494     a.u. after   24 cycles

 Alpha  occ. eigenvalues --  -24.72039  -1.18233  -0.51142  -0.42957  -0.42957
 Alpha  occ. eigenvalues --   -0.33374
 Alpha virt. eigenvalues --   -0.11157   0.24564   0.33848   0.90072   0.93461
 Alpha virt. eigenvalues --    0.93461   1.06403   1.24206   1.24206   1.25961
 Alpha virt. eigenvalues --    1.39466   1.39466   1.43017   2.15201   2.34901

  Beta  occ. eigenvalues --  -24.69171  -1.10062  -0.40096  -0.40096  -0.35149
  Beta virt. eigenvalues --   -0.23551  -0.08616   0.25266   0.35738   0.94845
  Beta virt. eigenvalues --    0.94845   0.97209   1.09237   1.22344   1.22344
  Beta virt. eigenvalues --    1.28718   1.43299   1.43299   1.43921   2.14595

 Mulliken charges and spin densities:
               1          2
     1  H    0.076879  -0.892016
     2  H    0.005634   0.985445
     3  F   -0.082513   0.906572
 Sum of Mulliken charges =  -0.00000   1.00000

 Dipole moment (field-independent basis, Debye):
    X=             -1.1462    Y=             -0.0000    Z=              0.0000  Tot=              1.1462
 Quadrupole moment (field-independent basis, Debye-Ang):
   XX=             -8.9393   YY=             -7.6003   ZZ=             -7.6003
   XY=             -0.0000   XZ=              0.0000   YZ=              0.0000

  Exact polarizability:      38.276      -0.000       2.018       0.000       0.000       2.018
 Approx polarizability:      43.045      -0.000       1.918       0.000      -0.000       1.918

 ******    2 imaginary frequencies (negative Signs) ******

                      1                      2                      3
                      A                      A                      A
 Frequencies --   -678.8715              -273.8398               266.4872
 Red. masses --      1.0317                 1.0811                 1.0189
 Frc consts  --      0.2801                 0.0478                 0.0426
 IR Inten    --     63.8835                10.4256                 5.1758

                      4
                      A
 Frequencies --    266.4872
 Red. masses --      1.0189
 Frc consts  --      0.0426
 IR Inten    --      5.1758

 - Thermochemistry -
 -------------------
 Temperature   298.150 Kelvin.  Pressure   1.00000 Atm.
 Atom     1 has atomic number  1 and mass   1.00783

 Molecular mass:    21.01405 amu.
 Principal axes and moments of inertia in atomic units:
                           1         2         3
     Eigenvalues --     0.00000 113.86223 113.86223
           X            1.00000  -0.00000   0.00000
           Y            0.00000   1.00000   0.00000
           Z            0.00000   0.00000   1.00000
 This molecule is a prolate symmetric top.
 Rotational symmetry number  1.
 Rotational temperature (Kelvin)      0.76069
 Rotational constant (GHZ):          15.850218
    2 imaginary frequencies ignored.
 Zero-point vibrational energy       3187.9 (Joules/Mol)
                                    0.76193 (Kcal/Mol)
 Warning -- explicit consideration of   2 degrees of freedom as
           vibrations may cause significant error
 Vibrational temperatures:    383.42   383.42
          (Kelvin)

 Zero-point correction=                           0.001214 (Hartree/Particle)
 Thermal correction to Energy=                    0.004502
 Thermal correction to Enthalpy=                  0.005446
 Thermal correction to Gibbs Free Energy=        -0.019990
 Sum of electronic and zero-point Energies=           -100.767058
 Sum of electronic and thermal Energies=              -100.763770
 Sum of electronic and thermal Enthalpies=            -100.762826
 Sum of electronic and thermal Free Energies=         -100.788263

                     E (Thermal)             CV                S
                      KCal/Mol        Cal/Mol-Kelvin    Cal/Mol-Kelvin
 Total                    2.825              8.437             53.536
 Electronic               0.000              0.000              1.377
 Translational            0.889              2.981             35.068
 Rotational               0.592              1.987             13.853
 Vibrational              1.344              3.469              3.238
 Vibration     1          0.672              1.735              1.619
 Vibration     2          0.672              1.735              1.619

 Normal termination of Gaussian 16 at Fri Aug 22 17:54:33 2025.
