 Gaussian 16, Revision C.01,
 Gaussian 16:  ES64L-G16RevC.01  3-Jul-2019

 -----------------------------------------
 # sp b3lyp/6-311g** Force nosymm scf=(qc)
 -----------------------------------------

 -------------------
 Title Card Required
 -------------------
 Symbolic Z-matrix:
 Charge =  0 Multiplicity = 2

                          Input orientation:
 ---------------------------------------------------------------------
 Center     Atomic      Atomic             Coordinates (Angstroms)
 Number     Number       Type             X           Y           Z
 ---------------------------------------------------------------------
      1          1           0        0.000000    0.000000    0.000000
      2          1           0       -2.550000    0.000000    0.000000
      3          9           0        0.900000    0.000000    0.000000
 ---------------------------------------------------------------------

 SCF Done:  E(UB3LYP) =  -100.971758021     a.u. after    5 cycles

 Alpha  occ. eigenvalues --  -24.63908  -1.18970  -0.53827  -0.39576  -0.39576
 Alpha  occ. eigenvalues --   -0.34741
 Alpha virt. eigenvalues --    0.04298   0.25286   0.39433   0.94408   0.94408
 Alpha virt. eigenvalues --    0.97669   1.19530   1.22808   1.22808   1.37346
 Alpha virt. eigenvalues --    1.37346   1.38435   2.01387   2.13830   2.37499

  Beta  occ. eigenvalues --  -24.63894  -1.18934  -0.53767  -0.39564  -0.39564
  Beta virt. eigenvalues --   -0.09076   0.05885   0.37002   0.40068   0.94410
  Beta virt. eigenvalues --    0.94410   0.97747   1.29076   1.37325   1.37325
  Beta virt. eigenvalues --    1.45154   1.45154   1.52236   2.01327   2.36677

 Mulliken charges and spin densities:
               1          2
     1  H    0.291451   0.003183
     2  H    0.005442   0.992212
     3  F   -0.296892   0.004606
 Sum of Mulliken charges =   0.00000   1.00000

 Dipole moment (field-independent basis, Debye):
    X=             -1.9548    Y=              0.0000    Z=              0.0000  Tot=              1.9548
 Quadrupole moment (field-independent basis, Debye-Ang):
   XX=             -7.7089   YY=             -6.8626   ZZ=             -6.8626
   XY=              0.0000   XZ=              0.0000   YZ=             -0.0000

  Exact polarizability:       7.318      -0.000       2.452      -0.000       0.000       2.452
 Approx polarizability:       7.997       0.000       2.433       0.000       0.000       2.433

 ******    3 imaginary frequencies (negative Signs) ******

                      1                      2                      3
                      A                      A                      A
 Frequencies --   -625.1467              -625.1467               -36.2155
 Red. masses --      1.0337                 1.0337                 1.0531
 Frc consts  --      0.2380                 0.2380                 0.0008
 IR Inten    --    168.4025               168.4025                 0.5529

                      4
                      A
 Frequencies --   4425.9354
 Red. masses --      1.0584
 Frc consts  --     12.2157
 IR Inten    --    125.5295

 - Thermochemistry -
 -------------------
 Temperature   298.150 Kelvin.  Pressure   1.00000 Atm.
 Atom     1 has atomic number  1 and mass   1.00783

 Molecular mass:    21.01405 amu.
 Principal axes and moments of inertia in atomic units:
                           1         2         3
     Eigenvalues --     0.00000  42.48624  42.48624
           X            1.00000  -0.00000   0.00000
           Y            0.00000   1.00000   0.00000
           Z            0.00000   0.00000   1.00000
 This molecule is a prolate symmetric top.
 Rotational symmetry number  1.
 Rotational temperature (Kelvin)      2.03863
 Rotational constant (GHZ):          42.478250
    3 imaginary frequencies ignored.
 Zero-point vibrational energy      26473.0 (Joules/Mol)
                                    6.32719 (Kcal/Mol)
 Vibrational temperatures:   6367.93
          (Kelvin)

 Zero-point correction=                           0.010083 (Hartree/Particle)
 Thermal correction to Energy=                    0.012443
 Thermal correction to Enthalpy=                  0.013388
 Thermal correction to Gibbs Free Energy=        -0.009580
 Sum of electronic and zero-point Energies=           -100.961675
 Sum of electronic and thermal Energies=              -100.959315
 Sum of electronic and thermal Enthalpies=            -100.958370
 Sum of electronic and thermal Free Energies=         -100.981338

                     E (Thermal)             CV                S
                      KCal/Mol        Cal/Mol-Kelvin    Cal/Mol-Kelvin
 Total                    7.808              4.968             48.339
 Electronic               0.000              0.000              1.377
 Translational            0.889              2.981             35.068
 Rotational               0.592              1.987             11.894
 Vibrational              6.327              0.000              0.000

 Normal termination of Gaussian 16 at Fri Aug 22 15:56:11 2025.
