 Gaussian 16, Revision C.01,
 Gaussian 16:  ES64L-G16RevC.01  3-Jul-2019

 -----------------------------------------
 # sp b3lyp/6-311g** Force nosymm scf=(qc)
 -----------------------------------------

 -------------------
 Title Card Required
 -------------------
 Symbolic Z-matrix:
 Charge =  0 Multiplicity = 2

                          Input orientation:
 ---------------------------------------------------------------------
 Center     Atomic      Atomic             Coordinates (Angstroms)
 Number     Number       Type             X           Y           Z
 ---------------------------------------------------------------------
      1          1           0        0.000000    0.000000    0.000000
      2          1           0       -1.750000    0.000000    0.000000
      3          9           0        1.150000    0.000000    0.000000
 ---------------------------------------------------------------------

 SCF Done:  E(UB3LYP) =  -100.940501486     a.u. after    7 cycles

 Alpha  occ. eigenvalues --  -24.63526  -1.12531  -0.49174  -0.37176  -0.37176
 Alpha  occ. eigenvalues --   -0.37134
 Alpha virt. eigenvalues --    0.00402   0.22455   0.29711   0.93897   0.93897
 Alpha virt. eigenvalues --    1.00515   1.09184   1.18921   1.18921   1.37021
 Alpha virt. eigenvalues --    1.37021   1.51528   1.78420   2.20417   2.34969

  Beta  occ. eigenvalues --  -24.63279  -1.11909  -0.47714  -0.36952  -0.36952
  Beta virt. eigenvalues --   -0.15885   0.03573   0.27971   0.33042   0.93932
  Beta virt. eigenvalues --    0.93932   1.01200   1.17851   1.31618   1.31618
  Beta virt. eigenvalues --    1.41312   1.41312   1.56060   1.84312   2.30890

 Mulliken charges and spin densities:
               1          2
     1  H    0.319235  -0.012017
     2  H    0.036039   0.940227
     3  F   -0.355274   0.071790
 Sum of Mulliken charges =   0.00000   1.00000

 Dipole moment (field-independent basis, Debye):
    X=             -2.5773    Y=             -0.0000    Z=              0.0000  Tot=              2.5773
 Quadrupole moment (field-independent basis, Debye-Ang):
   XX=             -7.9941   YY=             -7.0085   ZZ=             -7.0085
   XY=             -0.0000   XZ=              0.0000   YZ=             -0.0000

  Exact polarizability:      15.854       0.000       2.428       0.000       0.000       2.428
 Approx polarizability:      18.830       0.000       2.401       0.000       0.000       2.401

 ******    1 imaginary frequencies (negative Signs) ******

                      1                      2                      3
                      A                      A                      A
 Frequencies --   -514.5752              1139.7723              1139.7723
 Red. masses --      1.0248                 1.0237                 1.0237
 Frc consts  --      0.1599                 0.7836                 0.7836
 IR Inten    --     43.3137                98.0037                98.0037

                      4
                      A
 Frequencies --   1144.8985
 Red. masses --      1.0887
 Frc consts  --      0.8408
 IR Inten    --    186.1935

 - Thermochemistry -
 -------------------
 Temperature   298.150 Kelvin.  Pressure   1.00000 Atm.
 Atom     1 has atomic number  1 and mass   1.00783

 Molecular mass:    21.01405 amu.
 Principal axes and moments of inertia in atomic units:
                           1         2         3
     Eigenvalues --     0.00000  32.19617  32.19617
           X            1.00000  -0.00000   0.00000
           Y            0.00000   1.00000   0.00000
           Z            0.00000   0.00000   1.00000
 This molecule is a prolate symmetric top.
 Rotational symmetry number  1.
 Rotational temperature (Kelvin)      2.69019
 Rotational constant (GHZ):          56.054538
    1 imaginary frequencies ignored.
 Zero-point vibrational energy      20482.7 (Joules/Mol)
                                    4.89549 (Kcal/Mol)
 Vibrational temperatures:   1639.88  1639.88  1647.25
          (Kelvin)

 Zero-point correction=                           0.007801 (Hartree/Particle)
 Thermal correction to Energy=                    0.010225
 Thermal correction to Enthalpy=                  0.011170
 Thermal correction to Gibbs Free Energy=        -0.011611
 Sum of electronic and zero-point Energies=           -100.932700
 Sum of electronic and thermal Energies=              -100.930276
 Sum of electronic and thermal Enthalpies=            -100.929332
 Sum of electronic and thermal Free Energies=         -100.952113

                     E (Thermal)             CV                S
                      KCal/Mol        Cal/Mol-Kelvin    Cal/Mol-Kelvin
 Total                    6.417              5.707             47.946
 Electronic               0.000              0.000              1.377
 Translational            0.889              2.981             35.068
 Rotational               0.592              1.987             11.343
 Vibrational              4.935              0.739              0.158

 Normal termination of Gaussian 16 at Fri Aug 22 16:07:33 2025.
