 Gaussian 16, Revision C.01,
 Gaussian 16:  ES64L-G16RevC.01  3-Jul-2019

 -----------------------------------------
 # sp b3lyp/6-311g** Force nosymm scf=(qc)
 -----------------------------------------

 -------------------
 Title Card Required
 -------------------
 Symbolic Z-matrix:
 Charge =  0 Multiplicity = 2

                          Input orientation:
 ---------------------------------------------------------------------
 Center     Atomic      Atomic             Coordinates (Angstroms)
 Number     Number       Type             X           Y           Z
 ---------------------------------------------------------------------
      1          1           0        0.000000    0.000000    0.000000
      2          1           0       -2.150000    0.000000    0.000000
      3          9           0        3.050000    0.000000    0.000000
 ---------------------------------------------------------------------

 SCF Done:  E(UB3LYP) =  -100.770760513     a.u. after   24 cycles

 Alpha  occ. eigenvalues --  -24.74431  -1.20461  -0.53549  -0.44962  -0.44962
 Alpha  occ. eigenvalues --   -0.33426
 Alpha virt. eigenvalues --   -0.11347   0.25574   0.32536   0.89404   0.92067
 Alpha virt. eigenvalues --    0.92067   1.03665   1.21998   1.24452   1.24452
 Alpha virt. eigenvalues --    1.37844   1.37844   1.45518   2.13166   2.35628

  Beta  occ. eigenvalues --  -24.71384  -1.11722  -0.41911  -0.41911  -0.33732
  Beta virt. eigenvalues --   -0.25011  -0.10593   0.25854   0.33310   0.93534
  Beta virt. eigenvalues --    0.93534   0.98223   1.07609   1.21667   1.24046
  Beta virt. eigenvalues --    1.24046   1.39037   1.39037   1.46517   2.14346

 Mulliken charges and spin densities:
               1          2
     1  H    0.019519  -0.879722
     2  H    0.010864   0.914016
     3  F   -0.030383   0.965706
 Sum of Mulliken charges =   0.00000   1.00000

 Dipole moment (field-independent basis, Debye):
    X=             -0.5867    Y=              0.0000    Z=              0.0000  Tot=              0.5867
 Quadrupole moment (field-independent basis, Debye-Ang):
   XX=             -7.4741   YY=             -7.6924   ZZ=             -7.6924
   XY=              0.0000   XZ=              0.0000   YZ=              0.0000

  Exact polarizability:      53.791       0.000       2.007       0.000      -0.000       2.007
 Approx polarizability:      46.738       0.000       1.926       0.000       0.000       1.926

 ******    2 imaginary frequencies (negative Signs) ******

                      1                      2                      3
                      A                      A                      A
 Frequencies --  -1114.6719              -230.7407               433.9470
 Red. masses --      1.0081                 1.1082                 1.0143
 Frc consts  --      0.7380                 0.0348                 0.1125
 IR Inten    --     25.1231                24.2835                 0.2006

                      4
                      A
 Frequencies --    433.9470
 Red. masses --      1.0143
 Frc consts  --      0.1125
 IR Inten    --      0.2006

 - Thermochemistry -
 -------------------
 Temperature   298.150 Kelvin.  Pressure   1.00000 Atm.
 Atom     1 has atomic number  1 and mass   1.00783

 Molecular mass:    21.01405 amu.
 Principal axes and moments of inertia in atomic units:
                           1         2         3
     Eigenvalues --     0.00000 119.04891 119.04891
           X            1.00000  -0.00000   0.00000
           Y            0.00000   1.00000   0.00000
           Z            0.00000   0.00000   1.00000
 This molecule is a prolate symmetric top.
 Rotational symmetry number  1.
 Rotational temperature (Kelvin)      0.72755
 Rotational constant (GHZ):          15.159662
    2 imaginary frequencies ignored.
 Zero-point vibrational energy       5191.2 (Joules/Mol)
                                    1.24072 (Kcal/Mol)
 Warning -- explicit consideration of   2 degrees of freedom as
           vibrations may cause significant error
 Vibrational temperatures:    624.35   624.35
          (Kelvin)

 Zero-point correction=                           0.001977 (Hartree/Particle)
 Thermal correction to Energy=                    0.004893
 Thermal correction to Enthalpy=                  0.005837
 Thermal correction to Gibbs Free Energy=        -0.018907
 Sum of electronic and zero-point Energies=           -100.768783
 Sum of electronic and thermal Energies=              -100.765867
 Sum of electronic and thermal Enthalpies=            -100.764923
 Sum of electronic and thermal Free Energies=         -100.789667

                     E (Thermal)             CV                S
                      KCal/Mol        Cal/Mol-Kelvin    Cal/Mol-Kelvin
 Total                    3.071              7.761             52.079
 Electronic               0.000              0.000              1.377
 Translational            0.889              2.981             35.068
 Rotational               0.592              1.987             13.942
 Vibrational              1.589              2.792              1.692
 Vibration     1          0.795              1.396              0.846
 Vibration     2          0.795              1.396              0.846

 Normal termination of Gaussian 16 at Fri Aug 22 19:43:46 2025.
