 Gaussian 16, Revision C.01,
 Gaussian 16:  ES64L-G16RevC.01  3-Jul-2019

 -----------------------------------------
 # sp b3lyp/6-311g** Force nosymm scf=(qc)
 -----------------------------------------

 -------------------
 Title Card Required
 -------------------
 Symbolic Z-matrix:
 Charge =  0 Multiplicity = 2

                          Input orientation:
 ---------------------------------------------------------------------
 Center     Atomic      Atomic             Coordinates (Angstroms)
 Number     Number       Type             X           Y           Z
 ---------------------------------------------------------------------
      1          1           0        0.000000    0.000000    0.000000
      2          1           0       -2.050000    0.000000    0.000000
      3          9           0        2.850000    0.000000    0.000000
 ---------------------------------------------------------------------

 SCF Done:  E(UB3LYP) =  -100.775388232     a.u. after   24 cycles

 Alpha  occ. eigenvalues --  -24.73707  -1.19788  -0.52823  -0.44352  -0.44352
 Alpha  occ. eigenvalues --   -0.33909
 Alpha virt. eigenvalues --   -0.11952   0.25344   0.32070   0.90109   0.92506
 Alpha virt. eigenvalues --    0.92506   1.04891   1.19045   1.24032   1.24032
 Alpha virt. eigenvalues --    1.36620   1.36620   1.47970   2.12239   2.35893

  Beta  occ. eigenvalues --  -24.70712  -1.11211  -0.41356  -0.41356  -0.34170
  Beta virt. eigenvalues --   -0.24627  -0.11115   0.26110   0.32572   0.93955
  Beta virt. eigenvalues --    0.93955   0.98602   1.08703   1.19150   1.23688
  Beta virt. eigenvalues --    1.23688   1.37957   1.37957   1.48969   2.13419

 Mulliken charges and spin densities:
               1          2
     1  H    0.027701  -0.832135
     2  H    0.017373   0.883308
     3  F   -0.045075   0.948827
 Sum of Mulliken charges =   0.00000   1.00000

 Dipole moment (field-independent basis, Debye):
    X=             -0.8283    Y=              0.0000    Z=             -0.0000  Tot=              0.8283
 Quadrupole moment (field-independent basis, Debye-Ang):
   XX=             -7.6719   YY=             -7.6933   ZZ=             -7.6933
   XY=              0.0000   XZ=             -0.0000   YZ=              0.0000

  Exact polarizability:      58.913      -0.000       2.004      -0.000       0.000       2.004
 Approx polarizability:      55.862      -0.000       1.927       0.000      -0.000       1.927

 ******    2 imaginary frequencies (negative Signs) ******

                      1                      2                      3
                      A                      A                      A
 Frequencies --  -1285.6289              -281.6212               511.5481
 Red. masses --      1.0082                 1.1080                 1.0144
 Frc consts  --      0.9818                 0.0518                 0.1564
 IR Inten    --     43.2292                35.5308                 0.3718

                      4
                      A
 Frequencies --    511.5481
 Red. masses --      1.0144
 Frc consts  --      0.1564
 IR Inten    --      0.3718

 - Thermochemistry -
 -------------------
 Temperature   298.150 Kelvin.  Pressure   1.00000 Atm.
 Atom     1 has atomic number  1 and mass   1.00783

 Molecular mass:    21.01405 amu.
 Principal axes and moments of inertia in atomic units:
                           1         2         3
     Eigenvalues --     0.00000 105.27794 105.27794
           X            1.00000  -0.00000   0.00000
           Y            0.00000   1.00000   0.00000
           Z            0.00000   0.00000   1.00000
 This molecule is a prolate symmetric top.
 Rotational symmetry number  1.
 Rotational temperature (Kelvin)      0.82272
 Rotational constant (GHZ):          17.142634
    2 imaginary frequencies ignored.
 Zero-point vibrational energy       6119.5 (Joules/Mol)
                                    1.46259 (Kcal/Mol)
 Warning -- explicit consideration of   2 degrees of freedom as
           vibrations may cause significant error
 Vibrational temperatures:    736.00   736.00
          (Kelvin)

 Zero-point correction=                           0.002331 (Hartree/Particle)
 Thermal correction to Energy=                    0.005123
 Thermal correction to Enthalpy=                  0.006067
 Thermal correction to Gibbs Free Energy=        -0.018356
 Sum of electronic and zero-point Energies=           -100.773057
 Sum of electronic and thermal Energies=              -100.770266
 Sum of electronic and thermal Enthalpies=            -100.769321
 Sum of electronic and thermal Free Energies=         -100.793744

                     E (Thermal)             CV                S
                      KCal/Mol        Cal/Mol-Kelvin    Cal/Mol-Kelvin
 Total                    3.215              7.417             51.402
 Electronic               0.000              0.000              1.377
 Translational            0.889              2.981             35.068
 Rotational               0.592              1.987             13.697
 Vibrational              1.733              2.449              1.260
 Vibration     1          0.867              1.224              0.630
 Vibration     2          0.867              1.224              0.630

 Normal termination of Gaussian 16 at Fri Aug 22 18:53:22 2025.
