 Gaussian 16, Revision C.01,
 Gaussian 16:  ES64L-G16RevC.01  3-Jul-2019

 -----------------------------------------
 # sp b3lyp/6-311g** Force nosymm scf=(qc)
 -----------------------------------------

 -------------------
 Title Card Required
 -------------------
 Symbolic Z-matrix:
 Charge =  0 Multiplicity = 2

                          Input orientation:
 ---------------------------------------------------------------------
 Center     Atomic      Atomic             Coordinates (Angstroms)
 Number     Number       Type             X           Y           Z
 ---------------------------------------------------------------------
      1          1           0        0.000000    0.000000    0.000000
      2          1           0       -3.550000    0.000000    0.000000
      3          9           0        1.650000    0.000000    0.000000
 ---------------------------------------------------------------------

 SCF Done:  E(UB3LYP) =  -100.823886321     a.u. after    9 cycles

 Alpha  occ. eigenvalues --  -24.64252  -1.08987  -0.41455  -0.36077  -0.36077
 Alpha  occ. eigenvalues --   -0.33987
 Alpha virt. eigenvalues --   -0.17843   0.19880   0.27426   0.94477   0.94477
 Alpha virt. eigenvalues --    0.98628   1.07143   1.23520   1.23520   1.23542
 Alpha virt. eigenvalues --    1.28448   1.28448   1.71803   2.12886   2.16722

  Beta  occ. eigenvalues --  -24.64274  -1.09046  -0.41490  -0.36098  -0.36098
  Beta virt. eigenvalues --   -0.17908  -0.06794   0.22779   0.38097   0.94489
  Beta virt. eigenvalues --    0.94489   0.98656   1.07148   1.28603   1.28603
  Beta virt. eigenvalues --    1.45606   1.46061   1.46061   1.71910   2.16109

 Mulliken charges and spin densities:
               1          2
     1  H    0.332223   0.009048
     2  H    0.002104   0.997810
     3  F   -0.334327  -0.006859
 Sum of Mulliken charges =  -0.00000   1.00000

 Dipole moment (field-independent basis, Debye):
    X=             -2.7458    Y=             -0.0000    Z=              0.0000  Tot=              2.7458
 Quadrupole moment (field-independent basis, Debye-Ang):
   XX=            -10.4385   YY=             -7.3966   ZZ=             -7.3966
   XY=             -0.0000   XZ=              0.0000   YZ=             -0.0000

  Exact polarizability:      19.052      -0.000       2.123      -0.000      -0.000       2.123
 Approx polarizability:      41.786       0.000       2.037      -0.000       0.000       2.037

 ******    2 imaginary frequencies (negative Signs) ******

                      1                      2                      3
                      A                      A                      A
 Frequencies --  -1189.8759               -84.4625               903.0462
 Red. masses --      1.0575                 1.0541                 1.0292
 Frc consts  --      0.8821                 0.0044                 0.4945
 IR Inten    --     38.8380                 0.3136               105.3076

                      4
                      A
 Frequencies --    903.0462
 Red. masses --      1.0292
 Frc consts  --      0.4945
 IR Inten    --    105.3076

 - Thermochemistry -
 -------------------
 Temperature   298.150 Kelvin.  Pressure   1.00000 Atm.
 Atom     1 has atomic number  1 and mass   1.00783

 Molecular mass:    21.01405 amu.
 Principal axes and moments of inertia in atomic units:
                           1         2         3
     Eigenvalues --     0.00000  99.01634  99.01634
           X            1.00000  -0.00000   0.00000
           Y            0.00000   1.00000   0.00000
           Z            0.00000   0.00000   1.00000
 This molecule is a prolate symmetric top.
 Rotational symmetry number  1.
 Rotational temperature (Kelvin)      0.87474
 Rotational constant (GHZ):          18.226700
    2 imaginary frequencies ignored.
 Zero-point vibrational energy      10802.8 (Joules/Mol)
                                    2.58194 (Kcal/Mol)
 Vibrational temperatures:   1299.28  1299.28
          (Kelvin)

 Zero-point correction=                           0.004115 (Hartree/Particle)
 Thermal correction to Energy=                    0.006582
 Thermal correction to Enthalpy=                  0.007526
 Thermal correction to Gibbs Free Energy=        -0.016372
 Sum of electronic and zero-point Energies=           -100.819772
 Sum of electronic and thermal Energies=              -100.817305
 Sum of electronic and thermal Enthalpies=            -100.816360
 Sum of electronic and thermal Free Energies=         -100.840258

                     E (Thermal)             CV                S
                      KCal/Mol        Cal/Mol-Kelvin    Cal/Mol-Kelvin
 Total                    4.130              5.960             50.297
 Electronic               0.000              0.000              1.377
 Translational            0.889              2.981             35.068
 Rotational               0.592              1.987             13.575
 Vibrational              2.649              0.992              0.276

 Normal termination of Gaussian 16 at Fri Aug 22 16:35:43 2025.
