 Gaussian 16, Revision C.01,
 Gaussian 16:  ES64L-G16RevC.01  3-Jul-2019

 -----------------------------------------
 # sp b3lyp/6-311g** Force nosymm scf=(qc)
 -----------------------------------------

 -------------------
 Title Card Required
 -------------------
 Symbolic Z-matrix:
 Charge =  0 Multiplicity = 2

                          Input orientation:
 ---------------------------------------------------------------------
 Center     Atomic      Atomic             Coordinates (Angstroms)
 Number     Number       Type             X           Y           Z
 ---------------------------------------------------------------------
      1          1           0        0.000000    0.000000    0.000000
      2          1           0       -1.900000    0.000000    0.000000
      3          9           0        2.400000    0.000000    0.000000
 ---------------------------------------------------------------------

 SCF Done:  E(UB3LYP) =  -100.788858213     a.u. after   18 cycles

 Alpha  occ. eigenvalues --  -24.71366  -1.17592  -0.50480  -0.42382  -0.42382
 Alpha  occ. eigenvalues --   -0.35359
 Alpha virt. eigenvalues --   -0.12877   0.24509   0.31673   0.89063   0.93814
 Alpha virt. eigenvalues --    0.93814   1.04813   1.20133   1.22493   1.22493
 Alpha virt. eigenvalues --    1.34650   1.34650   1.53969   2.11408   2.35761

  Beta  occ. eigenvalues --  -24.68565  -1.09629  -0.39592  -0.39592  -0.35502
  Beta virt. eigenvalues --   -0.23389  -0.11848   0.26591   0.31316   0.94933
  Beta virt. eigenvalues --    0.95139   0.95139   1.07840   1.22691   1.22691
  Beta virt. eigenvalues --    1.24109   1.36133   1.36133   1.54354   2.12138

 Mulliken charges and spin densities:
               1          2
     1  H    0.061385  -0.708538
     2  H    0.036383   0.823969
     3  F   -0.097768   0.884569
 Sum of Mulliken charges =  -0.00000   1.00000

 Dipole moment (field-independent basis, Debye):
    X=             -1.5222    Y=              0.0000    Z=             -0.0000  Tot=              1.5222
 Quadrupole moment (field-independent basis, Debye-Ang):
   XX=             -8.1112   YY=             -7.6538   ZZ=             -7.6538
   XY=              0.0000   XZ=             -0.0000   YZ=              0.0000

  Exact polarizability:      60.007      -0.000       2.016       0.000      -0.000       2.016
 Approx polarizability:      68.735       0.000       1.941      -0.000      -0.000       1.941

 ******    2 imaginary frequencies (negative Signs) ******

                      1                      2                      3
                      A                      A                      A
 Frequencies --  -1580.9369              -424.4190               655.6589
 Red. masses --      1.0093                 1.1067                 1.0154
 Frc consts  --      1.4863                 0.1175                 0.2572
 IR Inten    --    120.2465                52.5419                 1.7750

                      4
                      A
 Frequencies --    655.6589
 Red. masses --      1.0154
 Frc consts  --      0.2572
 IR Inten    --      1.7750

 - Thermochemistry -
 -------------------
 Temperature   298.150 Kelvin.  Pressure   1.00000 Atm.
 Atom     1 has atomic number  1 and mass   1.00783

 Molecular mass:    21.01405 amu.
 Principal axes and moments of inertia in atomic units:
                           1         2         3
     Eigenvalues --     0.00000  79.52763  79.52763
           X            1.00000  -0.00000   0.00000
           Y            0.00000   1.00000   0.00000
           Z            0.00000   0.00000   1.00000
 This molecule is a prolate symmetric top.
 Rotational symmetry number  1.
 Rotational temperature (Kelvin)      1.08910
 Rotational constant (GHZ):          22.693259
    2 imaginary frequencies ignored.
 Zero-point vibrational energy       7843.4 (Joules/Mol)
                                    1.87462 (Kcal/Mol)
 Vibrational temperatures:    943.35   943.35
          (Kelvin)

 Zero-point correction=                           0.002987 (Hartree/Particle)
 Thermal correction to Energy=                    0.005611
 Thermal correction to Enthalpy=                  0.006556
 Thermal correction to Gibbs Free Energy=        -0.017349
 Sum of electronic and zero-point Energies=           -100.785871
 Sum of electronic and thermal Energies=              -100.783247
 Sum of electronic and thermal Enthalpies=            -100.782303
 Sum of electronic and thermal Free Energies=         -100.806207

                     E (Thermal)             CV                S
                      KCal/Mol        Cal/Mol-Kelvin    Cal/Mol-Kelvin
 Total                    3.521              6.801             50.312
 Electronic               0.000              0.000              1.377
 Translational            0.889              2.981             35.068
 Rotational               0.592              1.987             13.140
 Vibrational              2.040              1.833              0.726

 Normal termination of Gaussian 16 at Fri Aug 22 17:32:03 2025.
