 Gaussian 16, Revision C.01,
 Gaussian 16:  ES64L-G16RevC.01  3-Jul-2019

 -----------------------------------------
 # sp b3lyp/6-311g** Force nosymm scf=(qc)
 -----------------------------------------

 -------------------
 Title Card Required
 -------------------
 Symbolic Z-matrix:
 Charge =  0 Multiplicity = 2

                          Input orientation:
 ---------------------------------------------------------------------
 Center     Atomic      Atomic             Coordinates (Angstroms)
 Number     Number       Type             X           Y           Z
 ---------------------------------------------------------------------
      1          1           0        0.000000    0.000000    0.000000
      2          1           0       -1.300000    0.000000    0.000000
      3          9           0        1.700000    0.000000    0.000000
 ---------------------------------------------------------------------

 SCF Done:  E(UB3LYP) =  -100.875550231     a.u. after   12 cycles

 Alpha  occ. eigenvalues --  -24.68434  -1.15025  -0.49358  -0.40119  -0.40119
 Alpha  occ. eigenvalues --   -0.39524
 Alpha virt. eigenvalues --   -0.05639   0.20983   0.31115   0.92568   0.92568
 Alpha virt. eigenvalues --    0.93229   1.04331   1.11782   1.11782   1.46113
 Alpha virt. eigenvalues --    1.46750   1.46750   2.00782   2.23794   2.50515

  Beta  occ. eigenvalues --  -24.66145  -1.08693  -0.40221  -0.37879  -0.37879
  Beta virt. eigenvalues --   -0.23472  -0.03007   0.23033   0.31772   0.93255
  Beta virt. eigenvalues --    0.93255   0.98372   1.07676   1.14993   1.14993
  Beta virt. eigenvalues --    1.48138   1.48138   1.50446   2.03824   2.25984

 Mulliken charges and spin densities:
               1          2
     1  H    0.135820  -0.213909
     2  H    0.068644   0.502343
     3  F   -0.204464   0.711566
 Sum of Mulliken charges =   0.00000   1.00000

 Dipole moment (field-independent basis, Debye):
    X=             -2.1150    Y=             -0.0000    Z=             -0.0000  Tot=              2.1150
 Quadrupole moment (field-independent basis, Debye-Ang):
   XX=             -7.6460   YY=             -7.3076   ZZ=             -7.3076
   XY=             -0.0000   XZ=             -0.0000   YZ=             -0.0000

  Exact polarizability:      40.518      -0.000       2.256      -0.000      -0.000       2.256
 Approx polarizability:      63.274       0.000       2.215       0.000       0.000       2.215

 ******    2 imaginary frequencies (negative Signs) ******

                      1                      2                      3
                      A                      A                      A
 Frequencies --  -2330.8894              -320.5648              1220.9160
 Red. masses --      1.0188                 1.0955                 1.0150
 Frc consts  --      3.2612                 0.0663                 0.8914
 IR Inten    --   1098.1967                 2.0675                 4.8127

                      4
                      A
 Frequencies --   1220.9160
 Red. masses --      1.0150
 Frc consts  --      0.8914
 IR Inten    --      4.8127

 - Thermochemistry -
 -------------------
 Temperature   298.150 Kelvin.  Pressure   1.00000 Atm.
 Atom     1 has atomic number  1 and mass   1.00783

 Molecular mass:    21.01405 amu.
 Principal axes and moments of inertia in atomic units:
                           1         2         3
     Eigenvalues --     0.00000  38.97932  38.97932
           X            1.00000  -0.00000   0.00000
           Y            0.00000   1.00000   0.00000
           Z            0.00000   0.00000   1.00000
 This molecule is a prolate symmetric top.
 Rotational symmetry number  1.
 Rotational temperature (Kelvin)      2.22205
 Rotational constant (GHZ):          46.299961
    2 imaginary frequencies ignored.
 Zero-point vibrational energy      14605.4 (Joules/Mol)
                                    3.49077 (Kcal/Mol)
 Vibrational temperatures:   1756.63  1756.63
          (Kelvin)

 Zero-point correction=                           0.005563 (Hartree/Particle)
 Thermal correction to Energy=                    0.007954
 Thermal correction to Enthalpy=                  0.008898
 Thermal correction to Gibbs Free Energy=        -0.014024
 Sum of electronic and zero-point Energies=           -100.869987
 Sum of electronic and thermal Energies=              -100.867596
 Sum of electronic and thermal Enthalpies=            -100.866652
 Sum of electronic and thermal Free Energies=         -100.889574

                     E (Thermal)             CV                S
                      KCal/Mol        Cal/Mol-Kelvin    Cal/Mol-Kelvin
 Total                    4.991              5.351             48.244
 Electronic               0.000              0.000              1.377
 Translational            0.889              2.981             35.068
 Rotational               0.592              1.987             11.723
 Vibrational              3.510              0.383              0.076

 Normal termination of Gaussian 16 at Fri Aug 22 16:36:47 2025.
