 Gaussian 16, Revision C.01,
 Gaussian 16:  ES64L-G16RevC.01  3-Jul-2019

 -----------------------------------------
 # sp b3lyp/6-311g** Force nosymm scf=(qc)
 -----------------------------------------

 -------------------
 Title Card Required
 -------------------
 Symbolic Z-matrix:
 Charge =  0 Multiplicity = 2

                          Input orientation:
 ---------------------------------------------------------------------
 Center     Atomic      Atomic             Coordinates (Angstroms)
 Number     Number       Type             X           Y           Z
 ---------------------------------------------------------------------
      1          1           0        0.000000    0.000000    0.000000
      2          1           0       -3.950000    0.000000    0.000000
      3          9           0        3.800000    0.000000    0.000000
 ---------------------------------------------------------------------

 SCF Done:  E(UB3LYP) =  -100.758502592     a.u. after   49 cycles

 Alpha  occ. eigenvalues --  -24.75748  -1.21685  -0.54873  -0.46072  -0.46072
 Alpha  occ. eigenvalues --   -0.32244
 Alpha virt. eigenvalues --   -0.05945   0.24184   0.37754   0.86852   0.91254
 Alpha virt. eigenvalues --    0.91254   1.01265   1.25251   1.25251   1.25276
 Alpha virt. eigenvalues --    1.46571   1.46571   1.47248   2.14605   2.42589

  Beta  occ. eigenvalues --  -24.72611  -1.12665  -0.42927  -0.42927  -0.32532
  Beta virt. eigenvalues --   -0.25666  -0.05841   0.23967   0.38214   0.92751
  Beta virt. eigenvalues --    0.92751   0.96154   1.05360   1.24933   1.24933
  Beta virt. eigenvalues --    1.24943   1.46675   1.46772   1.46772   2.14623

 Mulliken charges and spin densities:
               1          2
     1  H    0.004750  -0.994012
     2  H    0.000029   0.999291
     3  F   -0.004779   0.994721
 Sum of Mulliken charges =  -0.00000   1.00000

 Dipole moment (field-independent basis, Debye):
    X=             -0.0943    Y=             -0.0000    Z=             -0.0000  Tot=              0.0943
 Quadrupole moment (field-independent basis, Debye-Ang):
   XX=             -7.0710   YY=             -7.6189   ZZ=             -7.6189
   XY=             -0.0000   XZ=             -0.0000   YZ=             -0.0000

  Exact polarizability:      14.683      -0.000       2.033      -0.000      -0.000       2.033
 Approx polarizability:      10.824      -0.000       1.937      -0.000       0.000       1.937

 ******    2 imaginary frequencies (negative Signs) ******

                      1                      2                      3
                      A                      A                      A
 Frequencies --   -159.1856               -64.6528                48.2332
 Red. masses --      1.0326                 1.0800                 1.0184
 Frc consts  --      0.0154                 0.0027                 0.0014
 IR Inten    --      3.1416                 0.2430                 0.0223

                      4
                      A
 Frequencies --     48.2332
 Red. masses --      1.0184
 Frc consts  --      0.0014
 IR Inten    --      0.0223

 - Thermochemistry -
 -------------------
 Temperature   298.150 Kelvin.  Pressure   1.00000 Atm.
 Atom     1 has atomic number  1 and mass   1.00783

 Molecular mass:    21.01405 amu.
 Principal axes and moments of inertia in atomic units:
                           1         2         3
     Eigenvalues --     0.00000 245.10894 245.10894
           X            1.00000  -0.00000   0.00000
           Y            0.00000   1.00000   0.00000
           Z            0.00000   0.00000   1.00000
 This molecule is a prolate symmetric top.
 Rotational symmetry number  1.
 Rotational temperature (Kelvin)      0.35337
 Rotational constant (GHZ):           7.363017
    2 imaginary frequencies ignored.
 Zero-point vibrational energy        577.0 (Joules/Mol)
                                    0.13791 (Kcal/Mol)
 Warning -- explicit consideration of   2 degrees of freedom as
           vibrations may cause significant error
 Vibrational temperatures:     69.40    69.40
          (Kelvin)

 Zero-point correction=                           0.000220 (Hartree/Particle)
 Thermal correction to Energy=                    0.004257
 Thermal correction to Enthalpy=                  0.005202
 Thermal correction to Gibbs Free Energy=        -0.024066
 Sum of electronic and zero-point Energies=           -100.758283
 Sum of electronic and thermal Energies=              -100.754245
 Sum of electronic and thermal Enthalpies=            -100.753301
 Sum of electronic and thermal Free Energies=         -100.782569

                     E (Thermal)             CV                S
                      KCal/Mol        Cal/Mol-Kelvin    Cal/Mol-Kelvin
 Total                    2.672              8.925             61.599
 Electronic               0.000              0.000              1.377
 Translational            0.889              2.981             35.068
 Rotational               0.592              1.987             15.377
 Vibrational              1.190              3.957              9.777
 Vibration     1          0.595              1.978              4.889
 Vibration     2          0.595              1.978              4.889

 Normal termination of Gaussian 16 at Sat Aug 23 00:53:04 2025.
