 Gaussian 16, Revision C.01,
 Gaussian 16:  ES64L-G16RevC.01  3-Jul-2019

 -----------------------------------------
 # sp b3lyp/6-311g** Force nosymm scf=(qc)
 -----------------------------------------

 -------------------
 Title Card Required
 -------------------
 Symbolic Z-matrix:
 Charge =  0 Multiplicity = 2

                          Input orientation:
 ---------------------------------------------------------------------
 Center     Atomic      Atomic             Coordinates (Angstroms)
 Number     Number       Type             X           Y           Z
 ---------------------------------------------------------------------
      1          1           0        0.000000    0.000000    0.000000
      2          1           0       -2.850000    0.000000    0.000000
      3          9           0        2.850000    0.000000    0.000000
 ---------------------------------------------------------------------

 SCF Done:  E(UB3LYP) =  -100.763658875     a.u. after   20 cycles

 Alpha  occ. eigenvalues --  -24.73526  -1.19624  -0.52642  -0.44204  -0.44204
 Alpha  occ. eigenvalues --   -0.32932
 Alpha virt. eigenvalues --   -0.09855   0.24769   0.34471   0.89922   0.92610
 Alpha virt. eigenvalues --    0.92610   1.04862   1.24627   1.24627   1.25860
 Alpha virt. eigenvalues --    1.41283   1.41283   1.42264   2.15505   2.37702

  Beta  occ. eigenvalues --  -24.70540  -1.11078  -0.41218  -0.41218  -0.34163
  Beta virt. eigenvalues --   -0.24458  -0.08125   0.24998   0.36150   0.94057
  Beta virt. eigenvalues --    0.94057   0.98394   1.08544   1.23217   1.23217
  Beta virt. eigenvalues --    1.25006   1.43950   1.43950   1.44202   2.15838

 Mulliken charges and spin densities:
               1          2
     1  H    0.045888  -0.934835
     2  H    0.002957   0.989008
     3  F   -0.048845   0.945827
 Sum of Mulliken charges =  -0.00000   1.00000

 Dipole moment (field-independent basis, Debye):
    X=             -0.7541    Y=              0.0000    Z=              0.0000  Tot=              0.7541
 Quadrupole moment (field-independent basis, Debye-Ang):
   XX=             -8.4332   YY=             -7.6205   ZZ=             -7.6205
   XY=             -0.0000   XZ=             -0.0000   YZ=              0.0000

  Exact polarizability:      37.511      -0.000       2.019      -0.000      -0.000       2.019
 Approx polarizability:      38.400      -0.000       1.921      -0.000       0.000       1.921

 ******    2 imaginary frequencies (negative Signs) ******

                      1                      2                      3
                      A                      A                      A
 Frequencies --   -531.1248              -223.7361               200.0606
 Red. masses --      1.0243                 1.0892                 1.0179
 Frc consts  --      0.1703                 0.0321                 0.0240
 IR Inten    --     42.3650                 9.0095                 1.8484

                      4
                      A
 Frequencies --    200.0606
 Red. masses --      1.0179
 Frc consts  --      0.0240
 IR Inten    --      1.8484

 - Thermochemistry -
 -------------------
 Temperature   298.150 Kelvin.  Pressure   1.00000 Atm.
 Atom     1 has atomic number  1 and mass   1.00783

 Molecular mass:    21.01405 amu.
 Principal axes and moments of inertia in atomic units:
                           1         2         3
     Eigenvalues --     0.00000 133.54674 133.54674
           X            1.00000  -0.00000   0.00000
           Y            0.00000   1.00000   0.00000
           Z            0.00000   0.00000   1.00000
 This molecule is a prolate symmetric top.
 Rotational symmetry number  1.
 Rotational temperature (Kelvin)      0.64857
 Rotational constant (GHZ):          13.513930
    2 imaginary frequencies ignored.
 Zero-point vibrational energy       2393.3 (Joules/Mol)
                                    0.57200 (Kcal/Mol)
 Warning -- explicit consideration of   2 degrees of freedom as
           vibrations may cause significant error
 Vibrational temperatures:    287.84   287.84
          (Kelvin)

 Zero-point correction=                           0.000912 (Hartree/Particle)
 Thermal correction to Energy=                    0.004393
 Thermal correction to Enthalpy=                  0.005337
 Thermal correction to Gibbs Free Energy=        -0.020738
 Sum of electronic and zero-point Energies=           -100.762747
 Sum of electronic and thermal Energies=              -100.759266
 Sum of electronic and thermal Enthalpies=            -100.758321
 Sum of electronic and thermal Free Energies=         -100.784397

                     E (Thermal)             CV                S
                      KCal/Mol        Cal/Mol-Kelvin    Cal/Mol-Kelvin
 Total                    2.757              8.648             54.880
 Electronic               0.000              0.000              1.377
 Translational            0.889              2.981             35.068
 Rotational               0.592              1.987             14.170
 Vibrational              1.276              3.680              4.265
 Vibration     1          0.638              1.840              2.133
 Vibration     2          0.638              1.840              2.133

 Normal termination of Gaussian 16 at Fri Aug 22 18:54:15 2025.
