 Gaussian 16, Revision C.01,
 Gaussian 16:  ES64L-G16RevC.01  3-Jul-2019

 -----------------------------------------
 # sp b3lyp/6-311g** Force nosymm scf=(qc)
 -----------------------------------------

 -------------------
 Title Card Required
 -------------------
 Symbolic Z-matrix:
 Charge =  0 Multiplicity = 2

                          Input orientation:
 ---------------------------------------------------------------------
 Center     Atomic      Atomic             Coordinates (Angstroms)
 Number     Number       Type             X           Y           Z
 ---------------------------------------------------------------------
      1          1           0        0.000000    0.000000    0.000000
      2          1           0       -1.400000    0.000000    0.000000
      3          9           0        2.400000    0.000000    0.000000
 ---------------------------------------------------------------------

 SCF Done:  E(UB3LYP) =  -100.839786391     a.u. after   17 cycles

 Alpha  occ. eigenvalues --  -24.73531  -1.19648  -0.52772  -0.44241  -0.44241
 Alpha  occ. eigenvalues --   -0.36558
 Alpha virt. eigenvalues --   -0.09134   0.23245   0.31972   0.88453   0.92411
 Alpha virt. eigenvalues --    0.92411   1.04918   1.15739   1.15739   1.17554
 Alpha virt. eigenvalues --    1.43170   1.43170   1.88070   2.23358   2.49448

  Beta  occ. eigenvalues --  -24.70584  -1.11235  -0.41299  -0.41299  -0.36081
  Beta virt. eigenvalues --   -0.25117  -0.08234   0.24053   0.32314   0.93808
  Beta virt. eigenvalues --    0.93808   0.95365   1.07584   1.16416   1.16416
  Beta virt. eigenvalues --    1.20874   1.43709   1.43709   1.88818   2.24293

 Mulliken charges and spin densities:
               1          2
     1  H    0.017107  -0.179959
     2  H    0.039115   0.249430
     3  F   -0.056221   0.930530
 Sum of Mulliken charges =  -0.00000   1.00000

 Dipole moment (field-independent basis, Debye):
    X=             -0.9390    Y=              0.0000    Z=             -0.0000  Tot=              0.9390
 Quadrupole moment (field-independent basis, Debye-Ang):
   XX=             -6.7046   YY=             -7.6060   ZZ=             -7.6060
   XY=              0.0000   XZ=             -0.0000   YZ=              0.0000

  Exact polarizability:      52.957       0.000       2.084      -0.000       0.000       2.084
 Approx polarizability:      74.901      -0.000       2.069       0.000      -0.000       2.069

 ******    2 imaginary frequencies (negative Signs) ******

                      1                      2                      3
                      A                      A                      A
 Frequencies --  -1751.3746              -286.9178              1252.2538
 Red. masses --      1.0093                 1.1067                 1.0127
 Frc consts  --      1.8241                 0.0537                 0.9357
 IR Inten    --    807.2177                20.0968                 0.0001

                      4
                      A
 Frequencies --   1252.2538
 Red. masses --      1.0127
 Frc consts  --      0.9357
 IR Inten    --      0.0001

 - Thermochemistry -
 -------------------
 Temperature   298.150 Kelvin.  Pressure   1.00000 Atm.
 Atom     1 has atomic number  1 and mass   1.00783

 Molecular mass:    21.01405 amu.
 Principal axes and moments of inertia in atomic units:
                           1         2         3
     Eigenvalues --     0.00000  66.06496  66.06496
           X            1.00000  -0.00000   0.00000
           Y            0.00000   1.00000   0.00000
           Z            0.00000   0.00000   1.00000
 This molecule is a prolate symmetric top.
 Rotational symmetry number  1.
 Rotational temperature (Kelvin)      1.31104
 Rotational constant (GHZ):          27.317675
    2 imaginary frequencies ignored.
 Zero-point vibrational energy      14980.3 (Joules/Mol)
                                    3.58037 (Kcal/Mol)
 Vibrational temperatures:   1801.71  1801.71
          (Kelvin)

 Zero-point correction=                           0.005706 (Hartree/Particle)
 Thermal correction to Energy=                    0.008093
 Thermal correction to Enthalpy=                  0.009037
 Thermal correction to Gibbs Free Energy=        -0.014379
 Sum of electronic and zero-point Energies=           -100.834081
 Sum of electronic and thermal Energies=              -100.831693
 Sum of electronic and thermal Enthalpies=            -100.830749
 Sum of electronic and thermal Free Energies=         -100.854165

                     E (Thermal)             CV                S
                      KCal/Mol        Cal/Mol-Kelvin    Cal/Mol-Kelvin
 Total                    5.079              5.314             49.283
 Electronic               0.000              0.000              1.377
 Translational            0.889              2.981             35.068
 Rotational               0.592              1.987             12.771
 Vibrational              3.597              0.346              0.067

 Normal termination of Gaussian 16 at Fri Aug 22 17:31:32 2025.
