 Gaussian 16, Revision C.01,
 Gaussian 16:  ES64L-G16RevC.01  3-Jul-2019

 -----------------------------------------
 # sp b3lyp/6-311g** Force nosymm scf=(qc)
 -----------------------------------------

 -------------------
 Title Card Required
 -------------------
 Symbolic Z-matrix:
 Charge =  0 Multiplicity = 2

                          Input orientation:
 ---------------------------------------------------------------------
 Center     Atomic      Atomic             Coordinates (Angstroms)
 Number     Number       Type             X           Y           Z
 ---------------------------------------------------------------------
      1          1           0        0.000000    0.000000    0.000000
      2          1           0       -3.200000    0.000000    0.000000
      3          9           0        2.650000    0.000000    0.000000
 ---------------------------------------------------------------------

 SCF Done:  E(UB3LYP) =  -100.765138922     a.u. after   17 cycles

 Alpha  occ. eigenvalues --  -24.72569  -1.18733  -0.51679  -0.43404  -0.43404
 Alpha  occ. eigenvalues --   -0.32909
 Alpha virt. eigenvalues --   -0.09886   0.24000   0.35181   0.90027   0.93162
 Alpha virt. eigenvalues --    0.93162   1.05901   1.24615   1.24615   1.25107
 Alpha virt. eigenvalues --    1.41588   1.41588   1.43337   2.14986   2.36901

  Beta  occ. eigenvalues --  -24.69656  -1.10419  -0.40495  -0.40495  -0.34790
  Beta virt. eigenvalues --   -0.23873  -0.07290   0.24389   0.37292   0.94575
  Beta virt. eigenvalues --    0.94575   0.97629   1.08877   1.22576   1.22576
  Beta virt. eigenvalues --    1.26392   1.45066   1.45266   1.45266   2.14241

 Mulliken charges and spin densities:
               1          2
     1  H    0.068735  -0.917147
     2  H    0.001592   0.995599
     3  F   -0.070327   0.921548
 Sum of Mulliken charges =  -0.00000   1.00000

 Dipole moment (field-independent basis, Debye):
    X=             -0.9769    Y=             -0.0000    Z=             -0.0000  Tot=              0.9769
 Quadrupole moment (field-independent basis, Debye-Ang):
   XX=             -8.9496   YY=             -7.5925   ZZ=             -7.5925
   XY=             -0.0000   XZ=             -0.0000   YZ=             -0.0000

  Exact polarizability:      33.450      -0.000       2.022      -0.000      -0.000       2.022
 Approx polarizability:      38.992      -0.000       1.920      -0.000       0.000       1.920

 ******    2 imaginary frequencies (negative Signs) ******

                      1                      2                      3
                      A                      A                      A
 Frequencies --   -549.0321              -168.3906               208.1941
 Red. masses --      1.0467                 1.0650                 1.0204
 Frc consts  --      0.1859                 0.0178                 0.0261
 IR Inten    --     65.6965                 1.5006                 4.3911

                      4
                      A
 Frequencies --    208.1941
 Red. masses --      1.0204
 Frc consts  --      0.0261
 IR Inten    --      4.3911

 - Thermochemistry -
 -------------------
 Temperature   298.150 Kelvin.  Pressure   1.00000 Atm.
 Atom     1 has atomic number  1 and mass   1.00783

 Molecular mass:    21.01405 amu.
 Principal axes and moments of inertia in atomic units:
                           1         2         3
     Eigenvalues --     0.00000 135.97026 135.97026
           X            1.00000  -0.00000   0.00000
           Y            0.00000   1.00000   0.00000
           Z            0.00000   0.00000   1.00000
 This molecule is a prolate symmetric top.
 Rotational symmetry number  1.
 Rotational temperature (Kelvin)      0.63701
 Rotational constant (GHZ):          13.273059
    2 imaginary frequencies ignored.
 Zero-point vibrational energy       2490.6 (Joules/Mol)
                                    0.59526 (Kcal/Mol)
 Warning -- explicit consideration of   2 degrees of freedom as
           vibrations may cause significant error
 Vibrational temperatures:    299.54   299.54
          (Kelvin)

 Zero-point correction=                           0.000949 (Hartree/Particle)
 Thermal correction to Energy=                    0.004405
 Thermal correction to Enthalpy=                  0.005349
 Thermal correction to Gibbs Free Energy=        -0.020674
 Sum of electronic and zero-point Energies=           -100.764190
 Sum of electronic and thermal Energies=              -100.760734
 Sum of electronic and thermal Enthalpies=            -100.759790
 Sum of electronic and thermal Free Energies=         -100.785813

                     E (Thermal)             CV                S
                      KCal/Mol        Cal/Mol-Kelvin    Cal/Mol-Kelvin
 Total                    2.764              8.624             54.770
 Electronic               0.000              0.000              1.377
 Translational            0.889              2.981             35.068
 Rotational               0.592              1.987             14.206
 Vibrational              1.283              3.656              4.119
 Vibration     1          0.642              1.828              2.059
 Vibration     2          0.642              1.828              2.059

 Normal termination of Gaussian 16 at Fri Aug 22 18:15:33 2025.
