 Gaussian 16, Revision C.01,
 Gaussian 16:  ES64L-G16RevC.01  3-Jul-2019

 -----------------------------------------
 # sp b3lyp/6-311g** Force nosymm scf=(qc)
 -----------------------------------------

 -------------------
 Title Card Required
 -------------------
 Symbolic Z-matrix:
 Charge =  0 Multiplicity = 2

                          Input orientation:
 ---------------------------------------------------------------------
 Center     Atomic      Atomic             Coordinates (Angstroms)
 Number     Number       Type             X           Y           Z
 ---------------------------------------------------------------------
      1          1           0        0.000000    0.000000    0.000000
      2          1           0       -3.350000    0.000000    0.000000
      3          9           0        3.050000    0.000000    0.000000
 ---------------------------------------------------------------------

 SCF Done:  E(UB3LYP) =  -100.760917285     a.u. after   22 cycles

 Alpha  occ. eigenvalues --  -24.74262  -1.20309  -0.53382  -0.44823  -0.44823
 Alpha  occ. eigenvalues --   -0.32555
 Alpha virt. eigenvalues --   -0.08217   0.24206   0.35975   0.89231   0.92169
 Alpha virt. eigenvalues --    0.92169   1.03633   1.24958   1.24958   1.25229
 Alpha virt. eigenvalues --    1.43773   1.43773   1.44037   2.15052   2.39987

  Beta  occ. eigenvalues --  -24.71223  -1.11595  -0.41780  -0.41780  -0.33621
  Beta virt. eigenvalues --   -0.24876  -0.06831   0.24129   0.37635   0.93634
  Beta virt. eigenvalues --    0.93634   0.97990   1.07416   1.23728   1.23728
  Beta virt. eigenvalues --    1.24176   1.45501   1.45756   1.45756   2.15341

 Mulliken charges and spin densities:
               1          2
     1  H    0.032889  -0.960207
     2  H    0.000610   0.996991
     3  F   -0.033499   0.963215
 Sum of Mulliken charges =  -0.00000   1.00000

 Dipole moment (field-independent basis, Debye):
    X=             -0.5347    Y=             -0.0000    Z=              0.0000  Tot=              0.5347
 Quadrupole moment (field-independent basis, Debye-Ang):
   XX=             -8.1809   YY=             -7.6142   ZZ=             -7.6142
   XY=              0.0000   XZ=             -0.0000   YZ=              0.0000

  Exact polarizability:      32.160       0.000       2.026      -0.000       0.000       2.026
 Approx polarizability:      31.610       0.000       1.927      -0.000      -0.000       1.927

 ******    2 imaginary frequencies (negative Signs) ******

                      1                      2                      3
                      A                      A                      A
 Frequencies --   -373.1556              -136.1149               132.3297
 Red. masses --      1.0400                 1.0720                 1.0191
 Frc consts  --      0.0853                 0.0117                 0.0105
 IR Inten    --     35.1227                 1.4385                 0.9963

                      4
                      A
 Frequencies --    132.3297
 Red. masses --      1.0191
 Frc consts  --      0.0105
 IR Inten    --      0.9963

 - Thermochemistry -
 -------------------
 Temperature   298.150 Kelvin.  Pressure   1.00000 Atm.
 Atom     1 has atomic number  1 and mass   1.00783

 Molecular mass:    21.01405 amu.
 Principal axes and moments of inertia in atomic units:
                           1         2         3
     Eigenvalues --     0.00000 165.48094 165.48094
           X            1.00000  -0.00000   0.00000
           Y            0.00000   1.00000   0.00000
           Z            0.00000   0.00000   1.00000
 This molecule is a prolate symmetric top.
 Rotational symmetry number  1.
 Rotational temperature (Kelvin)      0.52341
 Rotational constant (GHZ):          10.906037
    2 imaginary frequencies ignored.
 Zero-point vibrational energy       1583.0 (Joules/Mol)
                                    0.37835 (Kcal/Mol)
 Warning -- explicit consideration of   2 degrees of freedom as
           vibrations may cause significant error
 Vibrational temperatures:    190.39   190.39
          (Kelvin)

 Zero-point correction=                           0.000603 (Hartree/Particle)
 Thermal correction to Energy=                    0.004313
 Thermal correction to Enthalpy=                  0.005257
 Thermal correction to Gibbs Free Energy=        -0.021762
 Sum of electronic and zero-point Energies=           -100.760314
 Sum of electronic and thermal Energies=              -100.756605
 Sum of electronic and thermal Enthalpies=            -100.755661
 Sum of electronic and thermal Free Energies=         -100.782679

                     E (Thermal)             CV                S
                      KCal/Mol        Cal/Mol-Kelvin    Cal/Mol-Kelvin
 Total                    2.706              8.810             56.865
 Electronic               0.000              0.000              1.377
 Translational            0.889              2.981             35.068
 Rotational               0.592              1.987             14.596
 Vibrational              1.225              3.842              5.824
 Vibration     1          0.612              1.921              2.912
 Vibration     2          0.612              1.921              2.912

 Normal termination of Gaussian 16 at Fri Aug 22 19:45:10 2025.
