 Gaussian 16, Revision C.01,
 Gaussian 16:  ES64L-G16RevC.01  3-Jul-2019

 -----------------------------------------
 # sp b3lyp/6-311g** Force nosymm scf=(qc)
 -----------------------------------------

 -------------------
 Title Card Required
 -------------------
 Symbolic Z-matrix:
 Charge =  0 Multiplicity = 2

                          Input orientation:
 ---------------------------------------------------------------------
 Center     Atomic      Atomic             Coordinates (Angstroms)
 Number     Number       Type             X           Y           Z
 ---------------------------------------------------------------------
      1          1           0        0.000000    0.000000    0.000000
      2          1           0       -2.650000    0.000000    0.000000
      3          9           0        1.150000    0.000000    0.000000
 ---------------------------------------------------------------------

 SCF Done:  E(UB3LYP) =  -100.937794064     a.u. after    6 cycles

 Alpha  occ. eigenvalues --  -24.64194  -1.12903  -0.48605  -0.37686  -0.37686
 Alpha  occ. eigenvalues --   -0.34939
 Alpha virt. eigenvalues --   -0.03439   0.24567   0.29361   0.93463   0.93463
 Alpha virt. eigenvalues --    1.00258   1.21539   1.22601   1.22601   1.32190
 Alpha virt. eigenvalues --    1.35062   1.35062   1.76605   2.13837   2.31056

  Beta  occ. eigenvalues --  -24.64168  -1.12837  -0.48500  -0.37662  -0.37662
  Beta virt. eigenvalues --   -0.10325  -0.01360   0.29205   0.36991   0.93463
  Beta virt. eigenvalues --    0.93463   1.00313   1.28655   1.35011   1.35011
  Beta virt. eigenvalues --    1.44428   1.44428   1.46065   1.76898   2.30886

 Mulliken charges and spin densities:
               1          2
     1  H    0.342984   0.000724
     2  H    0.007078   0.991082
     3  F   -0.350061   0.008194
 Sum of Mulliken charges =   0.00000   1.00000

 Dipole moment (field-independent basis, Debye):
    X=             -2.3155    Y=              0.0000    Z=             -0.0000  Tot=              2.3155
 Quadrupole moment (field-independent basis, Debye-Ang):
   XX=             -8.4617   YY=             -7.0861   ZZ=             -7.0861
   XY=              0.0000   XZ=             -0.0000   YZ=             -0.0000

  Exact polarizability:      10.998       0.000       2.363       0.000       0.000       2.363
 Approx polarizability:      13.875      -0.000       2.326      -0.000       0.000       2.326

 ******    1 imaginary frequencies (negative Signs) ******

                      1                      2                      3
                      A                      A                      A
 Frequencies --   -135.3450              1188.1755              1188.1755
 Red. masses --      1.0512                 1.0304                 1.0304
 Frc consts  --      0.0113                 0.8570                 0.8570
 IR Inten    --      1.7893               140.1984               140.1984

                      4
                      A
 Frequencies --   1440.4491
 Red. masses --      1.0603
 Frc consts  --      1.2963
 IR Inten    --    107.8393

 - Thermochemistry -
 -------------------
 Temperature   298.150 Kelvin.  Pressure   1.00000 Atm.
 Atom     1 has atomic number  1 and mass   1.00783

 Molecular mass:    21.01405 amu.
 Principal axes and moments of inertia in atomic units:
                           1         2         3
     Eigenvalues --     0.00000  52.50007  52.50007
           X            1.00000  -0.00000   0.00000
           Y            0.00000   1.00000   0.00000
           Z            0.00000   0.00000   1.00000
 This molecule is a prolate symmetric top.
 Rotational symmetry number  1.
 Rotational temperature (Kelvin)      1.64979
 Rotational constant (GHZ):          34.375976
    1 imaginary frequencies ignored.
 Zero-point vibrational energy      22829.5 (Joules/Mol)
                                    5.45639 (Kcal/Mol)
 Vibrational temperatures:   1709.52  1709.52  2072.49
          (Kelvin)

 Zero-point correction=                           0.008695 (Hartree/Particle)
 Thermal correction to Energy=                    0.011097
 Thermal correction to Enthalpy=                  0.012041
 Thermal correction to Gibbs Free Energy=        -0.011175
 Sum of electronic and zero-point Energies=           -100.929099
 Sum of electronic and thermal Energies=              -100.926697
 Sum of electronic and thermal Enthalpies=            -100.925753
 Sum of electronic and thermal Free Energies=         -100.948969

                     E (Thermal)             CV                S
                      KCal/Mol        Cal/Mol-Kelvin    Cal/Mol-Kelvin
 Total                    6.964              5.486             48.862
 Electronic               0.000              0.000              1.377
 Translational            0.889              2.981             35.068
 Rotational               0.592              1.987             12.315
 Vibrational              5.482              0.518              0.102

 Normal termination of Gaussian 16 at Fri Aug 22 16:08:11 2025.
