 Gaussian 16, Revision C.01,
 Gaussian 16:  ES64L-G16RevC.01  3-Jul-2019

 -----------------------------------------
 # sp b3lyp/6-311g** Force nosymm scf=(qc)
 -----------------------------------------

 -------------------
 Title Card Required
 -------------------
 Symbolic Z-matrix:
 Charge =  0 Multiplicity = 2

                          Input orientation:
 ---------------------------------------------------------------------
 Center     Atomic      Atomic             Coordinates (Angstroms)
 Number     Number       Type             X           Y           Z
 ---------------------------------------------------------------------
      1          1           0        0.000000    0.000000    0.000000
      2          1           0       -1.000000    0.000000    0.000000
      3          9           0        3.450000    0.000000    0.000000
 ---------------------------------------------------------------------

 SCF Done:  E(UB3LYP) =  -100.906606325     a.u. after    7 cycles

 Alpha  occ. eigenvalues --  -24.76177  -1.22081  -0.55301  -0.46444  -0.46444
 Alpha  occ. eigenvalues --   -0.39134
 Alpha virt. eigenvalues --    0.00090   0.21201   0.38276   0.87995   0.90950
 Alpha virt. eigenvalues --    0.90950   1.01859   1.08968   1.08968   1.37398
 Alpha virt. eigenvalues --    1.65612   1.65612   2.22023   2.36023   2.58712

  Beta  occ. eigenvalues --  -24.73029  -1.13023  -0.43287  -0.43287  -0.39126
  Beta virt. eigenvalues --   -0.26054   0.00139   0.21245   0.38473   0.92447
  Beta virt. eigenvalues --    0.92447   0.97155   1.05998   1.08979   1.08979
  Beta virt. eigenvalues --    1.37424   1.65621   1.65621   2.22066   2.36044

 Mulliken charges and spin densities:
               1          2
     1  H   -0.005731  -0.001234
     2  H    0.005171   0.002866
     3  F    0.000560   0.998367
 Sum of Mulliken charges =  -0.00000   1.00000

 Dipole moment (field-independent basis, Debye):
    X=             -0.0187    Y=              0.0000    Z=              0.0000  Tot=              0.0187
 Quadrupole moment (field-independent basis, Debye-Ang):
   XX=             -5.4974   YY=             -7.2711   ZZ=             -7.2711
   XY=              0.0000   XZ=              0.0000   YZ=              0.0000

  Exact polarizability:      13.338       0.000       2.057       0.000      -0.000       2.057
 Approx polarizability:      17.099       0.000       2.109       0.000      -0.000       2.109

 ******    1 imaginary frequencies (negative Signs) ******

                      1                      2                      3
                      A                      A                      A
 Frequencies --    -41.8517              1538.4376              1538.4376
 Red. masses --      1.1085                 1.0094                 1.0094
 Frc consts  --      0.0011                 1.4076                 1.4076
 IR Inten    --      0.0426                 0.0330                 0.0330

                      4
                      A
 Frequencies --   1791.5767
 Red. masses --      1.0078
 Frc consts  --      1.9059
 IR Inten    --      0.8008

 - Thermochemistry -
 -------------------
 Temperature   298.150 Kelvin.  Pressure   1.00000 Atm.
 Atom     1 has atomic number  1 and mass   1.00783

 Molecular mass:    21.01405 amu.
 Principal axes and moments of inertia in atomic units:
                           1         2         3
     Eigenvalues --     0.00000 103.33417 103.33417
           X            1.00000  -0.00000   0.00000
           Y            0.00000   1.00000   0.00000
           Z            0.00000   0.00000   1.00000
 This molecule is a prolate symmetric top.
 Rotational symmetry number  1.
 Rotational temperature (Kelvin)      0.83819
 Rotational constant (GHZ):          17.465096
    1 imaginary frequencies ignored.
 Zero-point vibrational energy      29119.8 (Joules/Mol)
                                    6.95980 (Kcal/Mol)
 Vibrational temperatures:   2213.47  2213.47  2577.68
          (Kelvin)

 Zero-point correction=                           0.011091 (Hartree/Particle)
 Thermal correction to Energy=                    0.013461
 Thermal correction to Enthalpy=                  0.014406
 Thermal correction to Gibbs Free Energy=        -0.009412
 Sum of electronic and zero-point Energies=           -100.895515
 Sum of electronic and thermal Energies=              -100.893145
 Sum of electronic and thermal Enthalpies=            -100.892201
 Sum of electronic and thermal Free Energies=         -100.916019

                     E (Thermal)             CV                S
                      KCal/Mol        Cal/Mol-Kelvin    Cal/Mol-Kelvin
 Total                    8.447              5.125             50.129
 Electronic               0.000              0.000              1.377
 Translational            0.889              2.981             35.068
 Rotational               0.592              1.987             13.660
 Vibrational              6.966              0.157              0.023

 Normal termination of Gaussian 16 at Fri Aug 22 21:26:09 2025.
