 Gaussian 16, Revision C.01,
 Gaussian 16:  ES64L-G16RevC.01  3-Jul-2019

 -----------------------------------------
 # sp b3lyp/6-311g** Force nosymm scf=(qc)
 -----------------------------------------

 -------------------
 Title Card Required
 -------------------
 Symbolic Z-matrix:
 Charge =  0 Multiplicity = 2

                          Input orientation:
 ---------------------------------------------------------------------
 Center     Atomic      Atomic             Coordinates (Angstroms)
 Number     Number       Type             X           Y           Z
 ---------------------------------------------------------------------
      1          1           0        0.000000    0.000000    0.000000
      2          1           0       -0.850000    0.000000    0.000000
      3          9           0        3.000000    0.000000    0.000000
 ---------------------------------------------------------------------

 SCF Done:  E(UB3LYP) =  -100.928375874     a.u. after   62 cycles

 Alpha  occ. eigenvalues --  -24.76633  -1.22443  -0.55634  -0.46893  -0.46783
 Alpha  occ. eigenvalues --   -0.41096
 Alpha virt. eigenvalues --    0.04007   0.20607   0.43564   0.85829   0.90702
 Alpha virt. eigenvalues --    0.93769   1.05318   1.08367   1.08374   1.49277
 Alpha virt. eigenvalues --    1.75709   1.75717   2.13443   2.38631   2.87758

  Beta  occ. eigenvalues --  -24.73471  -1.13356  -0.43776  -0.43614  -0.41040
  Beta virt. eigenvalues --   -0.26257   0.04043   0.20634   0.43659   0.92200
  Beta virt. eigenvalues --    0.95286   0.95556   1.08366   1.08373   1.09039
  Beta virt. eigenvalues --    1.49287   1.75709   1.75716   2.13466   2.38638

 Mulliken charges and spin densities:
               1          2
     1  H   -0.004408  -0.000981
     2  H   -0.004615  -0.000205
     3  F    0.009023   1.001187
 Sum of Mulliken charges =   0.00000   1.00000

 Dipole moment (field-independent basis, Debye):
    X=              0.0960    Y=              0.0000    Z=             -0.0000  Tot=              0.0960
 Quadrupole moment (field-independent basis, Debye-Ang):
   XX=             -6.1034   YY=             -6.6628   ZZ=             -6.6616
   XY=             -0.0000   XZ=              0.0000   YZ=             -0.4318

  Exact polarizability:      10.104      -0.000       2.240       0.000      -0.230       2.241
 Approx polarizability:      12.070      -0.000       2.369       0.000      -0.289       2.369

                      1                      2                      3
                      A                      A                      A
 Frequencies --     59.0990              1329.6907              1329.8364
 Red. masses --      1.1085                 1.0094                 1.0094
 Frc consts  --      0.0023                 1.0515                 1.0517
 IR Inten    --      0.3075                 0.0028                 0.0028

                      4
                      A
 Frequencies --   3136.7670
 Red. masses --      1.0078
 Frc consts  --      5.8425
 IR Inten    --      0.5545

 - Thermochemistry -
 -------------------
 Temperature   298.150 Kelvin.  Pressure   1.00000 Atm.
 Atom     1 has atomic number  1 and mass   1.00783

 Molecular mass:    21.01405 amu.
 Principal axes and moments of inertia in atomic units:
                           1         2         3
     Eigenvalues --     0.00000  77.63823  77.63823
           X            1.00000  -0.00000   0.00000
           Y            0.00000   1.00000   0.00000
           Z            0.00000   0.00000   1.00000
 This molecule is a prolate symmetric top.
 Rotational symmetry number  1.
 Rotational temperature (Kelvin)      1.11561
 Rotational constant (GHZ):          23.245521
 Zero-point vibrational energy      35023.0 (Joules/Mol)
                                    8.37070 (Kcal/Mol)
 Warning -- explicit consideration of   1 degrees of freedom as
           vibrations may cause significant error
 Vibrational temperatures:     85.03  1913.13  1913.34  4513.11
          (Kelvin)

 Zero-point correction=                           0.013340 (Hartree/Particle)
 Thermal correction to Energy=                    0.016536
 Thermal correction to Enthalpy=                  0.017480
 Thermal correction to Gibbs Free Energy=        -0.008212
 Sum of electronic and zero-point Energies=           -100.915036
 Sum of electronic and thermal Energies=              -100.911840
 Sum of electronic and thermal Enthalpies=            -100.910896
 Sum of electronic and thermal Free Energies=         -100.936588

                     E (Thermal)             CV                S
                      KCal/Mol        Cal/Mol-Kelvin    Cal/Mol-Kelvin
 Total                   10.376              7.210             54.073
 Electronic               0.000              0.000              1.377
 Translational            0.889              2.981             35.068
 Rotational               0.592              1.987             13.092
 Vibrational              8.895              2.242              4.535
 Vibration     1          0.596              1.974              4.487

 Normal termination of Gaussian 16 at Fri Aug 22 19:23:31 2025.
