 Gaussian 16, Revision C.01,
 Gaussian 16:  ES64L-G16RevC.01  3-Jul-2019

 -----------------------------------------
 # sp b3lyp/6-311g** Force nosymm scf=(qc)
 -----------------------------------------

 -------------------
 Title Card Required
 -------------------
 Symbolic Z-matrix:
 Charge =  0 Multiplicity = 2

                          Input orientation:
 ---------------------------------------------------------------------
 Center     Atomic      Atomic             Coordinates (Angstroms)
 Number     Number       Type             X           Y           Z
 ---------------------------------------------------------------------
      1          1           0        0.000000    0.000000    0.000000
      2          1           0       -2.800000    0.000000    0.000000
      3          9           0        3.050000    0.000000    0.000000
 ---------------------------------------------------------------------

 SCF Done:  E(UB3LYP) =  -100.762354291     a.u. after   22 cycles

 Alpha  occ. eigenvalues --  -24.74295  -1.20338  -0.53414  -0.44849  -0.44849
 Alpha  occ. eigenvalues --   -0.32787
 Alpha virt. eigenvalues --   -0.09429   0.25023   0.34538   0.89300   0.92150
 Alpha virt. eigenvalues --    0.92150   1.03654   1.24780   1.24780   1.26051
 Alpha virt. eigenvalues --    1.41781   1.41781   1.42400   2.15690   2.38308

  Beta  occ. eigenvalues --  -24.71255  -1.11620  -0.41805  -0.41805  -0.33660
  Beta virt. eigenvalues --   -0.24901  -0.08193   0.25019   0.35997   0.93616
  Beta virt. eigenvalues --    0.93616   0.98103   1.07517   1.23753   1.23753
  Beta virt. eigenvalues --    1.24988   1.43755   1.43755   1.44106   2.16356

 Mulliken charges and spin densities:
               1          2
     1  H    0.030369  -0.951032
     2  H    0.002479   0.987360
     3  F   -0.032848   0.963671
 Sum of Mulliken charges =  -0.00000   1.00000

 Dipole moment (field-independent basis, Debye):
    X=             -0.5476    Y=              0.0000    Z=              0.0000  Tot=              0.5476
 Quadrupole moment (field-independent basis, Debye-Ang):
   XX=             -8.0207   YY=             -7.6333   ZZ=             -7.6333
   XY=             -0.0000   XZ=             -0.0000   YZ=              0.0000

  Exact polarizability:      37.198      -0.000       2.020      -0.000      -0.000       2.020
 Approx polarizability:      34.481      -0.000       1.924      -0.000       0.000       1.924

 ******    2 imaginary frequencies (negative Signs) ******

                      1                      2                      3
                      A                      A                      A
 Frequencies --   -503.5237              -204.7514               186.3707
 Red. masses --      1.0154                 1.0995                 1.0169
 Frc consts  --      0.1517                 0.0272                 0.0208
 IR Inten    --     26.4514                10.6835                 0.7865

                      4
                      A
 Frequencies --    186.3707
 Red. masses --      1.0169
 Frc consts  --      0.0208
 IR Inten    --      0.7865

 - Thermochemistry -
 -------------------
 Temperature   298.150 Kelvin.  Pressure   1.00000 Atm.
 Atom     1 has atomic number  1 and mass   1.00783

 Molecular mass:    21.01405 amu.
 Principal axes and moments of inertia in atomic units:
                           1         2         3
     Eigenvalues --     0.00000 142.97465 142.97465
           X            1.00000  -0.00000   0.00000
           Y            0.00000   1.00000   0.00000
           Z            0.00000   0.00000   1.00000
 This molecule is a prolate symmetric top.
 Rotational symmetry number  1.
 Rotational temperature (Kelvin)      0.60580
 Rotational constant (GHZ):          12.622805
    2 imaginary frequencies ignored.
 Zero-point vibrational energy       2229.5 (Joules/Mol)
                                    0.53286 (Kcal/Mol)
 Warning -- explicit consideration of   2 degrees of freedom as
           vibrations may cause significant error
 Vibrational temperatures:    268.15   268.15
          (Kelvin)

 Zero-point correction=                           0.000849 (Hartree/Particle)
 Thermal correction to Energy=                    0.004374
 Thermal correction to Enthalpy=                  0.005319
 Thermal correction to Gibbs Free Energy=        -0.020946
 Sum of electronic and zero-point Energies=           -100.761505
 Sum of electronic and thermal Energies=              -100.757980
 Sum of electronic and thermal Enthalpies=            -100.757036
 Sum of electronic and thermal Free Energies=         -100.783300

                     E (Thermal)             CV                S
                      KCal/Mol        Cal/Mol-Kelvin    Cal/Mol-Kelvin
 Total                    2.745              8.685             55.278
 Electronic               0.000              0.000              1.377
 Translational            0.889              2.981             35.068
 Rotational               0.592              1.987             14.305
 Vibrational              1.264              3.717              4.527
 Vibration     1          0.632              1.859              2.264
 Vibration     2          0.632              1.859              2.264

 Normal termination of Gaussian 16 at Fri Aug 22 19:44:33 2025.
