 Gaussian 16, Revision C.01,
 Gaussian 16:  ES64L-G16RevC.01  3-Jul-2019

 -----------------------------------------
 # sp b3lyp/6-311g** Force nosymm scf=(qc)
 -----------------------------------------

 -------------------
 Title Card Required
 -------------------
 Symbolic Z-matrix:
 Charge =  0 Multiplicity = 2

                          Input orientation:
 ---------------------------------------------------------------------
 Center     Atomic      Atomic             Coordinates (Angstroms)
 Number     Number       Type             X           Y           Z
 ---------------------------------------------------------------------
      1          1           0        0.000000    0.000000    0.000000
      2          1           0       -1.800000    0.000000    0.000000
      3          9           0        3.000000    0.000000    0.000000
 ---------------------------------------------------------------------

 SCF Done:  E(UB3LYP) =  -100.787702537     a.u. after   24 cycles

 Alpha  occ. eigenvalues --  -24.74581  -1.20602  -0.53704  -0.45094  -0.45094
 Alpha  occ. eigenvalues --   -0.33991
 Alpha virt. eigenvalues --   -0.11725   0.25274   0.30815   0.89604   0.91957
 Alpha virt. eigenvalues --    0.91957   1.03881   1.09485   1.23595   1.23595
 Alpha virt. eigenvalues --    1.36497   1.36497   1.60439   2.13947   2.39657

  Beta  occ. eigenvalues --  -24.71530  -1.11852  -0.42039  -0.42039  -0.33930
  Beta virt. eigenvalues --   -0.25179  -0.11350   0.25815   0.31084   0.93424
  Beta virt. eigenvalues --    0.93424   0.98282   1.07451   1.10103   1.23657
  Beta virt. eigenvalues --    1.23657   1.36962   1.36962   1.60893   2.14978

 Mulliken charges and spin densities:
               1          2
     1  H    0.010451  -0.700638
     2  H    0.018245   0.733922
     3  F   -0.028696   0.966716
 Sum of Mulliken charges =   0.00000   1.00000

 Dipole moment (field-independent basis, Debye):
    X=             -0.5969    Y=             -0.0000    Z=             -0.0000  Tot=              0.5969
 Quadrupole moment (field-independent basis, Debye-Ang):
   XX=             -6.9300   YY=             -7.7359   ZZ=             -7.7359
   XY=             -0.0000   XZ=             -0.0000   YZ=             -0.0000

  Exact polarizability:      60.322      -0.000       2.010      -0.000       0.000       2.010
 Approx polarizability:      62.591      -0.000       1.954      -0.000      -0.000       1.954

 ******    2 imaginary frequencies (negative Signs) ******

                      1                      2                      3
                      A                      A                      A
 Frequencies --  -1738.8596              -229.2878               762.0448
 Red. masses --      1.0079                 1.1084                 1.0129
 Frc consts  --      1.7956                 0.0343                 0.3466
 IR Inten    --     76.4505                27.1614                 0.0079

                      4
                      A
 Frequencies --    762.0448
 Red. masses --      1.0129
 Frc consts  --      0.3466
 IR Inten    --      0.0079

 - Thermochemistry -
 -------------------
 Temperature   298.150 Kelvin.  Pressure   1.00000 Atm.
 Atom     1 has atomic number  1 and mass   1.00783

 Molecular mass:    21.01405 amu.
 Principal axes and moments of inertia in atomic units:
                           1         2         3
     Eigenvalues --     0.00000 104.81083 104.81083
           X            1.00000  -0.00000   0.00000
           Y            0.00000   1.00000   0.00000
           Z            0.00000   0.00000   1.00000
 This molecule is a prolate symmetric top.
 Rotational symmetry number  1.
 Rotational temperature (Kelvin)      0.82638
 Rotational constant (GHZ):          17.219034
    2 imaginary frequencies ignored.
 Zero-point vibrational energy       9116.1 (Joules/Mol)
                                    2.17880 (Kcal/Mol)
 Vibrational temperatures:   1096.41  1096.41
          (Kelvin)

 Zero-point correction=                           0.003472 (Hartree/Particle)
 Thermal correction to Energy=                    0.006013
 Thermal correction to Enthalpy=                  0.006957
 Thermal correction to Gibbs Free Energy=        -0.017092
 Sum of electronic and zero-point Energies=           -100.784230
 Sum of electronic and thermal Energies=              -100.781690
 Sum of electronic and thermal Enthalpies=            -100.780746
 Sum of electronic and thermal Free Energies=         -100.804794

                     E (Thermal)             CV                S
                      KCal/Mol        Cal/Mol-Kelvin    Cal/Mol-Kelvin
 Total                    3.773              6.399             50.615
 Electronic               0.000              0.000              1.377
 Translational            0.889              2.981             35.068
 Rotational               0.592              1.987             13.688
 Vibrational              2.292              1.431              0.481

 Normal termination of Gaussian 16 at Fri Aug 22 19:31:10 2025.
