 Gaussian 16, Revision C.01,
 Gaussian 16:  ES64L-G16RevC.01  3-Jul-2019

 -----------------------------------------
 # sp b3lyp/6-311g** Force nosymm scf=(qc)
 -----------------------------------------

 -------------------
 Title Card Required
 -------------------
 Symbolic Z-matrix:
 Charge =  0 Multiplicity = 2

                          Input orientation:
 ---------------------------------------------------------------------
 Center     Atomic      Atomic             Coordinates (Angstroms)
 Number     Number       Type             X           Y           Z
 ---------------------------------------------------------------------
      1          1           0        0.000000    0.000000    0.000000
      2          1           0       -3.750000    0.000000    0.000000
      3          9           0        0.750000    0.000000    0.000000
 ---------------------------------------------------------------------

 SCF Done:  E(UB3LYP) =  -100.921926938     a.u. after    6 cycles

 Alpha  occ. eigenvalues --  -24.63456  -1.25480  -0.57385  -0.41197  -0.41197
 Alpha  occ. eigenvalues --   -0.33312
 Alpha virt. eigenvalues --    0.05823   0.24478   0.49270   0.93919   0.93919
 Alpha virt. eigenvalues --    0.96508   1.24062   1.24195   1.24195   1.29960
 Alpha virt. eigenvalues --    1.41701   1.41701   2.00171   2.14393   2.67704

  Beta  occ. eigenvalues --  -24.63456  -1.25479  -0.57384  -0.41197  -0.41197
  Beta virt. eigenvalues --   -0.05068   0.06096   0.39269   0.49246   0.93919
  Beta virt. eigenvalues --    0.93919   0.96502   1.29741   1.41701   1.41701
  Beta virt. eigenvalues --    1.50729   1.50801   1.50801   2.00246   2.44733

 Mulliken charges and spin densities:
               1          2
     1  H    0.267922   0.000394
     2  H    0.000481   0.999439
     3  F   -0.268403   0.000167
 Sum of Mulliken charges =   0.00000   1.00000

 Dipole moment (field-independent basis, Debye):
    X=             -1.6618    Y=             -0.0000    Z=              0.0000  Tot=              1.6618
 Quadrupole moment (field-independent basis, Debye-Ang):
   XX=             -7.4662   YY=             -6.7169   ZZ=             -6.7169
   XY=             -0.0000   XZ=              0.0000   YZ=             -0.0000

  Exact polarizability:       4.139      -0.000       2.444       0.000       0.000       2.444
 Approx polarizability:       4.604       0.000       2.425      -0.000       0.000       2.425

 ******    3 imaginary frequencies (negative Signs) ******

                      1                      2                      3
                      A                      A                      A
 Frequencies --  -2711.1071             -2711.1071               -35.6100
 Red. masses --      1.0420                 1.0420                 1.0532
 Frc consts  --      4.5123                 4.5123                 0.0008
 IR Inten    --    206.0054               206.0054                 0.0151

                      4
                      A
 Frequencies --   7586.7554
 Red. masses --      1.0583
 Frc consts  --     35.8902
 IR Inten    --    105.1280

 - Thermochemistry -
 -------------------
 Temperature   298.150 Kelvin.  Pressure   1.00000 Atm.
 Atom     1 has atomic number  1 and mass   1.00783

 Molecular mass:    21.01405 amu.
 Principal axes and moments of inertia in atomic units:
                           1         2         3
     Eigenvalues --     0.00000  70.14689  70.14689
           X            1.00000  -0.00000   0.00000
           Y            0.00000   1.00000   0.00000
           Z            0.00000   0.00000   1.00000
 This molecule is a prolate symmetric top.
 Rotational symmetry number  1.
 Rotational temperature (Kelvin)      1.23475
 Rotational constant (GHZ):          25.728030
    3 imaginary frequencies ignored.
 Zero-point vibrational energy      45378.9 (Joules/Mol)
                                   10.84581 (Kcal/Mol)
 Vibrational temperatures:  10915.65
          (Kelvin)

 Zero-point correction=                           0.017284 (Hartree/Particle)
 Thermal correction to Energy=                    0.019644
 Thermal correction to Enthalpy=                  0.020589
 Thermal correction to Gibbs Free Energy=        -0.002853
 Sum of electronic and zero-point Energies=           -100.904643
 Sum of electronic and thermal Energies=              -100.902283
 Sum of electronic and thermal Enthalpies=            -100.901338
 Sum of electronic and thermal Free Energies=         -100.924779

                     E (Thermal)             CV                S
                      KCal/Mol        Cal/Mol-Kelvin    Cal/Mol-Kelvin
 Total                   12.327              4.968             49.336
 Electronic               0.000              0.000              1.377
 Translational            0.889              2.981             35.068
 Rotational               0.592              1.987             12.890
 Vibrational             10.846              0.000              0.000

 Normal termination of Gaussian 16 at Fri Aug 22 15:49:51 2025.
