 Gaussian 16, Revision C.01,
 Gaussian 16:  ES64L-G16RevC.01  3-Jul-2019

 -----------------------------------------
 # sp b3lyp/6-311g** Force nosymm scf=(qc)
 -----------------------------------------

 -------------------
 Title Card Required
 -------------------
 Symbolic Z-matrix:
 Charge =  0 Multiplicity = 2

                          Input orientation:
 ---------------------------------------------------------------------
 Center     Atomic      Atomic             Coordinates (Angstroms)
 Number     Number       Type             X           Y           Z
 ---------------------------------------------------------------------
      1          1           0        0.000000    0.000000    0.000000
      2          1           0       -2.900000    0.000000    0.000000
      3          9           0        2.150000    0.000000    0.000000
 ---------------------------------------------------------------------

 SCF Done:  E(UB3LYP) =  -100.777932329     a.u. after   19 cycles

 Alpha  occ. eigenvalues --  -24.66484  -1.08202  -0.37918  -0.37918  -0.37307
 Alpha  occ. eigenvalues --   -0.33376
 Alpha virt. eigenvalues --   -0.21472   0.21601   0.27482   0.91558   0.95830
 Alpha virt. eigenvalues --    0.95830   1.08585   1.21539   1.21539   1.23766
 Alpha virt. eigenvalues --    1.23766   1.24576   1.44969   2.12705   2.14663

  Beta  occ. eigenvalues --  -24.69032  -1.15373  -0.48068  -0.40440  -0.40440
  Beta virt. eigenvalues --   -0.13405  -0.04826   0.31852   0.39181   0.89043
  Beta virt. eigenvalues --    0.94850   0.94850   1.06616   1.37000   1.37000
  Beta virt. eigenvalues --    1.47114   1.47114   1.47644   1.54254   2.32539

 Mulliken charges and spin densities:
               1          2
     1  H    0.155959   0.807659
     2  H    0.005757   0.994381
     3  F   -0.161716  -0.802040
 Sum of Mulliken charges =   0.00000   1.00000

 Dipole moment (field-independent basis, Debye):
    X=             -1.8166    Y=             -0.0000    Z=              0.0000  Tot=              1.8166
 Quadrupole moment (field-independent basis, Debye-Ang):
   XX=             -9.9100   YY=             -7.5024   ZZ=             -7.5024
   XY=             -0.0000   XZ=              0.0000   YZ=              0.0000

  Exact polarizability:      34.165      -0.000       2.044       0.000       0.000       2.044
 Approx polarizability:      46.655       0.000       1.934      -0.000      -0.000       1.934

 ******    1 imaginary frequencies (negative Signs) ******

                      1                      2                      3
                      A                      A                      A
 Frequencies --   -895.0939               154.4427               374.2269
 Red. masses --      1.0627                 1.0489                 1.0219
 Frc consts  --      0.5016                 0.0147                 0.0843
 IR Inten    --     75.2410                 3.5578                21.7647

                      4
                      A
 Frequencies --    374.2269
 Red. masses --      1.0219
 Frc consts  --      0.0843
 IR Inten    --     21.7648

 - Thermochemistry -
 -------------------
 Temperature   298.150 Kelvin.  Pressure   1.00000 Atm.
 Atom     1 has atomic number  1 and mass   1.00783

 Molecular mass:    21.01405 amu.
 Principal axes and moments of inertia in atomic units:
                           1         2         3
     Eigenvalues --     0.00000  99.47219  99.47219
           X            1.00000  -0.00000   0.00000
           Y            0.00000   1.00000   0.00000
           Z            0.00000   0.00000   1.00000
 This molecule is a prolate symmetric top.
 Rotational symmetry number  1.
 Rotational temperature (Kelvin)      0.87074
 Rotational constant (GHZ):          18.143174
    1 imaginary frequencies ignored.
 Zero-point vibrational energy       5400.5 (Joules/Mol)
                                    1.29076 (Kcal/Mol)
 Warning -- explicit consideration of   3 degrees of freedom as
           vibrations may cause significant error
 Vibrational temperatures:    222.21   538.43   538.43
          (Kelvin)

 Zero-point correction=                           0.002057 (Hartree/Particle)
 Thermal correction to Energy=                    0.005724
 Thermal correction to Enthalpy=                  0.006668
 Thermal correction to Gibbs Free Energy=        -0.019356
 Sum of electronic and zero-point Energies=           -100.775875
 Sum of electronic and thermal Energies=              -100.772209
 Sum of electronic and thermal Enthalpies=            -100.771265
 Sum of electronic and thermal Free Energies=         -100.797288

                     E (Thermal)             CV                S
                      KCal/Mol        Cal/Mol-Kelvin    Cal/Mol-Kelvin
 Total                    3.592              9.916             54.772
 Electronic               0.000              0.000              1.377
 Translational            0.889              2.981             35.068
 Rotational               0.592              1.987             13.585
 Vibrational              2.110              4.948              4.742
 Vibration     1          0.620              1.898              2.617
 Vibration     2          0.745              1.525              1.062
 Vibration     3          0.745              1.525              1.062

 Normal termination of Gaussian 16 at Fri Aug 22 17:08:33 2025.
