 Gaussian 16, Revision C.01,
 Gaussian 16:  ES64L-G16RevC.01  3-Jul-2019

 -----------------------------------------
 # sp b3lyp/6-311g** Force nosymm scf=(qc)
 -----------------------------------------

 -------------------
 Title Card Required
 -------------------
 Symbolic Z-matrix:
 Charge =  0 Multiplicity = 2

                          Input orientation:
 ---------------------------------------------------------------------
 Center     Atomic      Atomic             Coordinates (Angstroms)
 Number     Number       Type             X           Y           Z
 ---------------------------------------------------------------------
      1          1           0        0.000000    0.000000    0.000000
      2          1           0       -2.600000    0.000000    0.000000
      3          9           0        3.000000    0.000000    0.000000
 ---------------------------------------------------------------------

 SCF Done:  E(UB3LYP) =  -100.763920748     a.u. after   22 cycles

 Alpha  occ. eigenvalues --  -24.74141  -1.20194  -0.53259  -0.44719  -0.44719
 Alpha  occ. eigenvalues --   -0.32980
 Alpha virt. eigenvalues --   -0.10140   0.25256   0.33869   0.89514   0.92244
 Alpha virt. eigenvalues --    0.92244   1.03948   1.24635   1.24635   1.26433
 Alpha virt. eigenvalues --    1.40549   1.40549   1.41814   2.15590   2.37111

  Beta  occ. eigenvalues --  -24.71112  -1.11511  -0.41687  -0.41687  -0.33792
  Beta virt. eigenvalues --   -0.24819  -0.08885   0.25372   0.35237   0.93706
  Beta virt. eigenvalues --    0.93706   0.98276   1.07828   1.23669   1.23669
  Beta virt. eigenvalues --    1.25356   1.42575   1.42575   1.43664   2.16440

 Mulliken charges and spin densities:
               1          2
     1  H    0.031555  -0.937969
     2  H    0.004410   0.977933
     3  F   -0.035965   0.960036
 Sum of Mulliken charges =  -0.00000   1.00000

 Dipole moment (field-independent basis, Debye):
    X=             -0.6084    Y=             -0.0000    Z=             -0.0000  Tot=              0.6084
 Quadrupole moment (field-independent basis, Debye-Ang):
   XX=             -8.0056   YY=             -7.6440   ZZ=             -7.6440
   XY=             -0.0000   XZ=             -0.0000   YZ=              0.0000

  Exact polarizability:      41.419      -0.000       2.016      -0.000      -0.000       2.016
 Approx polarizability:      37.913      -0.000       1.922      -0.000       0.000       1.922

 ******    2 imaginary frequencies (negative Signs) ******

                      1                      2                      3
                      A                      A                      A
 Frequencies --   -626.5913              -229.5071               234.1014
 Red. masses --      1.0114                 1.1042                 1.0163
 Frc consts  --      0.2340                 0.0343                 0.0328
 IR Inten    --     24.7324                16.5690                 0.8047

                      4
                      A
 Frequencies --    234.1014
 Red. masses --      1.0163
 Frc consts  --      0.0328
 IR Inten    --      0.8047

 - Thermochemistry -
 -------------------
 Temperature   298.150 Kelvin.  Pressure   1.00000 Atm.
 Atom     1 has atomic number  1 and mass   1.00783

 Molecular mass:    21.01405 amu.
 Principal axes and moments of inertia in atomic units:
                           1         2         3
     Eigenvalues --     0.00000 132.48998 132.48998
           X            1.00000  -0.00000   0.00000
           Y            0.00000   1.00000   0.00000
           Z            0.00000   0.00000   1.00000
 This molecule is a prolate symmetric top.
 Rotational symmetry number  1.
 Rotational temperature (Kelvin)      0.65374
 Rotational constant (GHZ):          13.621719
    2 imaginary frequencies ignored.
 Zero-point vibrational energy       2800.5 (Joules/Mol)
                                    0.66933 (Kcal/Mol)
 Warning -- explicit consideration of   2 degrees of freedom as
           vibrations may cause significant error
 Vibrational temperatures:    336.82   336.82
          (Kelvin)

 Zero-point correction=                           0.001067 (Hartree/Particle)
 Thermal correction to Energy=                    0.004446
 Thermal correction to Enthalpy=                  0.005390
 Thermal correction to Gibbs Free Energy=        -0.020407
 Sum of electronic and zero-point Energies=           -100.762854
 Sum of electronic and thermal Energies=              -100.759475
 Sum of electronic and thermal Enthalpies=            -100.758531
 Sum of electronic and thermal Free Energies=         -100.784328

                     E (Thermal)             CV                S
                      KCal/Mol        Cal/Mol-Kelvin    Cal/Mol-Kelvin
 Total                    2.790              8.545             54.294
 Electronic               0.000              0.000              1.377
 Translational            0.889              2.981             35.068
 Rotational               0.592              1.987             14.154
 Vibrational              1.308              3.577              3.695
 Vibration     1          0.654              1.789              1.847
 Vibration     2          0.654              1.789              1.847

 Normal termination of Gaussian 16 at Fri Aug 22 19:32:11 2025.
