 Gaussian 16, Revision C.01,
 Gaussian 16:  ES64L-G16RevC.01  3-Jul-2019

 -----------------------------------------
 # sp b3lyp/6-311g** Force nosymm scf=(qc)
 -----------------------------------------

 -------------------
 Title Card Required
 -------------------
 Symbolic Z-matrix:
 Charge =  0 Multiplicity = 2

                          Input orientation:
 ---------------------------------------------------------------------
 Center     Atomic      Atomic             Coordinates (Angstroms)
 Number     Number       Type             X           Y           Z
 ---------------------------------------------------------------------
      1          1           0        0.000000    0.000000    0.000000
      2          1           0       -3.900000    0.000000    0.000000
      3          9           0        1.350000    0.000000    0.000000
 ---------------------------------------------------------------------

 SCF Done:  E(UB3LYP) =  -100.889121001     a.u. after    7 cycles

 Alpha  occ. eigenvalues --  -24.64388  -1.10672  -0.45295  -0.36891  -0.36891
 Alpha  occ. eigenvalues --   -0.33601
 Alpha virt. eigenvalues --   -0.10485   0.21139   0.27626   0.93008   0.93008
 Alpha virt. eigenvalues --    1.02642   1.18348   1.23871   1.23907   1.23907
 Alpha virt. eigenvalues --    1.33228   1.33228   1.70595   2.13163   2.22919

  Beta  occ. eigenvalues --  -24.64384  -1.10662  -0.45287  -0.36888  -0.36888
  Beta virt. eigenvalues --   -0.10701  -0.05846   0.24292   0.38472   0.93007
  Beta virt. eigenvalues --    0.93007   1.02651   1.18363   1.33216   1.33216
  Beta virt. eigenvalues --    1.46843   1.47146   1.47146   1.70613   2.22064

 Mulliken charges and spin densities:
               1          2
     1  H    0.358447  -0.000513
     2  H    0.000584   0.999381
     3  F   -0.359031   0.001132
 Sum of Mulliken charges =  -0.00000   1.00000

 Dipole moment (field-independent basis, Debye):
    X=             -2.4500    Y=              0.0000    Z=             -0.0000  Tot=              2.4500
 Quadrupole moment (field-independent basis, Debye-Ang):
   XX=             -9.4292   YY=             -7.2323   ZZ=             -7.2323
   XY=              0.0000   XZ=             -0.0000   YZ=              0.0000

  Exact polarizability:      11.742       0.000       2.255      -0.000      -0.000       2.255
 Approx polarizability:      19.367       0.000       2.193       0.000       0.000       2.193

 ******    2 imaginary frequencies (negative Signs) ******

                      1                      2                      3
                      A                      A                      A
 Frequencies --   -870.4633               -40.7667              1134.0646
 Red. masses --      1.0580                 1.0536                 1.0340
 Frc consts  --      0.4723                 0.0010                 0.7835
 IR Inten    --     49.8926                 0.0258               133.4680

                      4
                      A
 Frequencies --   1134.0646
 Red. masses --      1.0340
 Frc consts  --      0.7835
 IR Inten    --    133.4680

 - Thermochemistry -
 -------------------
 Temperature   298.150 Kelvin.  Pressure   1.00000 Atm.
 Atom     1 has atomic number  1 and mass   1.00783

 Molecular mass:    21.01405 amu.
 Principal axes and moments of inertia in atomic units:
                           1         2         3
     Eigenvalues --     0.00000  98.23811  98.23811
           X            1.00000  -0.00000   0.00000
           Y            0.00000   1.00000   0.00000
           Z            0.00000   0.00000   1.00000
 This molecule is a prolate symmetric top.
 Rotational symmetry number  1.
 Rotational temperature (Kelvin)      0.88167
 Rotational constant (GHZ):          18.371091
    2 imaginary frequencies ignored.
 Zero-point vibrational energy      13566.4 (Joules/Mol)
                                    3.24245 (Kcal/Mol)
 Vibrational temperatures:   1631.67  1631.67
          (Kelvin)

 Zero-point correction=                           0.005167 (Hartree/Particle)
 Thermal correction to Energy=                    0.007571
 Thermal correction to Enthalpy=                  0.008515
 Thermal correction to Gibbs Free Energy=        -0.015295
 Sum of electronic and zero-point Energies=           -100.883954
 Sum of electronic and thermal Energies=              -100.881550
 Sum of electronic and thermal Enthalpies=            -100.880606
 Sum of electronic and thermal Free Energies=         -100.904416

                     E (Thermal)             CV                S
                      KCal/Mol        Cal/Mol-Kelvin    Cal/Mol-Kelvin
 Total                    4.751              5.472             50.114
 Electronic               0.000              0.000              1.377
 Translational            0.889              2.981             35.068
 Rotational               0.592              1.987             13.560
 Vibrational              3.270              0.504              0.108

 Normal termination of Gaussian 16 at Fri Aug 22 16:18:53 2025.
