 Gaussian 16, Revision C.01,
 Gaussian 16:  ES64L-G16RevC.01  3-Jul-2019

 -----------------------------------------
 # sp b3lyp/6-311g** Force nosymm scf=(qc)
 -----------------------------------------

 -------------------
 Title Card Required
 -------------------
 Symbolic Z-matrix:
 Charge =  0 Multiplicity = 2

                          Input orientation:
 ---------------------------------------------------------------------
 Center     Atomic      Atomic             Coordinates (Angstroms)
 Number     Number       Type             X           Y           Z
 ---------------------------------------------------------------------
      1          1           0        0.000000    0.000000    0.000000
      2          1           0       -2.550000    0.000000    0.000000
      3          9           0        1.250000    0.000000    0.000000
 ---------------------------------------------------------------------

 SCF Done:  E(UB3LYP) =  -100.914166763     a.u. after    6 cycles

 Alpha  occ. eigenvalues --  -24.64155  -1.11499  -0.46825  -0.37112  -0.37112
 Alpha  occ. eigenvalues --   -0.35274
 Alpha virt. eigenvalues --   -0.06590   0.24159   0.27761   0.93229   0.93229
 Alpha virt. eigenvalues --    1.01552   1.20494   1.22253   1.22253   1.29557
 Alpha virt. eigenvalues --    1.34473   1.34473   1.72499   2.13397   2.27569

  Beta  occ. eigenvalues --  -24.64106  -1.11371  -0.46625  -0.37066  -0.37066
  Beta virt. eigenvalues --   -0.11817  -0.03700   0.27404   0.36437   0.93225
  Beta virt. eigenvalues --    0.93225   1.01667   1.25263   1.34350   1.34350
  Beta virt. eigenvalues --    1.43532   1.43532   1.45030   1.72853   2.27193

 Mulliken charges and spin densities:
               1          2
     1  H    0.349265  -0.002608
     2  H    0.010516   0.987118
     3  F   -0.359781   0.015490
 Sum of Mulliken charges =  -0.00000   1.00000

 Dipole moment (field-independent basis, Debye):
    X=             -2.4760    Y=             -0.0000    Z=              0.0000  Tot=              2.4760
 Quadrupole moment (field-independent basis, Debye-Ang):
   XX=             -8.7015   YY=             -7.1611   ZZ=             -7.1611
   XY=              0.0000   XZ=              0.0000   YZ=             -0.0000

  Exact polarizability:      13.686       0.000       2.322      -0.000       0.000       2.322
 Approx polarizability:      18.318      -0.000       2.275       0.000       0.000       2.275

 ******    1 imaginary frequencies (negative Signs) ******

                      1                      2                      3
                      A                      A                      A
 Frequencies --   -259.7417               328.5886              1164.9794
 Red. masses --      1.0154                 1.0995                 1.0284
 Frc consts  --      0.0404                 0.0699                 0.8223
 IR Inten    --     40.5473                80.0122               126.5045

                      4
                      A
 Frequencies --   1164.9794
 Red. masses --      1.0284
 Frc consts  --      0.8223
 IR Inten    --    126.5045

 - Thermochemistry -
 -------------------
 Temperature   298.150 Kelvin.  Pressure   1.00000 Atm.
 Atom     1 has atomic number  1 and mass   1.00783

 Molecular mass:    21.01405 amu.
 Principal axes and moments of inertia in atomic units:
                           1         2         3
     Eigenvalues --     0.00000  53.19123  53.19123
           X            1.00000  -0.00000   0.00000
           Y            0.00000   1.00000   0.00000
           Z            0.00000   0.00000   1.00000
 This molecule is a prolate symmetric top.
 Rotational symmetry number  1.
 Rotational temperature (Kelvin)      1.62835
 Rotational constant (GHZ):          33.929302
    1 imaginary frequencies ignored.
 Zero-point vibrational energy      15901.6 (Joules/Mol)
                                    3.80058 (Kcal/Mol)
 Warning -- explicit consideration of   1 degrees of freedom as
           vibrations may cause significant error
 Vibrational temperatures:    472.77  1676.15  1676.15
          (Kelvin)

 Zero-point correction=                           0.006057 (Hartree/Particle)
 Thermal correction to Energy=                    0.008841
 Thermal correction to Enthalpy=                  0.009785
 Thermal correction to Gibbs Free Energy=        -0.014042
 Sum of electronic and zero-point Energies=           -100.908110
 Sum of electronic and thermal Energies=              -100.905326
 Sum of electronic and thermal Enthalpies=            -100.904381
 Sum of electronic and thermal Free Energies=         -100.928209

                     E (Thermal)             CV                S
                      KCal/Mol        Cal/Mol-Kelvin    Cal/Mol-Kelvin
 Total                    5.548              7.044             50.149
 Electronic               0.000              0.000              1.377
 Translational            0.889              2.981             35.068
 Rotational               0.592              1.987             12.341
 Vibrational              4.067              2.076              1.363
 Vibration     1          0.712              1.618              1.267

 Normal termination of Gaussian 16 at Fri Aug 22 16:12:58 2025.
