 Gaussian 16, Revision C.01,
 Gaussian 16:  ES64L-G16RevC.01  3-Jul-2019

 -----------------------------------------
 # sp b3lyp/6-311g** Force nosymm scf=(qc)
 -----------------------------------------

 -------------------
 Title Card Required
 -------------------
 Symbolic Z-matrix:
 Charge =  0 Multiplicity = 2

                          Input orientation:
 ---------------------------------------------------------------------
 Center     Atomic      Atomic             Coordinates (Angstroms)
 Number     Number       Type             X           Y           Z
 ---------------------------------------------------------------------
      1          1           0        0.000000    0.000000    0.000000
      2          1           0       -3.400000    0.000000    0.000000
      3          9           0        1.600000    0.000000    0.000000
 ---------------------------------------------------------------------

 SCF Done:  E(UB3LYP) =  -100.833757414     a.u. after    7 cycles

 Alpha  occ. eigenvalues --  -24.64235  -1.09085  -0.41935  -0.36133  -0.36133
 Alpha  occ. eigenvalues --   -0.34132
 Alpha virt. eigenvalues --   -0.16841   0.20033   0.27554   0.94115   0.94115
 Alpha virt. eigenvalues --    1.00916   1.07180   1.23376   1.23376   1.23463
 Alpha virt. eigenvalues --    1.29201   1.29201   1.72841   2.13319   2.16732

  Beta  occ. eigenvalues --  -24.64305  -1.09272  -0.42067  -0.36200  -0.36200
  Beta virt. eigenvalues --   -0.16880  -0.06944   0.23142   0.38019   0.94151
  Beta virt. eigenvalues --    0.94151   1.00901   1.07201   1.29632   1.29632
  Beta virt. eigenvalues --    1.45377   1.45854   1.45854   1.73092   2.16995

 Mulliken charges and spin densities:
               1          2
     1  H    0.337513   0.025038
     2  H    0.002846   0.997034
     3  F   -0.340358  -0.022072
 Sum of Mulliken charges =  -0.00000   1.00000

 Dipole moment (field-independent basis, Debye):
    X=             -2.7172    Y=              0.0000    Z=              0.0000  Tot=              2.7172
 Quadrupole moment (field-independent basis, Debye-Ang):
   XX=            -10.2099   YY=             -7.3734   ZZ=             -7.3734
   XY=              0.0000   XZ=              0.0000   YZ=              0.0000

  Exact polarizability:      18.352       0.000       2.144      -0.000       0.000       2.144
 Approx polarizability:      37.552       0.000       2.062      -0.000       0.000       2.062

 ******    2 imaginary frequencies (negative Signs) ******

                      1                      2                      3
                      A                      A                      A
 Frequencies --  -1177.4029               -94.2220               937.5566
 Red. masses --      1.0570                 1.0546                 1.0290
 Frc consts  --      0.8633                 0.0055                 0.5329
 IR Inten    --     47.5273                 0.4258               107.9388

                      4
                      A
 Frequencies --    937.5566
 Red. masses --      1.0290
 Frc consts  --      0.5329
 IR Inten    --    107.9388

 - Thermochemistry -
 -------------------
 Temperature   298.150 Kelvin.  Pressure   1.00000 Atm.
 Atom     1 has atomic number  1 and mass   1.00783

 Molecular mass:    21.01405 amu.
 Principal axes and moments of inertia in atomic units:
                           1         2         3
     Eigenvalues --     0.00000  91.66992  91.66992
           X            1.00000  -0.00000   0.00000
           Y            0.00000   1.00000   0.00000
           Z            0.00000   0.00000   1.00000
 This molecule is a prolate symmetric top.
 Rotational symmetry number  1.
 Rotational temperature (Kelvin)      0.94485
 Rotational constant (GHZ):          19.687388
    2 imaginary frequencies ignored.
 Zero-point vibrational energy      11215.7 (Joules/Mol)
                                    2.68061 (Kcal/Mol)
 Vibrational temperatures:   1348.93  1348.93
          (Kelvin)

 Zero-point correction=                           0.004272 (Hartree/Particle)
 Thermal correction to Energy=                    0.006726
 Thermal correction to Enthalpy=                  0.007670
 Thermal correction to Gibbs Free Energy=        -0.016138
 Sum of electronic and zero-point Energies=           -100.829486
 Sum of electronic and thermal Energies=              -100.827031
 Sum of electronic and thermal Enthalpies=            -100.826087
 Sum of electronic and thermal Free Energies=         -100.849895

                     E (Thermal)             CV                S
                      KCal/Mol        Cal/Mol-Kelvin    Cal/Mol-Kelvin
 Total                    4.221              5.869             50.108
 Electronic               0.000              0.000              1.377
 Translational            0.889              2.981             35.068
 Rotational               0.592              1.987             13.422
 Vibrational              2.739              0.901              0.240

 Normal termination of Gaussian 16 at Fri Aug 22 16:32:27 2025.
