 Gaussian 16, Revision C.01,
 Gaussian 16:  ES64L-G16RevC.01  3-Jul-2019

 -----------------------------------------
 # sp b3lyp/6-311g** Force nosymm scf=(qc)
 -----------------------------------------

 -------------------
 Title Card Required
 -------------------
 Symbolic Z-matrix:
 Charge =  0 Multiplicity = 2

                          Input orientation:
 ---------------------------------------------------------------------
 Center     Atomic      Atomic             Coordinates (Angstroms)
 Number     Number       Type             X           Y           Z
 ---------------------------------------------------------------------
      1          1           0        0.000000    0.000000    0.000000
      2          1           0       -1.950000    0.000000    0.000000
      3          9           0        0.900000    0.000000    0.000000
 ---------------------------------------------------------------------

 SCF Done:  E(UB3LYP) =  -100.971841688     a.u. after    5 cycles

 Alpha  occ. eigenvalues --  -24.63684  -1.18821  -0.53932  -0.39399  -0.39399
 Alpha  occ. eigenvalues --   -0.35973
 Alpha virt. eigenvalues --    0.06974   0.23972   0.38335   0.94553   0.94553
 Alpha virt. eigenvalues --    0.97756   1.14865   1.21248   1.21248   1.37786
 Alpha virt. eigenvalues --    1.37786   1.51489   1.95602   2.21934   2.38111

  Beta  occ. eigenvalues --  -24.63617  -1.18650  -0.53556  -0.39342  -0.39342
  Beta virt. eigenvalues --   -0.12056   0.09002   0.34054   0.38881   0.94567
  Beta virt. eigenvalues --    0.94567   0.98148   1.24359   1.36366   1.36366
  Beta virt. eigenvalues --    1.42157   1.42157   1.59470   2.00986   2.35170

 Mulliken charges and spin densities:
               1          2
     1  H    0.281121   0.007444
     2  H    0.015181   0.975471
     3  F   -0.296302   0.017084
 Sum of Mulliken charges =   0.00000   1.00000

 Dipole moment (field-independent basis, Debye):
    X=             -2.0423    Y=              0.0000    Z=              0.0000  Tot=              2.0423
 Quadrupole moment (field-independent basis, Debye-Ang):
   XX=             -7.5196   YY=             -6.8249   ZZ=             -6.8249
   XY=              0.0000   XZ=              0.0000   YZ=             -0.0000

  Exact polarizability:       9.099       0.000       2.489      -0.000       0.000       2.489
 Approx polarizability:       9.547      -0.000       2.478       0.000       0.000       2.478

 ******    2 imaginary frequencies (negative Signs) ******

                      1                      2                      3
                      A                      A                      A
 Frequencies --   -645.7948              -645.7948               244.9261
 Red. masses --      1.0294                 1.0294                 1.0529
 Frc consts  --      0.2529                 0.2529                 0.0372
 IR Inten    --    145.2385               145.2385                 1.3258

                      4
                      A
 Frequencies --   4400.5476
 Red. masses --      1.0587
 Frc consts  --     12.0791
 IR Inten    --    179.9171

 - Thermochemistry -
 -------------------
 Temperature   298.150 Kelvin.  Pressure   1.00000 Atm.
 Atom     1 has atomic number  1 and mass   1.00783

 Molecular mass:    21.01405 amu.
 Principal axes and moments of inertia in atomic units:
                           1         2         3
     Eigenvalues --     0.00000  29.72086  29.72086
           X            1.00000  -0.00000   0.00000
           Y            0.00000   1.00000   0.00000
           Z            0.00000   0.00000   1.00000
 This molecule is a prolate symmetric top.
 Rotational symmetry number  1.
 Rotational temperature (Kelvin)      2.91425
 Rotational constant (GHZ):          60.723050
    2 imaginary frequencies ignored.
 Zero-point vibrational energy      27786.1 (Joules/Mol)
                                    6.64104 (Kcal/Mol)
 Warning -- explicit consideration of   1 degrees of freedom as
           vibrations may cause significant error
 Vibrational temperatures:    352.39  6331.41
          (Kelvin)

 Zero-point correction=                           0.010583 (Hartree/Particle)
 Thermal correction to Energy=                    0.013437
 Thermal correction to Enthalpy=                  0.014381
 Thermal correction to Gibbs Free Energy=        -0.009088
 Sum of electronic and zero-point Energies=           -100.961259
 Sum of electronic and thermal Energies=              -100.958404
 Sum of electronic and thermal Enthalpies=            -100.957460
 Sum of electronic and thermal Free Energies=         -100.980930

                     E (Thermal)             CV                S
                      KCal/Mol        Cal/Mol-Kelvin    Cal/Mol-Kelvin
 Total                    8.432              6.739             49.396
 Electronic               0.000              0.000              1.377
 Translational            0.889              2.981             35.068
 Rotational               0.592              1.987             11.184
 Vibrational              6.951              1.771              1.767
 Vibration     1          0.660              1.771              1.767

 Normal termination of Gaussian 16 at Fri Aug 22 15:55:47 2025.
