 Gaussian 16, Revision C.01,
 Gaussian 16:  ES64L-G16RevC.01  3-Jul-2019

 -----------------------------------------
 # sp b3lyp/6-311g** Force nosymm scf=(qc)
 -----------------------------------------

 -------------------
 Title Card Required
 -------------------
 Symbolic Z-matrix:
 Charge =  0 Multiplicity = 2

                          Input orientation:
 ---------------------------------------------------------------------
 Center     Atomic      Atomic             Coordinates (Angstroms)
 Number     Number       Type             X           Y           Z
 ---------------------------------------------------------------------
      1          1           0        0.000000    0.000000    0.000000
      2          1           0       -3.450000    0.000000    0.000000
      3          9           0        2.700000    0.000000    0.000000
 ---------------------------------------------------------------------

 SCF Done:  E(UB3LYP) =  -100.764085820     a.u. after   20 cycles

 Alpha  occ. eigenvalues --  -24.72813  -1.18962  -0.51926  -0.43609  -0.43609
 Alpha  occ. eigenvalues --   -0.32756
 Alpha virt. eigenvalues --   -0.09355   0.23784   0.35649   0.89975   0.93023
 Alpha virt. eigenvalues --    0.93023   1.05609   1.24754   1.24754   1.24959
 Alpha virt. eigenvalues --    1.42250   1.42250   1.43639   2.14696   2.38027

  Beta  occ. eigenvalues --  -24.69880  -1.10585  -0.40680  -0.40680  -0.34611
  Beta virt. eigenvalues --   -0.24021  -0.06758   0.24051   0.37801   0.94446
  Beta virt. eigenvalues --    0.94446   0.97797   1.08704   1.22723   1.22723
  Beta virt. eigenvalues --    1.25592   1.45648   1.45920   1.45920   2.13996

 Mulliken charges and spin densities:
               1          2
     1  H    0.063955  -0.925830
     2  H    0.000786   0.997669
     3  F   -0.064741   0.928161
 Sum of Mulliken charges =  -0.00000   1.00000

 Dipole moment (field-independent basis, Debye):
    X=             -0.9074    Y=             -0.0000    Z=             -0.0000  Tot=              0.9074
 Quadrupole moment (field-independent basis, Debye-Ang):
   XX=             -8.9074   YY=             -7.5916   ZZ=             -7.5916
   XY=             -0.0000   XZ=             -0.0000   YZ=             -0.0000

  Exact polarizability:      32.277       0.000       2.023      -0.000      -0.000       2.023
 Approx polarizability:      37.623      -0.000       1.922      -0.000       0.000       1.922

 ******    2 imaginary frequencies (negative Signs) ******

                      1                      2                      3
                      A                      A                      A
 Frequencies --   -508.7641              -127.3559               189.6949
 Red. masses --      1.0511                 1.0604                 1.0212
 Frc consts  --      0.1603                 0.0101                 0.0217
 IR Inten    --     62.7113                 0.4967                 3.8749

                      4
                      A
 Frequencies --    189.6949
 Red. masses --      1.0212
 Frc consts  --      0.0217
 IR Inten    --      3.8749

 - Thermochemistry -
 -------------------
 Temperature   298.150 Kelvin.  Pressure   1.00000 Atm.
 Atom     1 has atomic number  1 and mass   1.00783

 Molecular mass:    21.01405 amu.
 Principal axes and moments of inertia in atomic units:
                           1         2         3
     Eigenvalues --     0.00000 148.84127 148.84127
           X            1.00000  -0.00000   0.00000
           Y            0.00000   1.00000   0.00000
           Z            0.00000   0.00000   1.00000
 This molecule is a prolate symmetric top.
 Rotational symmetry number  1.
 Rotational temperature (Kelvin)      0.58192
 Rotational constant (GHZ):          12.125274
    2 imaginary frequencies ignored.
 Zero-point vibrational energy       2269.3 (Joules/Mol)
                                    0.54236 (Kcal/Mol)
 Warning -- explicit consideration of   2 degrees of freedom as
           vibrations may cause significant error
 Vibrational temperatures:    272.93   272.93
          (Kelvin)

 Zero-point correction=                           0.000864 (Hartree/Particle)
 Thermal correction to Energy=                    0.004379
 Thermal correction to Enthalpy=                  0.005323
 Thermal correction to Gibbs Free Energy=        -0.020948
 Sum of electronic and zero-point Energies=           -100.763222
 Sum of electronic and thermal Energies=              -100.759707
 Sum of electronic and thermal Enthalpies=            -100.758763
 Sum of electronic and thermal Free Energies=         -100.785034

                     E (Thermal)             CV                S
                      KCal/Mol        Cal/Mol-Kelvin    Cal/Mol-Kelvin
 Total                    2.748              8.676             55.292
 Electronic               0.000              0.000              1.377
 Translational            0.889              2.981             35.068
 Rotational               0.592              1.987             14.385
 Vibrational              1.267              3.708              4.462
 Vibration     1          0.633              1.854              2.231
 Vibration     2          0.633              1.854              2.231

 Normal termination of Gaussian 16 at Fri Aug 22 18:26:51 2025.
