 Gaussian 16, Revision C.01,
 Gaussian 16:  ES64L-G16RevC.01  3-Jul-2019

 -----------------------------------------
 # sp b3lyp/6-311g** Force nosymm scf=(qc)
 -----------------------------------------

 -------------------
 Title Card Required
 -------------------
 Symbolic Z-matrix:
 Charge =  0 Multiplicity = 2

                          Input orientation:
 ---------------------------------------------------------------------
 Center     Atomic      Atomic             Coordinates (Angstroms)
 Number     Number       Type             X           Y           Z
 ---------------------------------------------------------------------
      1          1           0        0.000000    0.000000    0.000000
      2          1           0       -0.750000    0.000000    0.000000
      3          9           0        0.850000    0.000000    0.000000
 ---------------------------------------------------------------------

 SCF Done:  E(UB3LYP) =  -100.896946275     a.u. after    6 cycles

 Alpha  occ. eigenvalues --  -24.66456  -1.25225  -0.65255  -0.42683  -0.42683
 Alpha  occ. eigenvalues --   -0.33278
 Alpha virt. eigenvalues --    0.15702   0.17957   0.66351   0.87137   0.87137
 Alpha virt. eigenvalues --    0.94245   1.09549   1.09549   1.44349   1.75891
 Alpha virt. eigenvalues --    1.77445   1.77445   2.07367   2.45535   3.78241

  Beta  occ. eigenvalues --  -24.65356  -1.22319  -0.59421  -0.41716  -0.41716
  Beta virt. eigenvalues --   -0.15103   0.17335   0.20771   0.71712   0.89204
  Beta virt. eigenvalues --    0.89204   0.96499   1.14444   1.14444   1.46226
  Beta virt. eigenvalues --    1.82505   1.82505   1.84095   2.10484   2.53344

 Mulliken charges and spin densities:
               1          2
     1  H    0.270592  -0.020481
     2  H   -0.050487   0.780847
     3  F   -0.220106   0.239634
 Sum of Mulliken charges =   0.00000   1.00000

 Dipole moment (field-independent basis, Debye):
    X=             -1.2928    Y=              0.0000    Z=             -0.0000  Tot=              1.2928
 Quadrupole moment (field-independent basis, Debye-Ang):
   XX=             -7.5087   YY=             -6.4945   ZZ=             -6.4945
   XY=              0.0000   XZ=             -0.0000   YZ=             -0.0000

  Exact polarizability:      10.878       0.000       2.547       0.000       0.000       2.547
 Approx polarizability:      11.903       0.000       2.616       0.000       0.000       2.616

 ******    2 imaginary frequencies (negative Signs) ******

                      1                      2                      3
                      A                      A                      A
 Frequencies --  -2637.1455             -2637.1455              3046.8728
 Red. masses --      1.0165                 1.0165                 1.0828
 Frc consts  --      4.1651                 4.1651                 5.9223
 IR Inten    --     68.4325                68.4325               146.4084

                      4
                      A
 Frequencies --   5478.2180
 Red. masses --      1.0301
 Frc consts  --     18.2143
 IR Inten    --      3.3511

 - Thermochemistry -
 -------------------
 Temperature   298.150 Kelvin.  Pressure   1.00000 Atm.
 Atom     1 has atomic number  1 and mass   1.00783

 Molecular mass:    21.01405 amu.
 Principal axes and moments of inertia in atomic units:
                           1         2         3
     Eigenvalues --     0.00000  10.77767  10.77767
           X            1.00000  -0.00000   0.00000
           Y            0.00000   1.00000   0.00000
           Z            0.00000   0.00000   1.00000
 This molecule is a prolate symmetric top.
 Rotational symmetry number  1.
 Rotational temperature (Kelvin)      8.03642
 Rotational constant (GHZ):         167.451850
    2 imaginary frequencies ignored.
 Zero-point vibrational energy      50991.4 (Joules/Mol)
                                   12.18723 (Kcal/Mol)
 Vibrational temperatures:   4383.77  7881.93
          (Kelvin)

 Zero-point correction=                           0.019422 (Hartree/Particle)
 Thermal correction to Energy=                    0.021782
 Thermal correction to Enthalpy=                  0.022726
 Thermal correction to Gibbs Free Energy=         0.001054
 Sum of electronic and zero-point Energies=           -100.877525
 Sum of electronic and thermal Energies=              -100.875164
 Sum of electronic and thermal Enthalpies=            -100.874220
 Sum of electronic and thermal Free Energies=         -100.895893

                     E (Thermal)             CV                S
                      KCal/Mol        Cal/Mol-Kelvin    Cal/Mol-Kelvin
 Total                   13.668              4.968             45.614
 Electronic               0.000              0.000              1.377
 Translational            0.889              2.981             35.068
 Rotational               0.592              1.987              9.168
 Vibrational             12.187              0.000              0.000

 Normal termination of Gaussian 16 at Fri Aug 22 15:52:35 2025.
