 Gaussian 16, Revision C.01,
 Gaussian 16:  ES64L-G16RevC.01  3-Jul-2019

 -----------------------------------------
 # sp b3lyp/6-311g** Force nosymm scf=(qc)
 -----------------------------------------

 -------------------
 Title Card Required
 -------------------
 Symbolic Z-matrix:
 Charge =  0 Multiplicity = 2

                          Input orientation:
 ---------------------------------------------------------------------
 Center     Atomic      Atomic             Coordinates (Angstroms)
 Number     Number       Type             X           Y           Z
 ---------------------------------------------------------------------
      1          1           0        0.000000    0.000000    0.000000
      2          1           0       -3.900000    0.000000    0.000000
      3          9           0        1.100000    0.000000    0.000000
 ---------------------------------------------------------------------

 SCF Done:  E(UB3LYP) =  -100.948402335     a.u. after    6 cycles

 Alpha  occ. eigenvalues --  -24.64304  -1.13874  -0.49618  -0.38110  -0.38110
 Alpha  occ. eigenvalues --   -0.33479
 Alpha virt. eigenvalues --   -0.02516   0.22888   0.31117   0.93561   0.93561
 Alpha virt. eigenvalues --    0.99597   1.23974   1.24028   1.24028   1.28336
 Alpha virt. eigenvalues --    1.35204   1.35204   1.79355   2.13694   2.31679

  Beta  occ. eigenvalues --  -24.64303  -1.13872  -0.49615  -0.38109  -0.38109
  Beta virt. eigenvalues --   -0.05564  -0.02037   0.29353   0.39335   0.93561
  Beta virt. eigenvalues --    0.93561   0.99600   1.28325   1.35202   1.35202
  Beta virt. eigenvalues --    1.49871   1.49898   1.49898   1.79379   2.31108

 Mulliken charges and spin densities:
               1          2
     1  H    0.340702   0.000155
     2  H    0.000459   0.999500
     3  F   -0.341161   0.000345
 Sum of Mulliken charges =   0.00000   1.00000

 Dipole moment (field-independent basis, Debye):
    X=             -2.1606    Y=              0.0000    Z=             -0.0000  Tot=              2.1606
 Quadrupole moment (field-independent basis, Debye-Ang):
   XX=             -8.5901   YY=             -7.0486   ZZ=             -7.0486
   XY=              0.0000   XZ=             -0.0000   YZ=              0.0000

  Exact polarizability:       7.661      -0.000       2.362       0.000      -0.000       2.362
 Approx polarizability:      10.185      -0.000       2.325       0.000      -0.000       2.325

 ******    1 imaginary frequencies (negative Signs) ******

                      1                      2                      3
                      A                      A                      A
 Frequencies --    -32.9232              1189.6715              1189.6715
 Red. masses --      1.0532                 1.0372                 1.0372
 Frc consts  --      0.0007                 0.8649                 0.8649
 IR Inten    --      0.0192               159.3493               159.3493

                      4
                      A
 Frequencies --   1941.4043
 Red. masses --      1.0583
 Frc consts  --      2.3502
 IR Inten    --     74.7368

 - Thermochemistry -
 -------------------
 Temperature   298.150 Kelvin.  Pressure   1.00000 Atm.
 Atom     1 has atomic number  1 and mass   1.00783

 Molecular mass:    21.01405 amu.
 Principal axes and moments of inertia in atomic units:
                           1         2         3
     Eigenvalues --     0.00000  87.90731  87.90731
           X            1.00000  -0.00000   0.00000
           Y            0.00000   1.00000   0.00000
           Z            0.00000   0.00000   1.00000
 This molecule is a prolate symmetric top.
 Rotational symmetry number  1.
 Rotational temperature (Kelvin)      0.98529
 Rotational constant (GHZ):          20.530047
    1 imaginary frequencies ignored.
 Zero-point vibrational energy      25843.8 (Joules/Mol)
                                    6.17682 (Kcal/Mol)
 Vibrational temperatures:   1711.67  1711.67  2793.25
          (Kelvin)

 Zero-point correction=                           0.009843 (Hartree/Particle)
 Thermal correction to Energy=                    0.012240
 Thermal correction to Enthalpy=                  0.013184
 Thermal correction to Gibbs Free Energy=        -0.010512
 Sum of electronic and zero-point Energies=           -100.938559
 Sum of electronic and thermal Energies=              -100.936163
 Sum of electronic and thermal Enthalpies=            -100.935219
 Sum of electronic and thermal Free Energies=         -100.958915

                     E (Thermal)             CV                S
                      KCal/Mol        Cal/Mol-Kelvin    Cal/Mol-Kelvin
 Total                    7.680              5.406             49.872
 Electronic               0.000              0.000              1.377
 Translational            0.889              2.981             35.068
 Rotational               0.592              1.987             13.339
 Vibrational              6.199              0.438              0.088

 Normal termination of Gaussian 16 at Fri Aug 22 16:06:34 2025.
