 Gaussian 16, Revision C.01,
 Gaussian 16:  ES64L-G16RevC.01  3-Jul-2019

 -----------------------------------------
 # sp b3lyp/6-311g** Force nosymm scf=(qc)
 -----------------------------------------

 -------------------
 Title Card Required
 -------------------
 Symbolic Z-matrix:
 Charge =  0 Multiplicity = 2

                          Input orientation:
 ---------------------------------------------------------------------
 Center     Atomic      Atomic             Coordinates (Angstroms)
 Number     Number       Type             X           Y           Z
 ---------------------------------------------------------------------
      1          1           0        0.000000    0.000000    0.000000
      2          1           0       -3.150000    0.000000    0.000000
      3          9           0        3.850000    0.000000    0.000000
 ---------------------------------------------------------------------

 SCF Done:  E(UB3LYP) =  -100.759211702     a.u. after   30 cycles

 Alpha  occ. eigenvalues --  -24.75799  -1.21732  -0.54923  -0.46115  -0.46115
 Alpha  occ. eigenvalues --   -0.32325
 Alpha virt. eigenvalues --   -0.07383   0.24807   0.36868   0.86769   0.91221
 Alpha virt. eigenvalues --    0.91221   1.01204   1.25196   1.25196   1.25662
 Alpha virt. eigenvalues --    1.44691   1.44856   1.44856   2.15594   2.40091

  Beta  occ. eigenvalues --  -24.72659  -1.12703  -0.42967  -0.42967  -0.32556
  Beta virt. eigenvalues --   -0.25693  -0.07114   0.24632   0.37253   0.92719
  Beta virt. eigenvalues --    0.92719   0.96102   1.05312   1.24942   1.24942
  Beta virt. eigenvalues --    1.25389   1.45104   1.45266   1.45266   2.15647

 Mulliken charges and spin densities:
               1          2
     1  H    0.003712  -0.990437
     2  H    0.000223   0.994822
     3  F   -0.003935   0.995616
 Sum of Mulliken charges =   0.00000   1.00000

 Dipole moment (field-independent basis, Debye):
    X=             -0.0816    Y=              0.0000    Z=             -0.0000  Tot=              0.0816
 Quadrupole moment (field-independent basis, Debye-Ang):
   XX=             -6.9585   YY=             -7.6312   ZZ=             -7.6312
   XY=              0.0000   XZ=             -0.0000   YZ=              0.0000

  Exact polarizability:      15.544       0.000       2.030      -0.000      -0.000       2.030
 Approx polarizability:      11.518       0.000       1.935      -0.000      -0.000       1.935

 ******    2 imaginary frequencies (negative Signs) ******

                      1                      2                      3
                      A                      A                      A
 Frequencies --   -284.3462               -85.5750                98.9017
 Red. masses --      1.0089                 1.1072                 1.0157
 Frc consts  --      0.0481                 0.0048                 0.0059
 IR Inten    --      1.5090                 1.1064                 0.0125

                      4
                      A
 Frequencies --     98.9017
 Red. masses --      1.0157
 Frc consts  --      0.0059
 IR Inten    --      0.0125

 - Thermochemistry -
 -------------------
 Temperature   298.150 Kelvin.  Pressure   1.00000 Atm.
 Atom     1 has atomic number  1 and mass   1.00783

 Molecular mass:    21.01405 amu.
 Principal axes and moments of inertia in atomic units:
                           1         2         3
     Eigenvalues --     0.00000 209.37801 209.37801
           X            1.00000  -0.00000   0.00000
           Y            0.00000   1.00000   0.00000
           Z            0.00000   0.00000   1.00000
 This molecule is a prolate symmetric top.
 Rotational symmetry number  1.
 Rotational temperature (Kelvin)      0.41367
 Rotational constant (GHZ):           8.619536
    2 imaginary frequencies ignored.
 Zero-point vibrational energy       1183.1 (Joules/Mol)
                                    0.28277 (Kcal/Mol)
 Warning -- explicit consideration of   2 degrees of freedom as
           vibrations may cause significant error
 Vibrational temperatures:    142.30   142.30
          (Kelvin)

 Zero-point correction=                           0.000451 (Hartree/Particle)
 Thermal correction to Energy=                    0.004285
 Thermal correction to Enthalpy=                  0.005229
 Thermal correction to Gibbs Free Energy=        -0.022548
 Sum of electronic and zero-point Energies=           -100.758761
 Sum of electronic and thermal Energies=              -100.754927
 Sum of electronic and thermal Enthalpies=            -100.753983
 Sum of electronic and thermal Free Energies=         -100.781760

                     E (Thermal)             CV                S
                      KCal/Mol        Cal/Mol-Kelvin    Cal/Mol-Kelvin
 Total                    2.689              8.868             58.461
 Electronic               0.000              0.000              1.377
 Translational            0.889              2.981             35.068
 Rotational               0.592              1.987             15.064
 Vibrational              1.207              3.900              6.952
 Vibration     1          0.604              1.950              3.476
 Vibration     2          0.604              1.950              3.476

 Normal termination of Gaussian 16 at Sat Aug 23 01:10:20 2025.
