 Gaussian 16, Revision C.01,
 Gaussian 16:  ES64L-G16RevC.01  3-Jul-2019

 -----------------------------------------
 # sp b3lyp/6-311g** Force nosymm scf=(qc)
 -----------------------------------------

 -------------------
 Title Card Required
 -------------------
 Symbolic Z-matrix:
 Charge =  0 Multiplicity = 2

                          Input orientation:
 ---------------------------------------------------------------------
 Center     Atomic      Atomic             Coordinates (Angstroms)
 Number     Number       Type             X           Y           Z
 ---------------------------------------------------------------------
      1          1           0        0.000000    0.000000    0.000000
      2          1           0       -3.600000    0.000000    0.000000
      3          9           0        2.150000    0.000000    0.000000
 ---------------------------------------------------------------------

 SCF Done:  E(UB3LYP) =  -100.778357154     a.u. after   17 cycles

 Alpha  occ. eigenvalues --  -24.66773  -1.08430  -0.38160  -0.38160  -0.37061
 Alpha  occ. eigenvalues --   -0.33124
 Alpha virt. eigenvalues --   -0.21641   0.20447   0.27760   0.90790   0.95641
 Alpha virt. eigenvalues --    0.95641   1.08183   1.21525   1.21525   1.24336
 Alpha virt. eigenvalues --    1.24336   1.24370   1.44731   2.10638   2.15538

  Beta  occ. eigenvalues --  -24.69341  -1.15662  -0.48382  -0.40703  -0.40703
  Beta virt. eigenvalues --   -0.12904  -0.04674   0.30487   0.40087   0.88357
  Beta virt. eigenvalues --    0.94649   0.94649   1.05942   1.37057   1.37057
  Beta virt. eigenvalues --    1.47753   1.47753   1.47959   1.53856   2.31531

 Mulliken charges and spin densities:
               1          2
     1  H    0.155764   0.809478
     2  H    0.000922   0.999100
     3  F   -0.156686  -0.808578
 Sum of Mulliken charges =   0.00000   1.00000

 Dipole moment (field-independent basis, Debye):
    X=             -1.6980    Y=              0.0000    Z=              0.0000  Tot=              1.6980
 Quadrupole moment (field-independent basis, Debye-Ang):
   XX=             -9.9340   YY=             -7.5089   ZZ=             -7.5089
   XY=              0.0000   XZ=             -0.0000   YZ=              0.0000

  Exact polarizability:      27.636      -0.000       2.045      -0.000      -0.000       2.045
 Approx polarizability:      38.942      -0.000       1.933      -0.000       0.000       1.933

 ******    1 imaginary frequencies (negative Signs) ******

                      1                      2                      3
                      A                      A                      A
 Frequencies --   -912.3348                63.2239               383.8065
 Red. masses --      1.0591                 1.0525                 1.0252
 Frc consts  --      0.5194                 0.0025                 0.0890
 IR Inten    --    104.2915                 0.1297                23.0601

                      4
                      A
 Frequencies --    383.8065
 Red. masses --      1.0252
 Frc consts  --      0.0890
 IR Inten    --     23.0601

 - Thermochemistry -
 -------------------
 Temperature   298.150 Kelvin.  Pressure   1.00000 Atm.
 Atom     1 has atomic number  1 and mass   1.00783

 Molecular mass:    21.01405 amu.
 Principal axes and moments of inertia in atomic units:
                           1         2         3
     Eigenvalues --     0.00000 124.85624 124.85624
           X            1.00000  -0.00000   0.00000
           Y            0.00000   1.00000   0.00000
           Z            0.00000   0.00000   1.00000
 This molecule is a prolate symmetric top.
 Rotational symmetry number  1.
 Rotational temperature (Kelvin)      0.69371
 Rotational constant (GHZ):          14.454554
    1 imaginary frequencies ignored.
 Zero-point vibrational energy       4969.5 (Joules/Mol)
                                    1.18774 (Kcal/Mol)
 Warning -- explicit consideration of   3 degrees of freedom as
           vibrations may cause significant error
 Vibrational temperatures:     90.97   552.21   552.21
          (Kelvin)

 Zero-point correction=                           0.001893 (Hartree/Particle)
 Thermal correction to Energy=                    0.005712
 Thermal correction to Enthalpy=                  0.006656
 Thermal correction to Gibbs Free Energy=        -0.020372
 Sum of electronic and zero-point Energies=           -100.776464
 Sum of electronic and thermal Energies=              -100.772646
 Sum of electronic and thermal Enthalpies=            -100.771701
 Sum of electronic and thermal Free Energies=         -100.798729

                     E (Thermal)             CV                S
                      KCal/Mol        Cal/Mol-Kelvin    Cal/Mol-Kelvin
 Total                    3.584              9.949             56.884
 Electronic               0.000              0.000              1.377
 Translational            0.889              2.981             35.068
 Rotational               0.592              1.987             14.036
 Vibrational              2.103              4.981              6.402
 Vibration     1          0.597              1.972              4.354
 Vibration     2          0.753              1.505              1.024
 Vibration     3          0.753              1.505              1.024

 Normal termination of Gaussian 16 at Fri Aug 22 17:09:12 2025.
