 Gaussian 16, Revision C.01,
 Gaussian 16:  ES64L-G16RevC.01  3-Jul-2019

 -----------------------------------------
 # sp b3lyp/6-311g** Force nosymm scf=(qc)
 -----------------------------------------

 -------------------
 Title Card Required
 -------------------
 Symbolic Z-matrix:
 Charge =  0 Multiplicity = 2

                          Input orientation:
 ---------------------------------------------------------------------
 Center     Atomic      Atomic             Coordinates (Angstroms)
 Number     Number       Type             X           Y           Z
 ---------------------------------------------------------------------
      1          1           0        0.000000    0.000000    0.000000
      2          1           0       -2.850000    0.000000    0.000000
      3          9           0        1.300000    0.000000    0.000000
 ---------------------------------------------------------------------

 SCF Done:  E(UB3LYP) =  -100.901605567     a.u. after    7 cycles

 Alpha  occ. eigenvalues --  -24.64267  -1.11041  -0.46024  -0.36982  -0.36982
 Alpha  occ. eigenvalues --   -0.34743
 Alpha virt. eigenvalues --   -0.08601   0.22923   0.27823   0.93093   0.93093
 Alpha virt. eigenvalues --    1.02115   1.21279   1.22785   1.22785   1.24702
 Alpha virt. eigenvalues --    1.33920   1.33920   1.71422   2.13862   2.25347

  Beta  occ. eigenvalues --  -24.64237  -1.10963  -0.45919  -0.36954  -0.36954
  Beta virt. eigenvalues --   -0.11259  -0.05420   0.26158   0.37178   0.93089
  Beta virt. eigenvalues --    0.93089   1.02192   1.22489   1.33837   1.33837
  Beta virt. eigenvalues --    1.44718   1.44851   1.44851   1.71646   2.25221

 Mulliken charges and spin densities:
               1          2
     1  H    0.354135  -0.002391
     2  H    0.006199   0.992844
     3  F   -0.360334   0.009547
 Sum of Mulliken charges =   0.00000   1.00000

 Dipole moment (field-independent basis, Debye):
    X=             -2.4795    Y=              0.0000    Z=             -0.0000  Tot=              2.4795
 Quadrupole moment (field-independent basis, Debye-Ang):
   XX=             -8.9932   YY=             -7.1998   ZZ=             -7.1998
   XY=              0.0000   XZ=             -0.0000   YZ=             -0.0000

  Exact polarizability:      13.388      -0.000       2.289      -0.000       0.000       2.289
 Approx polarizability:      19.303       0.000       2.235      -0.000      -0.000       2.235

 ******    2 imaginary frequencies (negative Signs) ******

                      1                      2                      3
                      A                      A                      A
 Frequencies --   -656.3367              -125.6128              1146.8502
 Red. masses --      1.0492                 1.0624                 1.0295
 Frc consts  --      0.2663                 0.0099                 0.7978
 IR Inten    --     88.0947                 0.0832               128.1325

                      4
                      A
 Frequencies --   1146.8502
 Red. masses --      1.0295
 Frc consts  --      0.7978
 IR Inten    --    128.1325

 - Thermochemistry -
 -------------------
 Temperature   298.150 Kelvin.  Pressure   1.00000 Atm.
 Atom     1 has atomic number  1 and mass   1.00783

 Molecular mass:    21.01405 amu.
 Principal axes and moments of inertia in atomic units:
                           1         2         3
     Eigenvalues --     0.00000  62.93939  62.93939
           X            1.00000  -0.00000   0.00000
           Y            0.00000   1.00000   0.00000
           Z            0.00000   0.00000   1.00000
 This molecule is a prolate symmetric top.
 Rotational symmetry number  1.
 Rotational temperature (Kelvin)      1.37615
 Rotational constant (GHZ):          28.674271
    2 imaginary frequencies ignored.
 Zero-point vibrational energy      13719.4 (Joules/Mol)
                                    3.27901 (Kcal/Mol)
 Vibrational temperatures:   1650.06  1650.06
          (Kelvin)

 Zero-point correction=                           0.005225 (Hartree/Particle)
 Thermal correction to Energy=                    0.007627
 Thermal correction to Enthalpy=                  0.008572
 Thermal correction to Gibbs Free Energy=        -0.014816
 Sum of electronic and zero-point Energies=           -100.896380
 Sum of electronic and thermal Energies=              -100.893978
 Sum of electronic and thermal Enthalpies=            -100.893034
 Sum of electronic and thermal Free Energies=         -100.916422

                     E (Thermal)             CV                S
                      KCal/Mol        Cal/Mol-Kelvin    Cal/Mol-Kelvin
 Total                    4.786              5.453             49.223
 Electronic               0.000              0.000              1.377
 Translational            0.889              2.981             35.068
 Rotational               0.592              1.987             12.675
 Vibrational              3.305              0.485              0.103

 Normal termination of Gaussian 16 at Fri Aug 22 16:15:38 2025.
