 Gaussian 16, Revision C.01,
 Gaussian 16:  ES64L-G16RevC.01  3-Jul-2019

 -----------------------------------------
 # sp b3lyp/6-311g** Force nosymm scf=(qc)
 -----------------------------------------

 -------------------
 Title Card Required
 -------------------
 Symbolic Z-matrix:
 Charge =  0 Multiplicity = 2

                          Input orientation:
 ---------------------------------------------------------------------
 Center     Atomic      Atomic             Coordinates (Angstroms)
 Number     Number       Type             X           Y           Z
 ---------------------------------------------------------------------
      1          1           0        0.000000    0.000000    0.000000
      2          1           0       -0.750000    0.000000    0.000000
      3          9           0        2.700000    0.000000    0.000000
 ---------------------------------------------------------------------

 SCF Done:  E(UB3LYP) =  -100.934540529     a.u. after  115 cycles

 Alpha  occ. eigenvalues --  -24.76802  -1.22583  -0.55766  -0.47162  -0.46913
 Alpha  occ. eigenvalues --   -0.42774
 Alpha virt. eigenvalues --    0.06499   0.20267   0.47733   0.85721   0.90589
 Alpha virt. eigenvalues --    0.93685   1.08763   1.08777   1.09625   1.55428
 Alpha virt. eigenvalues --    1.82619   1.82633   1.98548   2.39516   3.28459

  Beta  occ. eigenvalues --  -24.73638  -1.13492  -0.44330  -0.43741  -0.42430
  Beta virt. eigenvalues --   -0.26379   0.06569   0.20313   0.47845   0.92086
  Beta virt. eigenvalues --    0.95170   0.95614   1.08767   1.08776   1.13169
  Beta virt. eigenvalues --    1.55432   1.82618   1.82632   1.98567   2.39525

 Mulliken charges and spin densities:
               1          2
     1  H   -0.007396  -0.001675
     2  H   -0.005769  -0.000228
     3  F    0.013165   1.001904
 Sum of Mulliken charges =   0.00000   1.00000

 Dipole moment (field-independent basis, Debye):
    X=              0.1293    Y=             -0.0000    Z=             -0.0000  Tot=              0.1293
 Quadrupole moment (field-independent basis, Debye-Ang):
   XX=             -6.0359   YY=             -6.9501   ZZ=             -6.1121
   XY=             -0.0000   XZ=              0.0000   YZ=             -0.1036

  Exact polarizability:       8.842       0.000       1.981       0.000      -0.054       2.419
 Approx polarizability:      10.021      -0.000       2.060       0.000      -0.069       2.614

                      1                      2                      3
                      A                      A                      A
 Frequencies --    126.2481               433.0453               446.3651
 Red. masses --      1.1085                 1.0093                 1.0093
 Frc consts  --      0.0104                 0.1115                 0.1185
 IR Inten    --      0.4349                 0.0162                 0.0163

                      4
                      A
 Frequencies --   4338.5114
 Red. masses --      1.0078
 Frc consts  --     11.1768
 IR Inten    --      1.5315

 - Thermochemistry -
 -------------------
 Temperature   298.150 Kelvin.  Pressure   1.00000 Atm.
 Atom     1 has atomic number  1 and mass   1.00783

 Molecular mass:    21.01405 amu.
 Principal axes and moments of inertia in atomic units:
                           1         2         3
     Eigenvalues --     0.00000  62.54555  62.54555
           X            1.00000  -0.00000   0.00000
           Y            0.00000   1.00000   0.00000
           Z            0.00000   0.00000   1.00000
 This molecule is a prolate symmetric top.
 Rotational symmetry number  1.
 Rotational temperature (Kelvin)      1.38481
 Rotational constant (GHZ):          28.854832
 Zero-point vibrational energy      31965.2 (Joules/Mol)
                                    7.63987 (Kcal/Mol)
 Warning -- explicit consideration of   3 degrees of freedom as
           vibrations may cause significant error
 Vibrational temperatures:    181.64   623.06   642.22  6242.15
          (Kelvin)

 Zero-point correction=                           0.012175 (Hartree/Particle)
 Thermal correction to Energy=                    0.015766
 Thermal correction to Enthalpy=                  0.016711
 Thermal correction to Gibbs Free Energy=        -0.008835
 Sum of electronic and zero-point Energies=           -100.922366
 Sum of electronic and thermal Energies=              -100.918774
 Sum of electronic and thermal Enthalpies=            -100.917830
 Sum of electronic and thermal Free Energies=         -100.943376

                     E (Thermal)             CV                S
                      KCal/Mol        Cal/Mol-Kelvin    Cal/Mol-Kelvin
 Total                    9.894              9.662             53.766
 Electronic               0.000              0.000              1.377
 Translational            0.889              2.981             35.068
 Rotational               0.592              1.987             12.663
 Vibrational              8.412              4.694              4.658
 Vibration     1          0.611              1.927              3.002
 Vibration     2          0.794              1.398              0.849
 Vibration     3          0.806              1.369              0.807

 Normal termination of Gaussian 16 at Fri Aug 22 18:18:33 2025.
