 Gaussian 16, Revision C.01,
 Gaussian 16:  ES64L-G16RevC.01  3-Jul-2019

 -----------------------------------------
 # sp b3lyp/6-311g** Force nosymm scf=(qc)
 -----------------------------------------

 -------------------
 Title Card Required
 -------------------
 Symbolic Z-matrix:
 Charge =  0 Multiplicity = 2

                          Input orientation:
 ---------------------------------------------------------------------
 Center     Atomic      Atomic             Coordinates (Angstroms)
 Number     Number       Type             X           Y           Z
 ---------------------------------------------------------------------
      1          1           0        0.000000    0.000000    0.000000
      2          1           0       -1.200000    0.000000    0.000000
      3          9           0        2.600000    0.000000    0.000000
 ---------------------------------------------------------------------

 SCF Done:  E(UB3LYP) =  -100.872543719     a.u. after  242 cycles

 Alpha  occ. eigenvalues --  -24.76348  -1.22203  -0.55376  -0.46731  -0.46571
 Alpha  occ. eigenvalues --   -0.36533
 Alpha virt. eigenvalues --   -0.03926   0.23015   0.35153   0.86772   0.90788
 Alpha virt. eigenvalues --    0.92654   1.07667   1.12629   1.12639   1.22889
 Alpha virt. eigenvalues --    1.54137   1.54146   2.07881   2.31869   2.55548

  Beta  occ. eigenvalues --  -24.73221  -1.13227  -0.43639  -0.43438  -0.36392
  Beta virt. eigenvalues --   -0.26313  -0.03715   0.23149   0.35410   0.92268
  Beta virt. eigenvalues --    0.93453   0.96641   1.11414   1.12749   1.12754
  Beta virt. eigenvalues --    1.23257   1.54235   1.54244   2.08031   2.32021

 Mulliken charges and spin densities:
               1          2
     1  H   -0.001891  -0.012979
     2  H    0.001797   0.023517
     3  F    0.000094   0.989462
 Sum of Mulliken charges =   0.00000   1.00000

 Dipole moment (field-independent basis, Debye):
    X=             -0.0473    Y=             -0.0004    Z=              0.0026  Tot=              0.0474
 Quadrupole moment (field-independent basis, Debye-Ang):
   XX=             -6.1004   YY=             -7.4804   ZZ=             -6.9628
   XY=             -0.0624   XZ=              0.4034   YZ=             -0.0821

  Exact polarizability:      71.210       0.488       2.084       0.083      -0.046       2.370
 Approx polarizability:      34.022      -0.013       2.129       0.087      -0.055       2.474

 ******    2 imaginary frequencies (negative Signs) ******

                      1                      2                      3
                      A                      A                      A
 Frequencies --   -838.2520              -112.5895              1458.3333
 Red. masses --      1.0142                 1.1008                 1.0113
 Frc consts  --      0.4199                 0.0082                 1.2672
 IR Inten    --    918.8976                 5.3809                 0.6595

                      4
                      A
 Frequencies --   1472.9587
 Red. masses --      1.0113
 Frc consts  --      1.2927
 IR Inten    --     18.0868

 - Thermochemistry -
 -------------------
 Temperature   298.150 Kelvin.  Pressure   1.00000 Atm.
 Atom     1 has atomic number  1 and mass   1.00783

 Molecular mass:    21.01405 amu.
 Principal axes and moments of inertia in atomic units:
                           1         2         3
     Eigenvalues --     0.00000  69.22900  69.22900
           X            1.00000  -0.00000   0.00000
           Y            0.00000   1.00000   0.00000
           Z            0.00000   0.00000   1.00000
 This molecule is a prolate symmetric top.
 Rotational symmetry number  1.
 Rotational temperature (Kelvin)      1.25112
 Rotational constant (GHZ):          26.069150
    2 imaginary frequencies ignored.
 Zero-point vibrational energy      17533.0 (Joules/Mol)
                                    4.19049 (Kcal/Mol)
 Vibrational temperatures:   2098.22  2119.26
          (Kelvin)

 Zero-point correction=                           0.006678 (Hartree/Particle)
 Thermal correction to Energy=                    0.009050
 Thermal correction to Enthalpy=                  0.009994
 Thermal correction to Gibbs Free Energy=        -0.013448
 Sum of electronic and zero-point Energies=           -100.865866
 Sum of electronic and thermal Energies=              -100.863494
 Sum of electronic and thermal Enthalpies=            -100.862550
 Sum of electronic and thermal Free Energies=         -100.885991

                     E (Thermal)             CV                S
                      KCal/Mol        Cal/Mol-Kelvin    Cal/Mol-Kelvin
 Total                    5.679              5.137             49.337
 Electronic               0.000              0.000              1.377
 Translational            0.889              2.981             35.068
 Rotational               0.592              1.987             12.864
 Vibrational              4.198              0.169              0.027

 Normal termination of Gaussian 16 at Fri Aug 22 18:02:22 2025.
