 Gaussian 16, Revision C.01,
 Gaussian 16:  ES64L-G16RevC.01  3-Jul-2019

 -----------------------------------------
 # sp b3lyp/6-311g** Force nosymm scf=(qc)
 -----------------------------------------

 -------------------
 Title Card Required
 -------------------
 Symbolic Z-matrix:
 Charge =  0 Multiplicity = 2

                          Input orientation:
 ---------------------------------------------------------------------
 Center     Atomic      Atomic             Coordinates (Angstroms)
 Number     Number       Type             X           Y           Z
 ---------------------------------------------------------------------
      1          1           0        0.000000    0.000000    0.000000
      2          1           0       -0.700000    0.000000    0.000000
      3          9           0        3.700000    0.000000    0.000000
 ---------------------------------------------------------------------

 SCF Done:  E(UB3LYP) =  -100.932407402     a.u. after  143 cycles

 Alpha  occ. eigenvalues --  -24.76260  -1.22135  -0.55337  -0.46524  -0.46492
 Alpha  occ. eigenvalues --   -0.44226
 Alpha virt. eigenvalues --    0.06697   0.19487   0.48228   0.86054   0.90930
 Alpha virt. eigenvalues --    0.92336   1.01481   1.08925   1.08927   1.57457
 Alpha virt. eigenvalues --    1.85825   1.85828   1.89612   2.37790   3.56879

  Beta  occ. eigenvalues --  -24.73103  -1.13058  -0.44254  -0.43331  -0.43327
  Beta virt. eigenvalues --   -0.25981   0.06709   0.19494   0.48272   0.92430
  Beta virt. eigenvalues --    0.93835   0.95518   1.05573   1.08925   1.08927
  Beta virt. eigenvalues --    1.57461   1.85824   1.85827   1.89627   2.37791

 Mulliken charges and spin densities:
               1          2
     1  H   -0.000859  -0.000321
     2  H   -0.001839   0.000021
     3  F    0.002698   1.000300
 Sum of Mulliken charges =   0.00000   1.00000

 Dipole moment (field-independent basis, Debye):
    X=              0.0347    Y=              0.0000    Z=             -0.0000  Tot=              0.0347
 Quadrupole moment (field-independent basis, Debye-Ang):
   XX=             -6.2291   YY=             -6.1103   ZZ=             -6.7899
   XY=              0.0000   XZ=              0.0000   YZ=              0.2671

  Exact polarizability:       7.526       0.000       2.345       0.000       0.144       1.979
 Approx polarizability:       8.514       0.000       2.528       0.000       0.180       2.070

 ******    3 imaginary frequencies (negative Signs) ******

                      1                      2                      3
                      A                      A                      A
 Frequencies --  -1180.1085             -1178.2905               -54.2579
 Red. masses --      1.0086                 1.0086                 1.1085
 Frc consts  --      0.8276                 0.8250                 0.0019
 IR Inten    --      0.0004                 0.0003                 0.0907

                      4
                      A
 Frequencies --   5087.5468
 Red. masses --      1.0078
 Frc consts  --     15.3692
 IR Inten    --      0.0323

 - Thermochemistry -
 -------------------
 Temperature   298.150 Kelvin.  Pressure   1.00000 Atm.
 Atom     1 has atomic number  1 and mass   1.00783

 Molecular mass:    21.01405 amu.
 Principal axes and moments of inertia in atomic units:
                           1         2         3
     Eigenvalues --     0.00000 107.62249 107.62249
           X            1.00000  -0.00000   0.00000
           Y            0.00000   1.00000   0.00000
           Z            0.00000   0.00000   1.00000
 This molecule is a prolate symmetric top.
 Rotational symmetry number  1.
 Rotational temperature (Kelvin)      0.80479
 Rotational constant (GHZ):          16.769182
    3 imaginary frequencies ignored.
 Zero-point vibrational energy      30430.3 (Joules/Mol)
                                    7.27301 (Kcal/Mol)
 Vibrational temperatures:   7319.85
          (Kelvin)

 Zero-point correction=                           0.011590 (Hartree/Particle)
 Thermal correction to Energy=                    0.013951
 Thermal correction to Enthalpy=                  0.014895
 Thermal correction to Gibbs Free Energy=        -0.008950
 Sum of electronic and zero-point Energies=           -100.920817
 Sum of electronic and thermal Energies=              -100.918457
 Sum of electronic and thermal Enthalpies=            -100.917512
 Sum of electronic and thermal Free Energies=         -100.941358

                     E (Thermal)             CV                S
                      KCal/Mol        Cal/Mol-Kelvin    Cal/Mol-Kelvin
 Total                    8.754              4.968             50.186
 Electronic               0.000              0.000              1.377
 Translational            0.889              2.981             35.068
 Rotational               0.592              1.987             13.741
 Vibrational              7.273              0.000              0.000

 Normal termination of Gaussian 16 at Fri Aug 22 23:41:32 2025.
