 Gaussian 16, Revision C.01,
 Gaussian 16:  ES64L-G16RevC.01  3-Jul-2019

 -----------------------------------------
 # sp b3lyp/6-311g** Force nosymm scf=(qc)
 -----------------------------------------

 -------------------
 Title Card Required
 -------------------
 Symbolic Z-matrix:
 Charge =  0 Multiplicity = 2

                          Input orientation:
 ---------------------------------------------------------------------
 Center     Atomic      Atomic             Coordinates (Angstroms)
 Number     Number       Type             X           Y           Z
 ---------------------------------------------------------------------
      1          1           0        0.000000    0.000000    0.000000
      2          1           0       -3.200000    0.000000    0.000000
      3          9           0        1.200000    0.000000    0.000000
 ---------------------------------------------------------------------

 SCF Done:  E(UB3LYP) =  -100.925656302     a.u. after    6 cycles

 Alpha  occ. eigenvalues --  -24.64323  -1.12248  -0.47729  -0.37504  -0.37504
 Alpha  occ. eigenvalues --   -0.34156
 Alpha virt. eigenvalues --   -0.05633   0.22801   0.29286   0.93199   0.93199
 Alpha virt. eigenvalues --    1.00818   1.23294   1.23367   1.23367   1.26891
 Alpha virt. eigenvalues --    1.34651   1.34651   1.73084   2.14049   2.28671

  Beta  occ. eigenvalues --  -24.64315  -1.12227  -0.47703  -0.37497  -0.37497
  Beta virt. eigenvalues --   -0.08604  -0.03918   0.27229   0.38181   0.93199
  Beta virt. eigenvalues --    0.93199   1.00840   1.26655   1.34634   1.34634
  Beta virt. eigenvalues --    1.46454   1.46544   1.46544   1.73164   2.28601

 Mulliken charges and spin densities:
               1          2
     1  H    0.351991   0.000122
     2  H    0.002450   0.997186
     3  F   -0.354441   0.002692
 Sum of Mulliken charges =   0.00000   1.00000

 Dipole moment (field-independent basis, Debye):
    X=             -2.3152    Y=              0.0000    Z=             -0.0000  Tot=              2.3152
 Quadrupole moment (field-independent basis, Debye-Ang):
   XX=             -8.7982   YY=             -7.1279   ZZ=             -7.1279
   XY=              0.0000   XZ=             -0.0000   YZ=             -0.0000

  Exact polarizability:      10.174       0.000       2.327      -0.000      -0.000       2.327
 Approx polarizability:      14.053       0.000       2.283      -0.000      -0.000       2.283

 ******    1 imaginary frequencies (negative Signs) ******

                      1                      2                      3
                      A                      A                      A
 Frequencies --    -82.4364               997.4540              1199.1600
 Red. masses --      1.0520                 1.0595                 1.0327
 Frc consts  --      0.0042                 0.6211                 0.8750
 IR Inten    --      0.3868                75.2034               143.5307

                      4
                      A
 Frequencies --   1199.1600
 Red. masses --      1.0327
 Frc consts  --      0.8750
 IR Inten    --    143.5307

 - Thermochemistry -
 -------------------
 Temperature   298.150 Kelvin.  Pressure   1.00000 Atm.
 Atom     1 has atomic number  1 and mass   1.00783

 Molecular mass:    21.01405 amu.
 Principal axes and moments of inertia in atomic units:
                           1         2         3
     Eigenvalues --     0.00000  69.44642  69.44642
           X            1.00000  -0.00000   0.00000
           Y            0.00000   1.00000   0.00000
           Z            0.00000   0.00000   1.00000
 This molecule is a prolate symmetric top.
 Rotational symmetry number  1.
 Rotational temperature (Kelvin)      1.24720
 Rotational constant (GHZ):          25.987532
    1 imaginary frequencies ignored.
 Zero-point vibrational energy      20311.2 (Joules/Mol)
                                    4.85450 (Kcal/Mol)
 Vibrational temperatures:   1435.11  1725.32  1725.32
          (Kelvin)

 Zero-point correction=                           0.007736 (Hartree/Particle)
 Thermal correction to Energy=                    0.010167
 Thermal correction to Enthalpy=                  0.011112
 Thermal correction to Gibbs Free Energy=        -0.012404
 Sum of electronic and zero-point Energies=           -100.917920
 Sum of electronic and thermal Energies=              -100.915489
 Sum of electronic and thermal Enthalpies=            -100.914545
 Sum of electronic and thermal Free Energies=         -100.938061

                     E (Thermal)             CV                S
                      KCal/Mol        Cal/Mol-Kelvin    Cal/Mol-Kelvin
 Total                    6.380              5.759             49.493
 Electronic               0.000              0.000              1.377
 Translational            0.889              2.981             35.068
 Rotational               0.592              1.987             12.871
 Vibrational              4.899              0.791              0.177

 Normal termination of Gaussian 16 at Fri Aug 22 16:10:57 2025.
