 Gaussian 16, Revision C.01,
 Gaussian 16:  ES64L-G16RevC.01  3-Jul-2019

 -----------------------------------------
 # sp b3lyp/6-311g** Force nosymm scf=(qc)
 -----------------------------------------

 -------------------
 Title Card Required
 -------------------
 Symbolic Z-matrix:
 Charge =  0 Multiplicity = 2

                          Input orientation:
 ---------------------------------------------------------------------
 Center     Atomic      Atomic             Coordinates (Angstroms)
 Number     Number       Type             X           Y           Z
 ---------------------------------------------------------------------
      1          1           0        0.000000    0.000000    0.000000
      2          1           0       -0.550000    0.000000    0.000000
      3          9           0        2.450000    0.000000    0.000000
 ---------------------------------------------------------------------

 SCF Done:  E(UB3LYP) =  -100.894519946     a.u. after   62 cycles

 Alpha  occ. eigenvalues --  -24.76833  -1.22615  -0.55790  -0.48509  -0.46938
 Alpha  occ. eigenvalues --   -0.46027
 Alpha virt. eigenvalues --    0.10641   0.19586   0.54906   0.85655   0.90512
 Alpha virt. eigenvalues --    0.93802   1.11474   1.11503   1.13766   1.61818
 Alpha virt. eigenvalues --    1.82901   1.96605   1.96633   2.39585   3.64469

  Beta  occ. eigenvalues --  -24.73669  -1.13522  -0.47892  -0.43764  -0.43468
  Beta virt. eigenvalues --   -0.26402   0.10754   0.19674   0.55005   0.92005
  Beta virt. eigenvalues --    0.95081   0.95670   1.11495   1.11505   1.17329
  Beta virt. eigenvalues --    1.61825   1.82908   1.96607   1.96632   2.39608

 Mulliken charges and spin densities:
               1          2
     1  H   -0.012258  -0.002754
     2  H   -0.004058   0.000220
     3  F    0.016315   1.002534
 Sum of Mulliken charges =   0.00000   1.00000

 Dipole moment (field-independent basis, Debye):
    X=              0.1453    Y=             -0.0000    Z=              0.0000  Tot=              0.1453
 Quadrupole moment (field-independent basis, Debye-Ang):
   XX=             -5.9668   YY=             -6.6633   ZZ=             -5.8232
   XY=              0.0000   XZ=             -0.0000   YZ=             -0.0991

  Exact polarizability:       6.490       0.000       1.886       0.000      -0.050       2.309
 Approx polarizability:       6.830       0.000       1.973      -0.000      -0.064       2.511

 ******    2 imaginary frequencies (negative Signs) ******

                      1                      2                      3
                      A                      A                      A
 Frequencies --  -3689.2879             -3679.2592               246.2358
 Red. masses --      1.0088                 1.0088                 1.1085
 Frc consts  --      8.0902                 8.0463                 0.0396
 IR Inten    --      0.1330                 0.1483                 0.3934

                      4
                      A
 Frequencies --   8343.7723
 Red. masses --      1.0078
 Frc consts  --     41.3390
 IR Inten    --      2.6421

 - Thermochemistry -
 -------------------
 Temperature   298.150 Kelvin.  Pressure   1.00000 Atm.
 Atom     1 has atomic number  1 and mass   1.00783

 Molecular mass:    21.01405 amu.
 Principal axes and moments of inertia in atomic units:
                           1         2         3
     Eigenvalues --     0.00000  48.86727  48.86727
           X            1.00000  -0.00000   0.00000
           Y            0.00000   1.00000   0.00000
           Z            0.00000   0.00000   1.00000
 This molecule is a prolate symmetric top.
 Rotational symmetry number  1.
 Rotational temperature (Kelvin)      1.77243
 Rotational constant (GHZ):          36.931493
    2 imaginary frequencies ignored.
 Zero-point vibrational energy      51379.7 (Joules/Mol)
                                   12.28003 (Kcal/Mol)
 Warning -- explicit consideration of   1 degrees of freedom as
           vibrations may cause significant error
 Vibrational temperatures:    354.28 12004.83
          (Kelvin)

 Zero-point correction=                           0.019569 (Hartree/Particle)
 Thermal correction to Energy=                    0.022422
 Thermal correction to Enthalpy=                  0.023366
 Thermal correction to Gibbs Free Energy=        -0.000569
 Sum of electronic and zero-point Energies=           -100.874950
 Sum of electronic and thermal Energies=              -100.872098
 Sum of electronic and thermal Enthalpies=            -100.871154
 Sum of electronic and thermal Free Energies=         -100.895089

                     E (Thermal)             CV                S
                      KCal/Mol        Cal/Mol-Kelvin    Cal/Mol-Kelvin
 Total                   14.070              6.737             50.375
 Electronic               0.000              0.000              1.377
 Translational            0.889              2.981             35.068
 Rotational               0.592              1.987             12.172
 Vibrational             12.589              1.769              1.757
 Vibration     1          0.661              1.769              1.757

 Normal termination of Gaussian 16 at Fri Aug 22 17:34:32 2025.
