 Gaussian 16, Revision C.01,
 Gaussian 16:  ES64L-G16RevC.01  3-Jul-2019

 -----------------------------------------
 # sp b3lyp/6-311g** Force nosymm scf=(qc)
 -----------------------------------------

 -------------------
 Title Card Required
 -------------------
 Symbolic Z-matrix:
 Charge =  0 Multiplicity = 2

                          Input orientation:
 ---------------------------------------------------------------------
 Center     Atomic      Atomic             Coordinates (Angstroms)
 Number     Number       Type             X           Y           Z
 ---------------------------------------------------------------------
      1          1           0        0.000000    0.000000    0.000000
      2          1           0       -2.200000    0.000000    0.000000
      3          9           0        3.900000    0.000000    0.000000
 ---------------------------------------------------------------------

 SCF Done:  E(UB3LYP) =  -100.767568801     a.u. after   52 cycles

 Alpha  occ. eigenvalues --  -24.75898  -1.21826  -0.55024  -0.46202  -0.46202
 Alpha  occ. eigenvalues --   -0.32738
 Alpha virt. eigenvalues --   -0.10220   0.26002   0.33632   0.86658   0.91149
 Alpha virt. eigenvalues --    0.91149   1.01105   1.23611   1.25107   1.25107
 Alpha virt. eigenvalues --    1.39612   1.39612   1.45638   2.14216   2.35385

  Beta  occ. eigenvalues --  -24.72754  -1.12785  -0.43050  -0.43050  -0.32828
  Beta virt. eigenvalues --   -0.25764  -0.10053   0.25859   0.33881   0.92648
  Beta virt. eigenvalues --    0.92648   0.96025   1.05231   1.23540   1.25008
  Beta virt. eigenvalues --    1.25008   1.39839   1.39839   1.45818   2.14389

 Mulliken charges and spin densities:
               1          2
     1  H    0.000719  -0.921198
     2  H    0.001968   0.924336
     3  F   -0.002687   0.996862
 Sum of Mulliken charges =   0.00000   1.00000

 Dipole moment (field-independent basis, Debye):
    X=             -0.0742    Y=              0.0000    Z=              0.0000  Tot=              0.0742
 Quadrupole moment (field-independent basis, Debye-Ang):
   XX=             -6.5167   YY=             -7.7003   ZZ=             -7.7003
   XY=              0.0000   XZ=              0.0000   YZ=              0.0000

  Exact polarizability:      26.955       0.000       2.014       0.000       0.000       2.014
 Approx polarizability:      22.618       0.000       1.932       0.000       0.000       1.932

 ******    2 imaginary frequencies (negative Signs) ******

                      1                      2                      3
                      A                      A                      A
 Frequencies --  -1019.3851               -77.8900               396.8320
 Red. masses --      1.0078                 1.1085                 1.0125
 Frc consts  --      0.6170                 0.0040                 0.0939
 IR Inten    --      0.9591                 1.0222                 0.0000

                      4
                      A
 Frequencies --    396.8320
 Red. masses --      1.0125
 Frc consts  --      0.0939
 IR Inten    --      0.0000

 - Thermochemistry -
 -------------------
 Temperature   298.150 Kelvin.  Pressure   1.00000 Atm.
 Atom     1 has atomic number  1 and mass   1.00783

 Molecular mass:    21.01405 amu.
 Principal axes and moments of inertia in atomic units:
                           1         2         3
     Eigenvalues --     0.00000 171.39934 171.39934
           X            1.00000  -0.00000   0.00000
           Y            0.00000   1.00000   0.00000
           Z            0.00000   0.00000   1.00000
 This molecule is a prolate symmetric top.
 Rotational symmetry number  1.
 Rotational temperature (Kelvin)      0.50533
 Rotational constant (GHZ):          10.529453
    2 imaginary frequencies ignored.
 Zero-point vibrational energy       4747.2 (Joules/Mol)
                                    1.13460 (Kcal/Mol)
 Warning -- explicit consideration of   2 degrees of freedom as
           vibrations may cause significant error
 Vibrational temperatures:    570.95   570.95
          (Kelvin)

 Zero-point correction=                           0.001808 (Hartree/Particle)
 Thermal correction to Energy=                    0.004793
 Thermal correction to Enthalpy=                  0.005738
 Thermal correction to Gibbs Free Energy=        -0.019473
 Sum of electronic and zero-point Energies=           -100.765761
 Sum of electronic and thermal Energies=              -100.762775
 Sum of electronic and thermal Enthalpies=            -100.761831
 Sum of electronic and thermal Free Energies=         -100.787042

                     E (Thermal)             CV                S
                      KCal/Mol        Cal/Mol-Kelvin    Cal/Mol-Kelvin
 Total                    3.008              7.922             53.060
 Electronic               0.000              0.000              1.377
 Translational            0.889              2.981             35.068
 Rotational               0.592              1.987             14.666
 Vibrational              1.527              2.954              1.949
 Vibration     1          0.763              1.477              0.974
 Vibration     2          0.763              1.477              0.974

 Normal termination of Gaussian 16 at Sat Aug 23 01:24:13 2025.
