 Gaussian 16, Revision C.01,
 Gaussian 16:  ES64L-G16RevC.01  3-Jul-2019

 -----------------------------------------
 # sp b3lyp/6-311g** Force nosymm scf=(qc)
 -----------------------------------------

 -------------------
 Title Card Required
 -------------------
 Symbolic Z-matrix:
 Charge =  0 Multiplicity = 2

                          Input orientation:
 ---------------------------------------------------------------------
 Center     Atomic      Atomic             Coordinates (Angstroms)
 Number     Number       Type             X           Y           Z
 ---------------------------------------------------------------------
      1          1           0        0.000000    0.000000    0.000000
      2          1           0       -3.300000    0.000000    0.000000
      3          9           0        1.500000    0.000000    0.000000
 ---------------------------------------------------------------------

 SCF Done:  E(UB3LYP) =  -100.854775804     a.u. after    7 cycles

 Alpha  occ. eigenvalues --  -24.64330  -1.09691  -0.43244  -0.36411  -0.36411
 Alpha  occ. eigenvalues --   -0.34215
 Alpha virt. eigenvalues --   -0.14402   0.20558   0.27781   0.93538   0.93538
 Alpha virt. eigenvalues --    1.03504   1.09625   1.23299   1.23299   1.23452
 Alpha virt. eigenvalues --    1.31243   1.31243   1.73270   2.13633   2.18725

  Beta  occ. eigenvalues --  -24.64277  -1.09552  -0.43116  -0.36361  -0.36361
  Beta virt. eigenvalues --   -0.14856  -0.06922   0.23523   0.37932   0.93517
  Beta virt. eigenvalues --    0.93517   1.03640   1.09652   1.30994   1.30994
  Beta virt. eigenvalues --    1.45314   1.45783   1.45783   1.73206   2.18241

 Mulliken charges and spin densities:
               1          2
     1  H    0.347700  -0.013415
     2  H    0.003114   0.996677
     3  F   -0.350814   0.016738
 Sum of Mulliken charges =  -0.00000   1.00000

 Dipole moment (field-independent basis, Debye):
    X=             -2.6352    Y=             -0.0000    Z=             -0.0000  Tot=              2.6352
 Quadrupole moment (field-independent basis, Debye-Ang):
   XX=             -9.8235   YY=             -7.3225   ZZ=             -7.3225
   XY=             -0.0000   XZ=             -0.0000   YZ=              0.0000

  Exact polarizability:      16.253       0.000       2.188      -0.000       0.000       2.188
 Approx polarizability:      29.666       0.000       2.114       0.000       0.000       2.114

 ******    2 imaginary frequencies (negative Signs) ******

                      1                      2                      3
                      A                      A                      A
 Frequencies --  -1162.5098              -102.3097              1012.1839
 Red. masses --      1.0568                 1.0547                 1.0296
 Frc consts  --      0.8415                 0.0065                 0.6215
 IR Inten    --     50.8695                 0.4210               115.4060

                      4
                      A
 Frequencies --   1012.1839
 Red. masses --      1.0296
 Frc consts  --      0.6215
 IR Inten    --    115.4060

 - Thermochemistry -
 -------------------
 Temperature   298.150 Kelvin.  Pressure   1.00000 Atm.
 Atom     1 has atomic number  1 and mass   1.00783

 Molecular mass:    21.01405 amu.
 Principal axes and moments of inertia in atomic units:
                           1         2         3
     Eigenvalues --     0.00000  84.16816  84.16816
           X            1.00000  -0.00000   0.00000
           Y            0.00000   1.00000   0.00000
           Z            0.00000   0.00000   1.00000
 This molecule is a prolate symmetric top.
 Rotational symmetry number  1.
 Rotational temperature (Kelvin)      1.02906
 Rotational constant (GHZ):          21.442090
    2 imaginary frequencies ignored.
 Zero-point vibrational energy      12108.4 (Joules/Mol)
                                    2.89398 (Kcal/Mol)
 Vibrational temperatures:   1456.31  1456.31
          (Kelvin)

 Zero-point correction=                           0.004612 (Hartree/Particle)
 Thermal correction to Energy=                    0.007043
 Thermal correction to Enthalpy=                  0.007987
 Thermal correction to Gibbs Free Energy=        -0.015711
 Sum of electronic and zero-point Energies=           -100.850164
 Sum of electronic and thermal Energies=              -100.847733
 Sum of electronic and thermal Enthalpies=            -100.846789
 Sum of electronic and thermal Free Energies=         -100.870487

                     E (Thermal)             CV                S
                      KCal/Mol        Cal/Mol-Kelvin    Cal/Mol-Kelvin
 Total                    4.419              5.696             49.876
 Electronic               0.000              0.000              1.377
 Translational            0.889              2.981             35.068
 Rotational               0.592              1.987             13.253
 Vibrational              2.938              0.728              0.178

 Normal termination of Gaussian 16 at Fri Aug 22 16:26:29 2025.
