 Gaussian 16, Revision C.01,
 Gaussian 16:  ES64L-G16RevC.01  3-Jul-2019

 -----------------------------------------
 # sp b3lyp/6-311g** Force nosymm scf=(qc)
 -----------------------------------------

 -------------------
 Title Card Required
 -------------------
 Symbolic Z-matrix:
 Charge =  0 Multiplicity = 2

                          Input orientation:
 ---------------------------------------------------------------------
 Center     Atomic      Atomic             Coordinates (Angstroms)
 Number     Number       Type             X           Y           Z
 ---------------------------------------------------------------------
      1          1           0        0.000000    0.000000    0.000000
      2          1           0       -3.700000    0.000000    0.000000
      3          9           0        1.850000    0.000000    0.000000
 ---------------------------------------------------------------------

 SCF Done:  E(UB3LYP) =  -100.799089307     a.u. after   16 cycles

 Alpha  occ. eigenvalues --  -24.64938  -1.07561  -0.38979  -0.36684  -0.36684
 Alpha  occ. eigenvalues --   -0.33444
 Alpha virt. eigenvalues --   -0.19636   0.19663   0.27083   0.92076   0.95013
 Alpha virt. eigenvalues --    0.95013   1.07971   1.23124   1.23124   1.24043
 Alpha virt. eigenvalues --    1.24044   1.24044   1.62030   2.10776   2.15240

  Beta  occ. eigenvalues --  -24.66983  -1.13218  -0.45824  -0.38685  -0.38685
  Beta virt. eigenvalues --   -0.14938  -0.05082   0.27107   0.39419   0.91440
  Beta virt. eigenvalues --    0.94852   0.94852   1.05712   1.34075   1.34075
  Beta virt. eigenvalues --    1.47028   1.47028   1.47216   1.67603   2.26416

 Mulliken charges and spin densities:
               1          2
     1  H    0.240070   0.643965
     2  H    0.000927   0.999102
     3  F   -0.240998  -0.643067
 Sum of Mulliken charges =   0.00000   1.00000

 Dipole moment (field-independent basis, Debye):
    X=             -2.1989    Y=             -0.0000    Z=             -0.0000  Tot=              2.1989
 Quadrupole moment (field-independent basis, Debye-Ang):
   XX=            -10.2268   YY=             -7.4452   ZZ=             -7.4452
   XY=             -0.0000   XZ=             -0.0000   YZ=             -0.0000

  Exact polarizability:      23.494       0.000       2.087      -0.000       0.000       2.087
 Approx polarizability:      36.439      -0.000       1.975      -0.000       0.000       1.975

 ******    1 imaginary frequencies (negative Signs) ******

                      1                      2                      3
                      A                      A                      A
 Frequencies --  -1403.3545                30.4431               606.5048
 Red. masses --      1.0586                 1.0530                 1.0281
 Frc consts  --      1.2283                 0.0006                 0.2228
 IR Inten    --    130.1730                 0.1320                54.1603

                      4
                      A
 Frequencies --    606.5048
 Red. masses --      1.0281
 Frc consts  --      0.2228
 IR Inten    --     54.1603

 - Thermochemistry -
 -------------------
 Temperature   298.150 Kelvin.  Pressure   1.00000 Atm.
 Atom     1 has atomic number  1 and mass   1.00783

 Molecular mass:    21.01405 amu.
 Principal axes and moments of inertia in atomic units:
                           1         2         3
     Eigenvalues --     0.00000 113.72411 113.72411
           X            1.00000  -0.00000   0.00000
           Y            0.00000   1.00000   0.00000
           Z            0.00000   0.00000   1.00000
 This molecule is a prolate symmetric top.
 Rotational symmetry number  1.
 Rotational temperature (Kelvin)      0.76161
 Rotational constant (GHZ):          15.869468
    1 imaginary frequencies ignored.
 Zero-point vibrational energy       7437.5 (Joules/Mol)
                                    1.77760 (Kcal/Mol)
 Warning -- explicit consideration of   3 degrees of freedom as
           vibrations may cause significant error
 Vibrational temperatures:     43.80   872.63   872.63
          (Kelvin)

 Zero-point correction=                           0.002833 (Hartree/Particle)
 Thermal correction to Energy=                    0.006383
 Thermal correction to Enthalpy=                  0.007327
 Thermal correction to Gibbs Free Energy=        -0.019743
 Sum of electronic and zero-point Energies=           -100.796257
 Sum of electronic and thermal Energies=              -100.792707
 Sum of electronic and thermal Enthalpies=            -100.791763
 Sum of electronic and thermal Free Energies=         -100.818833

                     E (Thermal)             CV                S
                      KCal/Mol        Cal/Mol-Kelvin    Cal/Mol-Kelvin
 Total                    4.005              8.988             56.974
 Electronic               0.000              0.000              1.377
 Translational            0.889              2.981             35.068
 Rotational               0.592              1.987             13.851
 Vibrational              2.524              4.020              6.678
 Vibration     1          0.594              1.984              5.800
 Vibration     2          0.965              1.018              0.439
 Vibration     3          0.965              1.018              0.439

 Normal termination of Gaussian 16 at Fri Aug 22 16:48:25 2025.
