 Gaussian 16, Revision C.01,
 Gaussian 16:  ES64L-G16RevC.01  3-Jul-2019

 -----------------------------------------
 # sp b3lyp/6-311g** Force nosymm scf=(qc)
 -----------------------------------------

 -------------------
 Title Card Required
 -------------------
 Symbolic Z-matrix:
 Charge =  0 Multiplicity = 2

                          Input orientation:
 ---------------------------------------------------------------------
 Center     Atomic      Atomic             Coordinates (Angstroms)
 Number     Number       Type             X           Y           Z
 ---------------------------------------------------------------------
      1          1           0        0.000000    0.000000    0.000000
      2          1           0       -3.200000    0.000000    0.000000
      3          9           0        1.700000    0.000000    0.000000
 ---------------------------------------------------------------------

 SCF Done:  E(UB3LYP) =  -100.817714973     a.u. after   16 cycles

 Alpha  occ. eigenvalues --  -24.65720  -1.11720  -0.44372  -0.37561  -0.37561
 Alpha  occ. eigenvalues --   -0.34191
 Alpha virt. eigenvalues --   -0.15169   0.21543   0.29274   0.94564   0.94564
 Alpha virt. eigenvalues --    0.96361   1.06277   1.23337   1.23337   1.23642
 Alpha virt. eigenvalues --    1.33066   1.33066   1.73148   2.13787   2.23715

  Beta  occ. eigenvalues --  -24.64221  -1.07637  -0.40204  -0.36108  -0.36108
  Beta virt. eigenvalues --   -0.18393  -0.07692   0.22327   0.37334   0.94316
  Beta virt. eigenvalues --    0.94316   0.97051   1.07716   1.25365   1.25365
  Beta virt. eigenvalues --    1.44577   1.45018   1.45018   1.69521   2.12936

 Mulliken charges and spin densities:
               1          2
     1  H    0.289453  -0.467106
     2  H    0.004354   0.994710
     3  F   -0.293807   0.472396
 Sum of Mulliken charges =   0.00000   1.00000

 Dipole moment (field-independent basis, Debye):
    X=             -2.5004    Y=             -0.0000    Z=             -0.0000  Tot=              2.5004
 Quadrupole moment (field-independent basis, Debye-Ang):
   XX=            -10.0586   YY=             -7.4115   ZZ=             -7.4115
   XY=             -0.0000   XZ=             -0.0000   YZ=              0.0000

  Exact polarizability:      23.517      -0.000       2.121       0.000      -0.000       2.121
 Approx polarizability:      36.825       0.000       2.020       0.000      -0.000       2.020

 ******    2 imaginary frequencies (negative Signs) ******

                      1                      2                      3
                      A                      A                      A
 Frequencies --  -1734.4030              -158.2440               768.9295
 Red. masses --      1.0570                 1.0546                 1.0271
 Frc consts  --      1.8733                 0.0156                 0.3578
 IR Inten    --    107.0304                 1.1022                76.6501

                      4
                      A
 Frequencies --    768.9295
 Red. masses --      1.0271
 Frc consts  --      0.3578
 IR Inten    --     76.6501

 - Thermochemistry -
 -------------------
 Temperature   298.150 Kelvin.  Pressure   1.00000 Atm.
 Atom     1 has atomic number  1 and mass   1.00783

 Molecular mass:    21.01405 amu.
 Principal axes and moments of inertia in atomic units:
                           1         2         3
     Eigenvalues --     0.00000  89.29457  89.29457
           X            1.00000  -0.00000   0.00000
           Y            0.00000   1.00000   0.00000
           Z            0.00000   0.00000   1.00000
 This molecule is a prolate symmetric top.
 Rotational symmetry number  1.
 Rotational temperature (Kelvin)      0.96998
 Rotational constant (GHZ):          20.211096
    2 imaginary frequencies ignored.
 Zero-point vibrational energy       9198.4 (Joules/Mol)
                                    2.19848 (Kcal/Mol)
 Vibrational temperatures:   1106.32  1106.32
          (Kelvin)

 Zero-point correction=                           0.003504 (Hartree/Particle)
 Thermal correction to Energy=                    0.006040
 Thermal correction to Enthalpy=                  0.006984
 Thermal correction to Gibbs Free Energy=        -0.016908
 Sum of electronic and zero-point Energies=           -100.814211
 Sum of electronic and thermal Energies=              -100.811675
 Sum of electronic and thermal Enthalpies=            -100.810731
 Sum of electronic and thermal Free Energies=         -100.834623

                     E (Thermal)             CV                S
                      KCal/Mol        Cal/Mol-Kelvin    Cal/Mol-Kelvin
 Total                    3.790              6.375             50.284
 Electronic               0.000              0.000              1.377
 Translational            0.889              2.981             35.068
 Rotational               0.592              1.987             13.370
 Vibrational              2.309              1.407              0.468

 Normal termination of Gaussian 16 at Fri Aug 22 16:38:33 2025.
