 Gaussian 16, Revision C.01,
 Gaussian 16:  ES64L-G16RevC.01  3-Jul-2019

 -----------------------------------------
 # sp b3lyp/6-311g** Force nosymm scf=(qc)
 -----------------------------------------

 -------------------
 Title Card Required
 -------------------
 Symbolic Z-matrix:
 Charge =  0 Multiplicity = 2

                          Input orientation:
 ---------------------------------------------------------------------
 Center     Atomic      Atomic             Coordinates (Angstroms)
 Number     Number       Type             X           Y           Z
 ---------------------------------------------------------------------
      1          1           0        0.000000    0.000000    0.000000
      2          1           0       -2.150000    0.000000    0.000000
      3          9           0        1.450000    0.000000    0.000000
 ---------------------------------------------------------------------

 SCF Done:  E(UB3LYP) =  -100.869148540     a.u. after    9 cycles

 Alpha  occ. eigenvalues --  -24.63810  -1.09816  -0.44221  -0.36640  -0.36138
 Alpha  occ. eigenvalues --   -0.36138
 Alpha virt. eigenvalues --   -0.11199   0.23541   0.26950   0.93857   0.93857
 Alpha virt. eigenvalues --    1.03377   1.09020   1.20673   1.20673   1.30665
 Alpha virt. eigenvalues --    1.33261   1.33261   1.73201   2.10195   2.24307

  Beta  occ. eigenvalues --  -24.63427  -1.08810  -0.42853  -0.35776  -0.35776
  Beta virt. eigenvalues --   -0.16701  -0.06723   0.26102   0.33818   0.93756
  Beta virt. eigenvalues --    0.93756   1.04418   1.12002   1.31681   1.31681
  Beta virt. eigenvalues --    1.39551   1.39551   1.45235   1.73076   2.17975

 Mulliken charges and spin densities:
               1          2
     1  H    0.325512  -0.075924
     2  H    0.033504   0.956326
     3  F   -0.359016   0.119598
 Sum of Mulliken charges =   0.00000   1.00000

 Dipole moment (field-independent basis, Debye):
    X=             -2.9193    Y=             -0.0000    Z=              0.0000  Tot=              2.9193
 Quadrupole moment (field-independent basis, Debye-Ang):
   XX=             -8.9173   YY=             -7.2792   ZZ=             -7.2792
   XY=             -0.0000   XZ=              0.0000   YZ=             -0.0000

  Exact polarizability:      23.663      -0.000       2.243       0.000       0.000       2.243
 Approx polarizability:      34.462      -0.000       2.178      -0.000       0.000       2.178

 ******    2 imaginary frequencies (negative Signs) ******

                      1                      2                      3
                      A                      A                      A
 Frequencies --  -1495.5757              -317.1065              1023.1241
 Red. masses --      1.0396                 1.0724                 1.0233
 Frc consts  --      1.3701                 0.0635                 0.6311
 IR Inten    --    139.4046                 0.7752                86.2946

                      4
                      A
 Frequencies --   1023.1241
 Red. masses --      1.0233
 Frc consts  --      0.6311
 IR Inten    --     86.2946

 - Thermochemistry -
 -------------------
 Temperature   298.150 Kelvin.  Pressure   1.00000 Atm.
 Atom     1 has atomic number  1 and mass   1.00783

 Molecular mass:    21.01405 amu.
 Principal axes and moments of inertia in atomic units:
                           1         2         3
     Eigenvalues --     0.00000  49.80816  49.80816
           X            1.00000  -0.00000   0.00000
           Y            0.00000   1.00000   0.00000
           Z            0.00000   0.00000   1.00000
 This molecule is a prolate symmetric top.
 Rotational symmetry number  1.
 Rotational temperature (Kelvin)      1.73895
 Rotational constant (GHZ):          36.233847
    2 imaginary frequencies ignored.
 Zero-point vibrational energy      12239.3 (Joules/Mol)
                                    2.92526 (Kcal/Mol)
 Vibrational temperatures:   1472.05  1472.05
          (Kelvin)

 Zero-point correction=                           0.004662 (Hartree/Particle)
 Thermal correction to Energy=                    0.007090
 Thermal correction to Enthalpy=                  0.008034
 Thermal correction to Gibbs Free Energy=        -0.015165
 Sum of electronic and zero-point Energies=           -100.864487
 Sum of electronic and thermal Energies=              -100.862059
 Sum of electronic and thermal Enthalpies=            -100.861115
 Sum of electronic and thermal Free Energies=         -100.884314

                     E (Thermal)             CV                S
                      KCal/Mol        Cal/Mol-Kelvin    Cal/Mol-Kelvin
 Total                    4.449              5.673             48.826
 Electronic               0.000              0.000              1.377
 Translational            0.889              2.981             35.068
 Rotational               0.592              1.987             12.210
 Vibrational              2.968              0.705              0.170

 Normal termination of Gaussian 16 at Fri Aug 22 16:22:56 2025.
