 Gaussian 16, Revision C.01,
 Gaussian 16:  ES64L-G16RevC.01  3-Jul-2019

 -----------------------------------------
 # sp b3lyp/6-311g** Force nosymm scf=(qc)
 -----------------------------------------

 -------------------
 Title Card Required
 -------------------
 Symbolic Z-matrix:
 Charge =  0 Multiplicity = 2

                          Input orientation:
 ---------------------------------------------------------------------
 Center     Atomic      Atomic             Coordinates (Angstroms)
 Number     Number       Type             X           Y           Z
 ---------------------------------------------------------------------
      1          1           0        0.000000    0.000000    0.000000
      2          1           0       -2.550000    0.000000    0.000000
      3          9           0        1.850000    0.000000    0.000000
 ---------------------------------------------------------------------

 SCF Done:  E(UB3LYP) =  -100.802247487     a.u. after   20 cycles

 Alpha  occ. eigenvalues --  -24.66854  -1.13106  -0.45752  -0.38565  -0.38565
 Alpha  occ. eigenvalues --   -0.35116
 Alpha virt. eigenvalues --   -0.14403   0.23536   0.29707   0.92190   0.94972
 Alpha virt. eigenvalues --    0.94972   1.06264   1.22505   1.22505   1.25057
 Alpha virt. eigenvalues --    1.34022   1.34022   1.67793   2.13517   2.27013

  Beta  occ. eigenvalues --  -24.64798  -1.07418  -0.38733  -0.36552  -0.36552
  Beta virt. eigenvalues --   -0.19787  -0.09676   0.24236   0.34902   0.93520
  Beta virt. eigenvalues --    0.95169   0.95169   1.08537   1.23528   1.23528
  Beta virt. eigenvalues --    1.41515   1.41515   1.42589   1.62957   2.13323

 Mulliken charges and spin densities:
               1          2
     1  H    0.221325  -0.620072
     2  H    0.017909   0.973495
     3  F   -0.239234   0.646577
 Sum of Mulliken charges =   0.00000   1.00000

 Dipole moment (field-independent basis, Debye):
    X=             -2.3863    Y=              0.0000    Z=              0.0000  Tot=              2.3863
 Quadrupole moment (field-independent basis, Debye-Ang):
   XX=             -9.5426   YY=             -7.4784   ZZ=             -7.4784
   XY=              0.0000   XZ=              0.0000   YZ=              0.0000

  Exact polarizability:      33.949       0.000       2.088       0.000       0.000       2.088
 Approx polarizability:      43.681      -0.000       1.981       0.000      -0.000       1.981

 ******    2 imaginary frequencies (negative Signs) ******

                      1                      2                      3
                      A                      A                      A
 Frequencies --  -1455.7848              -364.4218               615.1432
 Red. masses --      1.0493                 1.0623                 1.0223
 Frc consts  --      1.3102                 0.0831                 0.2279
 IR Inten    --    100.9813                10.9635                40.7960

                      4
                      A
 Frequencies --    615.1432
 Red. masses --      1.0223
 Frc consts  --      0.2279
 IR Inten    --     40.7960

 - Thermochemistry -
 -------------------
 Temperature   298.150 Kelvin.  Pressure   1.00000 Atm.
 Atom     1 has atomic number  1 and mass   1.00783

 Molecular mass:    21.01405 amu.
 Principal axes and moments of inertia in atomic units:
                           1         2         3
     Eigenvalues --     0.00000  75.25195  75.25195
           X            1.00000  -0.00000   0.00000
           Y            0.00000   1.00000   0.00000
           Z            0.00000   0.00000   1.00000
 This molecule is a prolate symmetric top.
 Rotational symmetry number  1.
 Rotational temperature (Kelvin)      1.15099
 Rotational constant (GHZ):          23.982649
    2 imaginary frequencies ignored.
 Zero-point vibrational energy       7358.7 (Joules/Mol)
                                    1.75878 (Kcal/Mol)
 Warning -- explicit consideration of   2 degrees of freedom as
           vibrations may cause significant error
 Vibrational temperatures:    885.05   885.05
          (Kelvin)

 Zero-point correction=                           0.002803 (Hartree/Particle)
 Thermal correction to Energy=                    0.005467
 Thermal correction to Enthalpy=                  0.006411
 Thermal correction to Gibbs Free Energy=        -0.017500
 Sum of electronic and zero-point Energies=           -100.799445
 Sum of electronic and thermal Energies=              -100.796781
 Sum of electronic and thermal Enthalpies=            -100.795836
 Sum of electronic and thermal Free Energies=         -100.819747

                     E (Thermal)             CV                S
                      KCal/Mol        Cal/Mol-Kelvin    Cal/Mol-Kelvin
 Total                    3.431              6.968             50.324
 Electronic               0.000              0.000              1.377
 Translational            0.889              2.981             35.068
 Rotational               0.592              1.987             13.030
 Vibrational              1.949              2.000              0.849
 Vibration     1          0.975              1.000              0.424
 Vibration     2          0.975              1.000              0.424

 Normal termination of Gaussian 16 at Fri Aug 22 16:47:16 2025.
