 Gaussian 16, Revision C.01,
 Gaussian 16:  ES64L-G16RevC.01  3-Jul-2019

 -----------------------------------------
 # sp b3lyp/6-311g** Force nosymm scf=(qc)
 -----------------------------------------

 -------------------
 Title Card Required
 -------------------
 Symbolic Z-matrix:
 Charge =  0 Multiplicity = 2

                          Input orientation:
 ---------------------------------------------------------------------
 Center     Atomic      Atomic             Coordinates (Angstroms)
 Number     Number       Type             X           Y           Z
 ---------------------------------------------------------------------
      1          1           0        0.000000    0.000000    0.000000
      2          1           0       -3.300000    0.000000    0.000000
      3          9           0        2.200000    0.000000    0.000000
 ---------------------------------------------------------------------

 SCF Done:  E(UB3LYP) =  -100.776013358     a.u. after   16 cycles

 Alpha  occ. eigenvalues --  -24.67021  -1.08574  -0.38357  -0.38357  -0.36837
 Alpha  occ. eigenvalues --   -0.33175
 Alpha virt. eigenvalues --   -0.21882   0.20814   0.27998   0.91582   0.95657
 Alpha virt. eigenvalues --    0.95657   1.08324   1.21514   1.21514   1.24216
 Alpha virt. eigenvalues --    1.24216   1.24394   1.42134   2.11751   2.15005

  Beta  occ. eigenvalues --  -24.69637  -1.15953  -0.48691  -0.40951  -0.40951
  Beta virt. eigenvalues --   -0.12687  -0.04689   0.31384   0.40000   0.88628
  Beta virt. eigenvalues --    0.94579   0.94579   1.06237   1.37576   1.37576
  Beta virt. eigenvalues --    1.47694   1.47694   1.47830   1.52072   2.32769

 Mulliken charges and spin densities:
               1          2
     1  H    0.144668   0.825748
     2  H    0.001973   0.998071
     3  F   -0.146641  -0.823820
 Sum of Mulliken charges =   0.00000   1.00000

 Dipole moment (field-independent basis, Debye):
    X=             -1.6475    Y=             -0.0000    Z=             -0.0000  Tot=              1.6475
 Quadrupole moment (field-independent basis, Debye-Ang):
   XX=             -9.8542   YY=             -7.5156   ZZ=             -7.5156
   XY=              0.0000   XZ=             -0.0000   YZ=             -0.0000

  Exact polarizability:      30.090       0.000       2.040      -0.000       0.000       2.040
 Approx polarizability:      41.364      -0.000       1.930      -0.000      -0.000       1.930

 ******    1 imaginary frequencies (negative Signs) ******

                      1                      2                      3
                      A                      A                      A
 Frequencies --   -849.6630                95.3838               354.1804
 Red. masses --      1.0602                 1.0514                 1.0235
 Frc consts  --      0.4510                 0.0056                 0.0756
 IR Inten    --     92.8202                 0.5074                19.5452

                      4
                      A
 Frequencies --    354.1804
 Red. masses --      1.0235
 Frc consts  --      0.0756
 IR Inten    --     19.5452

 - Thermochemistry -
 -------------------
 Temperature   298.150 Kelvin.  Pressure   1.00000 Atm.
 Atom     1 has atomic number  1 and mass   1.00783

 Molecular mass:    21.01405 amu.
 Principal axes and moments of inertia in atomic units:
                           1         2         3
     Eigenvalues --     0.00000 116.05535 116.05535
           X            1.00000  -0.00000   0.00000
           Y            0.00000   1.00000   0.00000
           Z            0.00000   0.00000   1.00000
 This molecule is a prolate symmetric top.
 Rotational symmetry number  1.
 Rotational temperature (Kelvin)      0.74632
 Rotational constant (GHZ):          15.550694
    1 imaginary frequencies ignored.
 Zero-point vibrational energy       4807.5 (Joules/Mol)
                                    1.14901 (Kcal/Mol)
 Warning -- explicit consideration of   3 degrees of freedom as
           vibrations may cause significant error
 Vibrational temperatures:    137.24   509.59   509.59
          (Kelvin)

 Zero-point correction=                           0.001831 (Hartree/Particle)
 Thermal correction to Energy=                    0.005648
 Thermal correction to Enthalpy=                  0.006593
 Thermal correction to Gibbs Free Energy=        -0.020099
 Sum of electronic and zero-point Energies=           -100.774182
 Sum of electronic and thermal Energies=              -100.770365
 Sum of electronic and thermal Enthalpies=            -100.769421
 Sum of electronic and thermal Free Energies=         -100.796113

                     E (Thermal)             CV                S
                      KCal/Mol        Cal/Mol-Kelvin    Cal/Mol-Kelvin
 Total                    3.544             10.054             56.178
 Electronic               0.000              0.000              1.377
 Translational            0.889              2.981             35.068
 Rotational               0.592              1.987             13.891
 Vibrational              2.063              5.086              5.842
 Vibration     1          0.603              1.952              3.547
 Vibration     2          0.730              1.567              1.148
 Vibration     3          0.730              1.567              1.148

 Normal termination of Gaussian 16 at Fri Aug 22 17:12:53 2025.
