 Gaussian 16, Revision C.01,
 Gaussian 16:  ES64L-G16RevC.01  3-Jul-2019

 -----------------------------------------
 # sp b3lyp/6-311g** Force nosymm scf=(qc)
 -----------------------------------------

 -------------------
 Title Card Required
 -------------------
 Symbolic Z-matrix:
 Charge =  0 Multiplicity = 2

                          Input orientation:
 ---------------------------------------------------------------------
 Center     Atomic      Atomic             Coordinates (Angstroms)
 Number     Number       Type             X           Y           Z
 ---------------------------------------------------------------------
      1          1           0        0.000000    0.000000    0.000000
      2          1           0       -2.150000    0.000000    0.000000
      3          9           0        1.500000    0.000000    0.000000
 ---------------------------------------------------------------------

 SCF Done:  E(UB3LYP) =  -100.858580315     a.u. after   11 cycles

 Alpha  occ. eigenvalues --  -24.63917  -1.09812  -0.43839  -0.36732  -0.36129
 Alpha  occ. eigenvalues --   -0.36129
 Alpha virt. eigenvalues --   -0.12201   0.23446   0.27059   0.94106   0.94106
 Alpha virt. eigenvalues --    1.02858   1.07605   1.20608   1.20608   1.29620
 Alpha virt. eigenvalues --    1.33037   1.33037   1.73902   2.10093   2.23925

  Beta  occ. eigenvalues --  -24.63357  -1.08331  -0.42059  -0.35598  -0.35598
  Beta virt. eigenvalues --   -0.17404  -0.07658   0.25781   0.33551   0.93944
  Beta virt. eigenvalues --    0.93944   1.04456   1.09706   1.30603   1.30603
  Beta virt. eigenvalues --    1.39129   1.39129   1.44426   1.73440   2.16383

 Mulliken charges and spin densities:
               1          2
     1  H    0.316081  -0.127339
     2  H    0.036130   0.951931
     3  F   -0.352211   0.175408
 Sum of Mulliken charges =   0.00000   1.00000

 Dipole moment (field-independent basis, Debye):
    X=             -2.9704    Y=              0.0000    Z=              0.0000  Tot=              2.9704
 Quadrupole moment (field-independent basis, Debye-Ang):
   XX=             -9.0046   YY=             -7.3119   ZZ=             -7.3119
   XY=              0.0000   XZ=              0.0000   YZ=              0.0000

  Exact polarizability:      26.433       0.000       2.218       0.000       0.000       2.218
 Approx polarizability:      38.497       0.000       2.148       0.000      -0.000       2.148

 ******    2 imaginary frequencies (negative Signs) ******

                      1                      2                      3
                      A                      A                      A
 Frequencies --  -1706.7409              -351.5087               983.3431
 Red. masses --      1.0405                 1.0715                 1.0228
 Frc consts  --      1.7858                 0.0780                 0.5827
 IR Inten    --     57.1303                 1.8987                79.3002

                      4
                      A
 Frequencies --    983.3431
 Red. masses --      1.0228
 Frc consts  --      0.5827
 IR Inten    --     79.3002

 - Thermochemistry -
 -------------------
 Temperature   298.150 Kelvin.  Pressure   1.00000 Atm.
 Atom     1 has atomic number  1 and mass   1.00783

 Molecular mass:    21.01405 amu.
 Principal axes and moments of inertia in atomic units:
                           1         2         3
     Eigenvalues --     0.00000  51.46759  51.46759
           X            1.00000  -0.00000   0.00000
           Y            0.00000   1.00000   0.00000
           Z            0.00000   0.00000   1.00000
 This molecule is a prolate symmetric top.
 Rotational symmetry number  1.
 Rotational temperature (Kelvin)      1.68288
 Rotational constant (GHZ):          35.065584
    2 imaginary frequencies ignored.
 Zero-point vibrational energy      11763.4 (Joules/Mol)
                                    2.81152 (Kcal/Mol)
 Vibrational temperatures:   1414.81  1414.81
          (Kelvin)

 Zero-point correction=                           0.004480 (Hartree/Particle)
 Thermal correction to Energy=                    0.006919
 Thermal correction to Enthalpy=                  0.007864
 Thermal correction to Gibbs Free Energy=        -0.015380
 Sum of electronic and zero-point Energies=           -100.854100
 Sum of electronic and thermal Energies=              -100.851661
 Sum of electronic and thermal Enthalpies=            -100.850717
 Sum of electronic and thermal Free Energies=         -100.873960

                     E (Thermal)             CV                S
                      KCal/Mol        Cal/Mol-Kelvin    Cal/Mol-Kelvin
 Total                    4.342              5.760             48.921
 Electronic               0.000              0.000              1.377
 Translational            0.889              2.981             35.068
 Rotational               0.592              1.987             12.275
 Vibrational              2.861              0.792              0.200

 Normal termination of Gaussian 16 at Fri Aug 22 16:25:39 2025.
