 Gaussian 16, Revision C.01,
 Gaussian 16:  ES64L-G16RevC.01  3-Jul-2019

 -----------------------------------------
 # sp b3lyp/6-311g** Force nosymm scf=(qc)
 -----------------------------------------

 -------------------
 Title Card Required
 -------------------
 Symbolic Z-matrix:
 Charge =  0 Multiplicity = 2

                          Input orientation:
 ---------------------------------------------------------------------
 Center     Atomic      Atomic             Coordinates (Angstroms)
 Number     Number       Type             X           Y           Z
 ---------------------------------------------------------------------
      1          1           0        0.000000    0.000000    0.000000
      2          1           0       -2.150000    0.000000    0.000000
      3          9           0        1.000000    0.000000    0.000000
 ---------------------------------------------------------------------

 SCF Done:  E(UB3LYP) =  -100.966905877     a.u. after    6 cycles

 Alpha  occ. eigenvalues --  -24.63896  -1.15841  -0.51634  -0.38563  -0.38563
 Alpha  occ. eigenvalues --   -0.35761
 Alpha virt. eigenvalues --    0.03041   0.24590   0.34158   0.94259   0.94259
 Alpha virt. eigenvalues --    0.98413   1.15946   1.21717   1.21717   1.36222
 Alpha virt. eigenvalues --    1.36222   1.45832   1.88501   2.14849   2.34760

  Beta  occ. eigenvalues --  -24.63841  -1.15704  -0.51351  -0.38515  -0.38515
  Beta virt. eigenvalues --   -0.11752   0.05238   0.34023   0.35617   0.94265
  Beta virt. eigenvalues --    0.94265   0.98739   1.25359   1.35930   1.35930
  Beta virt. eigenvalues --    1.42120   1.42120   1.55623   1.89354   2.33618

 Mulliken charges and spin densities:
               1          2
     1  H    0.309154   0.004321
     2  H    0.013366   0.980214
     3  F   -0.322521   0.015465
 Sum of Mulliken charges =   0.00000   1.00000

 Dipole moment (field-independent basis, Debye):
    X=             -2.1821    Y=             -0.0000    Z=             -0.0000  Tot=              2.1821
 Quadrupole moment (field-independent basis, Debye-Ang):
   XX=             -7.8405   YY=             -6.9365   ZZ=             -6.9365
   XY=             -0.0000   XZ=             -0.0000   YZ=              0.0000

  Exact polarizability:      10.109       0.000       2.447      -0.000      -0.000       2.447
 Approx polarizability:      11.214       0.000       2.427      -0.000      -0.000       2.427

 ******    1 imaginary frequencies (negative Signs) ******

                      1                      2                      3
                      A                      A                      A
 Frequencies --    -16.0669               948.9805               948.9805
 Red. masses --      1.0523                 1.0292                 1.0292
 Frc consts  --      0.0002                 0.5461                 0.5461
 IR Inten    --      2.4861               141.8883               141.8883

                      4
                      A
 Frequencies --   2991.4722
 Red. masses --      1.0592
 Frc consts  --      5.5849
 IR Inten    --    163.9747

 - Thermochemistry -
 -------------------
 Temperature   298.150 Kelvin.  Pressure   1.00000 Atm.
 Atom     1 has atomic number  1 and mass   1.00783

 Molecular mass:    21.01405 amu.
 Principal axes and moments of inertia in atomic units:
                           1         2         3
     Eigenvalues --     0.00000  36.33745  36.33745
           X            1.00000  -0.00000   0.00000
           Y            0.00000   1.00000   0.00000
           Z            0.00000   0.00000   1.00000
 This molecule is a prolate symmetric top.
 Rotational symmetry number  1.
 Rotational temperature (Kelvin)      2.38360
 Rotational constant (GHZ):          49.666151
    1 imaginary frequencies ignored.
 Zero-point vibrational energy      29245.3 (Joules/Mol)
                                    6.98980 (Kcal/Mol)
 Vibrational temperatures:   1365.37  1365.37  4304.06
          (Kelvin)

 Zero-point correction=                           0.011139 (Hartree/Particle)
 Thermal correction to Energy=                    0.013589
 Thermal correction to Enthalpy=                  0.014533
 Thermal correction to Gibbs Free Energy=        -0.008396
 Sum of electronic and zero-point Energies=           -100.955767
 Sum of electronic and thermal Energies=              -100.953317
 Sum of electronic and thermal Enthalpies=            -100.952373
 Sum of electronic and thermal Free Energies=         -100.975302

                     E (Thermal)             CV                S
                      KCal/Mol        Cal/Mol-Kelvin    Cal/Mol-Kelvin
 Total                    8.527              5.841             48.259
 Electronic               0.000              0.000              1.377
 Translational            0.889              2.981             35.068
 Rotational               0.592              1.987             11.583
 Vibrational              7.046              0.873              0.230

 Normal termination of Gaussian 16 at Fri Aug 22 16:00:39 2025.
