 Gaussian 16, Revision C.01,
 Gaussian 16:  ES64L-G16RevC.01  3-Jul-2019

 -----------------------------------------
 # sp b3lyp/6-311g** Force nosymm scf=(qc)
 -----------------------------------------

 -------------------
 Title Card Required
 -------------------
 Symbolic Z-matrix:
 Charge =  0 Multiplicity = 2

                          Input orientation:
 ---------------------------------------------------------------------
 Center     Atomic      Atomic             Coordinates (Angstroms)
 Number     Number       Type             X           Y           Z
 ---------------------------------------------------------------------
      1          1           0        0.000000    0.000000    0.000000
      2          1           0       -2.900000    0.000000    0.000000
      3          9           0        0.550000    0.000000    0.000000
 ---------------------------------------------------------------------

 SCF Done:  E(UB3LYP) =  -100.519305313     a.u. after    6 cycles

 Alpha  occ. eigenvalues --  -24.62684  -1.38418  -0.62253  -0.43621  -0.43621
 Alpha  occ. eigenvalues --   -0.33768
 Alpha virt. eigenvalues --    0.08252   0.25647   0.60614   0.91212   0.91230
 Alpha virt. eigenvalues --    0.91230   1.21872   1.23760   1.23760   1.40539
 Alpha virt. eigenvalues --    1.54147   1.54147   1.96946   2.14978   3.65578

  Beta  occ. eigenvalues --  -24.62682  -1.38411  -0.62250  -0.43620  -0.43620
  Beta virt. eigenvalues --   -0.06320   0.09265   0.39109   0.60577   0.91224
  Beta virt. eigenvalues --    0.91224   0.91237   1.34496   1.49671   1.49671
  Beta virt. eigenvalues --    1.53065   1.54150   1.54150   1.96612   2.44825

 Mulliken charges and spin densities:
               1          2
     1  H    0.197649   0.001418
     2  H    0.002258   0.997162
     3  F   -0.199908   0.001421
 Sum of Mulliken charges =   0.00000   1.00000

 Dipole moment (field-independent basis, Debye):
    X=             -1.3893    Y=              0.0000    Z=             -0.0000  Tot=              1.3893
 Quadrupole moment (field-independent basis, Debye-Ang):
   XX=             -6.7265   YY=             -6.4944   ZZ=             -6.4944
   XY=              0.0000   XZ=             -0.0000   YZ=             -0.0000

  Exact polarizability:       3.896      -0.000       2.438       0.000       0.000       2.438
 Approx polarizability:       3.993      -0.000       2.419      -0.000       0.000       2.419

 ******    2 imaginary frequencies (negative Signs) ******

                      1                      2                      3
                      A                      A                      A
 Frequencies --  -7484.5089             -7484.5089                39.9033
 Red. masses --      1.0426                 1.0426                 1.0532
 Frc consts  --     34.4122                34.4122                 0.0010
 IR Inten    --    251.7909               251.7909                 0.0917

                      4
                      A
 Frequencies --  15777.8891
 Red. masses --      1.0583
 Frc consts  --    155.2249
 IR Inten    --     93.1011

 - Thermochemistry -
 -------------------
 Temperature   298.150 Kelvin.  Pressure   1.00000 Atm.
 Atom     1 has atomic number  1 and mass   1.00783

 Molecular mass:    21.01405 amu.
 Principal axes and moments of inertia in atomic units:
                           1         2         3
     Eigenvalues --     0.00000  41.16419  41.16419
           X            1.00000  -0.00000   0.00000
           Y            0.00000   1.00000   0.00000
           Z            0.00000   0.00000   1.00000
 This molecule is a prolate symmetric top.
 Rotational symmetry number  1.
 Rotational temperature (Kelvin)      2.10411
 Rotational constant (GHZ):          43.842506
    2 imaginary frequencies ignored.
 Zero-point vibrational energy      94611.4 (Joules/Mol)
                                   22.61267 (Kcal/Mol)
 Warning -- explicit consideration of   1 degrees of freedom as
           vibrations may cause significant error
 Vibrational temperatures:     57.41 22700.86
          (Kelvin)

 Zero-point correction=                           0.036036 (Hartree/Particle)
 Thermal correction to Energy=                    0.039252
 Thermal correction to Enthalpy=                  0.040196
 Thermal correction to Gibbs Free Energy=         0.014758
 Sum of electronic and zero-point Energies=           -100.483270
 Sum of electronic and thermal Energies=              -100.480053
 Sum of electronic and thermal Enthalpies=            -100.479109
 Sum of electronic and thermal Free Energies=         -100.504548

                     E (Thermal)             CV                S
                      KCal/Mol        Cal/Mol-Kelvin    Cal/Mol-Kelvin
 Total                   24.631              6.949             53.541
 Electronic               0.000              0.000              1.377
 Translational            0.889              2.981             35.068
 Rotational               0.592              1.987             11.831
 Vibrational             23.150              1.981              5.264
 Vibration     1          0.594              1.981              5.264

 Normal termination of Gaussian 16 at Fri Aug 22 15:39:56 2025.
