 Gaussian 16, Revision C.01,
 Gaussian 16:  ES64L-G16RevC.01  3-Jul-2019

 -----------------------------------------
 # sp b3lyp/6-311g** Force nosymm scf=(qc)
 -----------------------------------------

 -------------------
 Title Card Required
 -------------------
 Symbolic Z-matrix:
 Charge =  0 Multiplicity = 2

                          Input orientation:
 ---------------------------------------------------------------------
 Center     Atomic      Atomic             Coordinates (Angstroms)
 Number     Number       Type             X           Y           Z
 ---------------------------------------------------------------------
      1          1           0        0.000000    0.000000    0.000000
      2          1           0       -2.200000    0.000000    0.000000
      3          9           0        3.100000    0.000000    0.000000
 ---------------------------------------------------------------------

 SCF Done:  E(UB3LYP) =  -100.769193410     a.u. after   25 cycles

 Alpha  occ. eigenvalues --  -24.74576  -1.20596  -0.53694  -0.45084  -0.45084
 Alpha  occ. eigenvalues --   -0.33295
 Alpha virt. eigenvalues --   -0.11122   0.25614   0.32766   0.89189   0.91978
 Alpha virt. eigenvalues --    0.91978   1.03376   1.23294   1.24544   1.24544
 Alpha virt. eigenvalues --    1.38322   1.38322   1.44530   2.13613   2.35553

  Beta  occ. eigenvalues --  -24.71518  -1.11825  -0.42022  -0.42022  -0.33629
  Beta virt. eigenvalues --   -0.25084  -0.10369   0.25789   0.33605   0.93449
  Beta virt. eigenvalues --    0.93449   0.98065   1.07329   1.22871   1.24107
  Beta virt. eigenvalues --    1.24107   1.39514   1.39514   1.45571   2.14755

 Mulliken charges and spin densities:
               1          2
     1  H    0.018360  -0.895418
     2  H    0.009129   0.926384
     3  F   -0.027489   0.969034
 Sum of Mulliken charges =   0.00000   1.00000

 Dipole moment (field-independent basis, Debye):
    X=             -0.5329    Y=              0.0000    Z=             -0.0000  Tot=              0.5329
 Quadrupole moment (field-independent basis, Debye-Ang):
   XX=             -7.4530   YY=             -7.6882   ZZ=             -7.6882
   XY=             -0.0000   XZ=             -0.0000   YZ=              0.0000

  Exact polarizability:      51.415      -0.000       2.009      -0.000      -0.000       2.009
 Approx polarizability:      43.644      -0.000       1.925      -0.000       0.000       1.925

 ******    2 imaginary frequencies (negative Signs) ******

                      1                      2                      3
                      A                      A                      A
 Frequencies --  -1037.7644              -217.9803               400.2803
 Red. masses --      1.0081                 1.1082                 1.0143
 Frc consts  --      0.6397                 0.0310                 0.0958
 IR Inten    --     21.1460                21.4006                 0.1890

                      4
                      A
 Frequencies --    400.2803
 Red. masses --      1.0143
 Frc consts  --      0.0958
 IR Inten    --      0.1890

 - Thermochemistry -
 -------------------
 Temperature   298.150 Kelvin.  Pressure   1.00000 Atm.
 Atom     1 has atomic number  1 and mass   1.00783

 Molecular mass:    21.01405 amu.
 Principal axes and moments of inertia in atomic units:
                           1         2         3
     Eigenvalues --     0.00000 123.50348 123.50348
           X            1.00000  -0.00000   0.00000
           Y            0.00000   1.00000   0.00000
           Z            0.00000   0.00000   1.00000
 This molecule is a prolate symmetric top.
 Rotational symmetry number  1.
 Rotational temperature (Kelvin)      0.70131
 Rotational constant (GHZ):          14.612878
    2 imaginary frequencies ignored.
 Zero-point vibrational energy       4788.4 (Joules/Mol)
                                    1.14446 (Kcal/Mol)
 Warning -- explicit consideration of   2 degrees of freedom as
           vibrations may cause significant error
 Vibrational temperatures:    575.91   575.91
          (Kelvin)

 Zero-point correction=                           0.001824 (Hartree/Particle)
 Thermal correction to Energy=                    0.004802
 Thermal correction to Enthalpy=                  0.005747
 Thermal correction to Gibbs Free Energy=        -0.019142
 Sum of electronic and zero-point Energies=           -100.767370
 Sum of electronic and thermal Energies=              -100.764391
 Sum of electronic and thermal Enthalpies=            -100.763447
 Sum of electronic and thermal Free Energies=         -100.788336

                     E (Thermal)             CV                S
                      KCal/Mol        Cal/Mol-Kelvin    Cal/Mol-Kelvin
 Total                    3.014              7.907             52.383
 Electronic               0.000              0.000              1.377
 Translational            0.889              2.981             35.068
 Rotational               0.592              1.987             14.015
 Vibrational              1.532              2.939              1.923
 Vibration     1          0.766              1.470              0.962
 Vibration     2          0.766              1.470              0.962

 Normal termination of Gaussian 16 at Fri Aug 22 19:54:48 2025.
