 Gaussian 16, Revision C.01,
 Gaussian 16:  ES64L-G16RevC.01  3-Jul-2019

 -----------------------------------------
 # sp b3lyp/6-311g** Force nosymm scf=(qc)
 -----------------------------------------

 -------------------
 Title Card Required
 -------------------
 Symbolic Z-matrix:
 Charge =  0 Multiplicity = 2

                          Input orientation:
 ---------------------------------------------------------------------
 Center     Atomic      Atomic             Coordinates (Angstroms)
 Number     Number       Type             X           Y           Z
 ---------------------------------------------------------------------
      1          1           0        0.000000    0.000000    0.000000
      2          1           0       -0.600000    0.000000    0.000000
      3          9           0        0.650000    0.000000    0.000000
 ---------------------------------------------------------------------

 SCF Done:  E(UB3LYP) =  -100.602270501     a.u. after    6 cycles

 Alpha  occ. eigenvalues --  -24.69326  -1.42813  -0.73014  -0.48446  -0.48446
 Alpha  occ. eigenvalues --   -0.27001
 Alpha virt. eigenvalues --    0.16882   0.18451   0.82939   0.84237   0.84237
 Alpha virt. eigenvalues --    0.92765   1.11082   1.11082   1.42654   1.59791
 Alpha virt. eigenvalues --    1.97080   1.97080   2.07508   3.34691   3.72536

  Beta  occ. eigenvalues --  -24.68377  -1.39786  -0.69233  -0.47641  -0.47641
  Beta virt. eigenvalues --   -0.08923   0.17441   0.23860   0.85277   0.85910
  Beta virt. eigenvalues --    0.85910   0.97238   1.16297   1.16297   1.44861
  Beta virt. eigenvalues --    1.64478   2.02592   2.02592   2.14707   3.41032

 Mulliken charges and spin densities:
               1          2
     1  H    0.280306  -0.086510
     2  H   -0.164906   0.964686
     3  F   -0.115400   0.121824
 Sum of Mulliken charges =   0.00000   1.00000

 Dipole moment (field-independent basis, Debye):
    X=             -0.3405    Y=              0.0000    Z=              0.0000  Tot=              0.3405
 Quadrupole moment (field-independent basis, Debye-Ang):
   XX=             -7.5778   YY=             -6.4504   ZZ=             -6.4504
   XY=              0.0000   XZ=             -0.0000   YZ=             -0.0000

  Exact polarizability:       8.410       0.000       2.445      -0.000       0.000       2.445
 Approx polarizability:       8.286       0.000       2.551      -0.000       0.000       2.551

 ******    2 imaginary frequencies (negative Signs) ******

                      1                      2                      3
                      A                      A                      A
 Frequencies --  -5719.9218             -5719.9218              5033.6130
 Red. masses --      1.0170                 1.0170                 1.0736
 Frc consts  --     19.6043                19.6043                16.0271
 IR Inten    --    139.6071               139.6071               410.7906

                      4
                      A
 Frequencies --  11693.7521
 Red. masses --      1.0385
 Frc consts  --     83.6709
 IR Inten    --     23.6834

 - Thermochemistry -
 -------------------
 Temperature   298.150 Kelvin.  Pressure   1.00000 Atm.
 Atom     1 has atomic number  1 and mass   1.00783

 Molecular mass:    21.01405 amu.
 Principal axes and moments of inertia in atomic units:
                           1         2         3
     Eigenvalues --     0.00000   6.52092   6.52092
           X            1.00000  -0.00000   0.00000
           Y            0.00000   1.00000   0.00000
           Z            0.00000   0.00000   1.00000
 This molecule is a prolate symmetric top.
 Rotational symmetry number  1.
 Rotational temperature (Kelvin)     13.28247
 Rotational constant (GHZ):         276.761704
    2 imaginary frequencies ignored.
 Zero-point vibrational energy     100051.9 (Joules/Mol)
                                   23.91297 (Kcal/Mol)
 Vibrational temperatures:   7242.25 16824.70
          (Kelvin)

 Zero-point correction=                           0.038108 (Hartree/Particle)
 Thermal correction to Energy=                    0.040468
 Thermal correction to Enthalpy=                  0.041412
 Thermal correction to Gibbs Free Energy=         0.020214
 Sum of electronic and zero-point Energies=           -100.564163
 Sum of electronic and thermal Energies=              -100.561802
 Sum of electronic and thermal Enthalpies=            -100.560858
 Sum of electronic and thermal Free Energies=         -100.582056

                     E (Thermal)             CV                S
                      KCal/Mol        Cal/Mol-Kelvin    Cal/Mol-Kelvin
 Total                   25.394              4.968             44.615
 Electronic               0.000              0.000              1.377
 Translational            0.889              2.981             35.068
 Rotational               0.592              1.987              8.170
 Vibrational             23.913              0.000              0.000

 Normal termination of Gaussian 16 at Fri Aug 22 15:43:05 2025.
