 Gaussian 16, Revision C.01,
 Gaussian 16:  ES64L-G16RevC.01  3-Jul-2019

 -----------------------------------------
 # sp b3lyp/6-311g** Force nosymm scf=(qc)
 -----------------------------------------

 -------------------
 Title Card Required
 -------------------
 Symbolic Z-matrix:
 Charge =  0 Multiplicity = 2

                          Input orientation:
 ---------------------------------------------------------------------
 Center     Atomic      Atomic             Coordinates (Angstroms)
 Number     Number       Type             X           Y           Z
 ---------------------------------------------------------------------
      1          1           0        0.000000    0.000000    0.000000
      2          1           0       -1.500000    0.000000    0.000000
      3          9           0        3.150000    0.000000    0.000000
 ---------------------------------------------------------------------

 SCF Done:  E(UB3LYP) =  -100.820548018     a.u. after   82 cycles

 Alpha  occ. eigenvalues --  -24.76597  -1.22441  -0.55634  -0.46859  -0.46786
 Alpha  occ. eigenvalues --   -0.33487
 Alpha virt. eigenvalues --   -0.09717   0.25035   0.30529   0.85798   0.90672
 Alpha virt. eigenvalues --    0.92796   1.02385   1.07653   1.20436   1.20441
 Alpha virt. eigenvalues --    1.41529   1.41534   1.82347   2.22604   2.47166

  Beta  occ. eigenvalues --  -24.73438  -1.13361  -0.43701  -0.43619  -0.33479
  Beta virt. eigenvalues --   -0.26267  -0.09721   0.25072   0.30582   0.92173
  Beta virt. eigenvalues --    0.94358   0.95260   1.06373   1.07651   1.20430
  Beta virt. eigenvalues --    1.20435   1.41526   1.41531   1.82384   2.22689

 Mulliken charges and spin densities:
               1          2
     1  H   -0.000073  -0.103285
     2  H   -0.005481   0.102692
     3  F    0.005555   1.000593
 Sum of Mulliken charges =   0.00000   1.00000

 Dipole moment (field-independent basis, Debye):
    X=              0.0906    Y=              0.0000    Z=              0.0000  Tot=              0.0906
 Quadrupole moment (field-independent basis, Debye-Ang):
   XX=             -6.1878   YY=             -7.0920   ZZ=             -7.5759
   XY=              0.0000   XZ=              0.0000   YZ=              0.3579

  Exact polarizability:      23.185       0.000       2.414       0.000       0.198       2.146
 Approx polarizability:      43.744       0.000       2.492       0.000       0.241       2.166

 ******    1 imaginary frequencies (negative Signs) ******

                      1                      2                      3
                      A                      A                      A
 Frequencies --  -2289.2394                37.5542              1209.7308
 Red. masses --      1.0078                 1.1085                 1.0114
 Frc consts  --      3.1118                 0.0009                 0.8721
 IR Inten    --      0.1047                 0.5071                 0.0308

                      4
                      A
 Frequencies --   1219.0194
 Red. masses --      1.0114
 Frc consts  --      0.8855
 IR Inten    --      0.0050

 - Thermochemistry -
 -------------------
 Temperature   298.150 Kelvin.  Pressure   1.00000 Atm.
 Atom     1 has atomic number  1 and mass   1.00783

 Molecular mass:    21.01405 amu.
 Principal axes and moments of inertia in atomic units:
                           1         2         3
     Eigenvalues --     0.00000 103.02932 103.02932
           X            1.00000  -0.00000   0.00000
           Y            0.00000   1.00000   0.00000
           Z            0.00000   0.00000   1.00000
 This molecule is a prolate symmetric top.
 Rotational symmetry number  1.
 Rotational temperature (Kelvin)      0.84067
 Rotational constant (GHZ):          17.516773
    1 imaginary frequencies ignored.
 Zero-point vibrational energy      14751.8 (Joules/Mol)
                                    3.52576 (Kcal/Mol)
 Warning -- explicit consideration of   1 degrees of freedom as
           vibrations may cause significant error
 Vibrational temperatures:     54.03  1740.53  1753.90
          (Kelvin)

 Zero-point correction=                           0.005619 (Hartree/Particle)
 Thermal correction to Energy=                    0.008872
 Thermal correction to Enthalpy=                  0.009816
 Thermal correction to Gibbs Free Energy=        -0.016583
 Sum of electronic and zero-point Energies=           -100.814929
 Sum of electronic and thermal Energies=              -100.811676
 Sum of electronic and thermal Enthalpies=            -100.810732
 Sum of electronic and thermal Free Energies=         -100.837131

                     E (Thermal)             CV                S
                      KCal/Mol        Cal/Mol-Kelvin    Cal/Mol-Kelvin
 Total                    5.567              7.341             55.562
 Electronic               0.000              0.000              1.377
 Translational            0.889              2.981             35.068
 Rotational               0.592              1.987             13.654
 Vibrational              4.086              2.373              5.462
 Vibration     1          0.594              1.982              5.384

 Normal termination of Gaussian 16 at Fri Aug 22 20:08:25 2025.
