 Gaussian 16, Revision C.01,
 Gaussian 16:  ES64L-G16RevC.01  3-Jul-2019

 -----------------------------------------
 # sp b3lyp/6-311g** Force nosymm scf=(qc)
 -----------------------------------------

 -------------------
 Title Card Required
 -------------------
 Symbolic Z-matrix:
 Charge =  0 Multiplicity = 2

                          Input orientation:
 ---------------------------------------------------------------------
 Center     Atomic      Atomic             Coordinates (Angstroms)
 Number     Number       Type             X           Y           Z
 ---------------------------------------------------------------------
      1          1           0        0.000000    0.000000    0.000000
      2          1           0       -3.200000    0.000000    0.000000
      3          9           0        3.050000    0.000000    0.000000
 ---------------------------------------------------------------------

 SCF Done:  E(UB3LYP) =  -100.761143334     a.u. after   23 cycles

 Alpha  occ. eigenvalues --  -24.74269  -1.20315  -0.53388  -0.44828  -0.44828
 Alpha  occ. eigenvalues --   -0.32601
 Alpha virt. eigenvalues --   -0.08479   0.24399   0.35684   0.89249   0.92165
 Alpha virt. eigenvalues --    0.92165   1.03643   1.24920   1.24920   1.25361
 Alpha virt. eigenvalues --    1.43354   1.43354   1.43634   2.15263   2.39633

  Beta  occ. eigenvalues --  -24.71229  -1.11600  -0.41785  -0.41785  -0.33629
  Beta virt. eigenvalues --   -0.24881  -0.07140   0.24337   0.37296   0.93631
  Beta virt. eigenvalues --    0.93631   0.98018   1.07441   1.23730   1.23730
  Beta virt. eigenvalues --    1.24310   1.45143   1.45352   1.45352   2.15629

 Mulliken charges and spin densities:
               1          2
     1  H    0.032481  -0.958898
     2  H    0.000896   0.995599
     3  F   -0.033377   0.963299
 Sum of Mulliken charges =  -0.00000   1.00000

 Dipole moment (field-independent basis, Debye):
    X=             -0.5367    Y=              0.0000    Z=             -0.0000  Tot=              0.5367
 Quadrupole moment (field-independent basis, Debye-Ang):
   XX=             -8.1512   YY=             -7.6177   ZZ=             -7.6177
   XY=             -0.0000   XZ=             -0.0000   YZ=             -0.0000

  Exact polarizability:      33.015      -0.000       2.024      -0.000      -0.000       2.024
 Approx polarizability:      32.109      -0.000       1.926      -0.000       0.000       1.926

 ******    2 imaginary frequencies (negative Signs) ******

                      1                      2                      3
                      A                      A                      A
 Frequencies --   -390.8715              -155.9365               140.7137
 Red. masses --      1.0336                 1.0789                 1.0185
 Frc consts  --      0.0930                 0.0155                 0.0119
 IR Inten    --     33.9158                 2.7395                 0.9576

                      4
                      A
 Frequencies --    140.7138
 Red. masses --      1.0185
 Frc consts  --      0.0119
 IR Inten    --      0.9576

 - Thermochemistry -
 -------------------
 Temperature   298.150 Kelvin.  Pressure   1.00000 Atm.
 Atom     1 has atomic number  1 and mass   1.00783

 Molecular mass:    21.01405 amu.
 Principal axes and moments of inertia in atomic units:
                           1         2         3
     Eigenvalues --     0.00000 159.13728 159.13728
           X            1.00000  -0.00000   0.00000
           Y            0.00000   1.00000   0.00000
           Z            0.00000   0.00000   1.00000
 This molecule is a prolate symmetric top.
 Rotational symmetry number  1.
 Rotational temperature (Kelvin)      0.54427
 Rotational constant (GHZ):          11.340782
    2 imaginary frequencies ignored.
 Zero-point vibrational energy       1683.3 (Joules/Mol)
                                    0.40232 (Kcal/Mol)
 Warning -- explicit consideration of   2 degrees of freedom as
           vibrations may cause significant error
 Vibrational temperatures:    202.46   202.46
          (Kelvin)

 Zero-point correction=                           0.000641 (Hartree/Particle)
 Thermal correction to Energy=                    0.004321
 Thermal correction to Enthalpy=                  0.005265
 Thermal correction to Gibbs Free Energy=        -0.021605
 Sum of electronic and zero-point Energies=           -100.760502
 Sum of electronic and thermal Energies=              -100.756822
 Sum of electronic and thermal Enthalpies=            -100.755878
 Sum of electronic and thermal Free Energies=         -100.782748

                     E (Thermal)             CV                S
                      KCal/Mol        Cal/Mol-Kelvin    Cal/Mol-Kelvin
 Total                    2.711              8.793             56.552
 Electronic               0.000              0.000              1.377
 Translational            0.889              2.981             35.068
 Rotational               0.592              1.987             14.518
 Vibrational              1.230              3.825              5.588
 Vibration     1          0.615              1.913              2.794
 Vibration     2          0.615              1.913              2.794

 Normal termination of Gaussian 16 at Fri Aug 22 19:45:00 2025.
