 Gaussian 16, Revision C.01,
 Gaussian 16:  ES64L-G16RevC.01  3-Jul-2019

 -----------------------------------------
 # sp b3lyp/6-311g** Force nosymm scf=(qc)
 -----------------------------------------

 -------------------
 Title Card Required
 -------------------
 Symbolic Z-matrix:
 Charge =  0 Multiplicity = 2

                          Input orientation:
 ---------------------------------------------------------------------
 Center     Atomic      Atomic             Coordinates (Angstroms)
 Number     Number       Type             X           Y           Z
 ---------------------------------------------------------------------
      1          1           0        0.000000    0.000000    0.000000
      2          1           0       -1.350000    0.000000    0.000000
      3          9           0        1.300000    0.000000    0.000000
 ---------------------------------------------------------------------

 SCF Done:  E(UB3LYP) =  -100.917850825     a.u. after    8 cycles

 Alpha  occ. eigenvalues --  -24.64255  -1.12027  -0.49933  -0.38124  -0.37203
 Alpha  occ. eigenvalues --   -0.37203
 Alpha virt. eigenvalues --   -0.00082   0.20009   0.29976   0.92656   0.92656
 Alpha virt. eigenvalues --    1.01308   1.09594   1.12217   1.12217   1.45589
 Alpha virt. eigenvalues --    1.45589   1.55660   1.96018   2.24954   2.43699

  Beta  occ. eigenvalues --  -24.63207  -1.09305  -0.44722  -0.36223  -0.36223
  Beta virt. eigenvalues --   -0.20973   0.03356   0.23360   0.32500   0.92996
  Beta virt. eigenvalues --    0.92996   1.03782   1.15556   1.19375   1.19375
  Beta virt. eigenvalues --    1.48825   1.48825   1.58722   2.03429   2.29106

 Mulliken charges and spin densities:
               1          2
     1  H    0.277644  -0.098665
     2  H    0.064273   0.784108
     3  F   -0.341917   0.314557
 Sum of Mulliken charges =  -0.00000   1.00000

 Dipole moment (field-independent basis, Debye):
    X=             -2.7013    Y=              0.0000    Z=             -0.0000  Tot=              2.7013
 Quadrupole moment (field-independent basis, Debye-Ang):
   XX=             -7.9825   YY=             -7.0346   ZZ=             -7.0346
   XY=              0.0000   XZ=             -0.0000   YZ=              0.0000

  Exact polarizability:      25.580      -0.000       2.426       0.000       0.000       2.426
 Approx polarizability:      34.919      -0.000       2.395       0.000       0.000       2.395

 ******    1 imaginary frequencies (negative Signs) ******

                      1                      2                      3
                      A                      A                      A
 Frequencies --  -2453.5111               460.3467              1123.3324
 Red. masses --      1.0221                 1.0917                 1.0184
 Frc consts  --      3.6251                 0.1363                 0.7572
 IR Inten    --     68.0809                29.1910                41.4844

                      4
                      A
 Frequencies --   1123.3324
 Red. masses --      1.0184
 Frc consts  --      0.7572
 IR Inten    --     41.4844

 - Thermochemistry -
 -------------------
 Temperature   298.150 Kelvin.  Pressure   1.00000 Atm.
 Atom     1 has atomic number  1 and mass   1.00783

 Molecular mass:    21.01405 amu.
 Principal axes and moments of inertia in atomic units:
                           1         2         3
     Eigenvalues --     0.00000  28.66326  28.66326
           X            1.00000  -0.00000   0.00000
           Y            0.00000   1.00000   0.00000
           Z            0.00000   0.00000   1.00000
 This molecule is a prolate symmetric top.
 Rotational symmetry number  1.
 Rotational temperature (Kelvin)      3.02177
 Rotational constant (GHZ):          62.963565
    1 imaginary frequencies ignored.
 Zero-point vibrational energy      16191.5 (Joules/Mol)
                                    3.86987 (Kcal/Mol)
 Warning -- explicit consideration of   1 degrees of freedom as
           vibrations may cause significant error
 Vibrational temperatures:    662.34  1616.22  1616.22
          (Kelvin)

 Zero-point correction=                           0.006167 (Hartree/Particle)
 Thermal correction to Energy=                    0.008828
 Thermal correction to Enthalpy=                  0.009772
 Thermal correction to Gibbs Free Energy=        -0.013241
 Sum of electronic and zero-point Energies=           -100.911684
 Sum of electronic and thermal Energies=              -100.909023
 Sum of electronic and thermal Enthalpies=            -100.908079
 Sum of electronic and thermal Free Energies=         -100.931092

                     E (Thermal)             CV                S
                      KCal/Mol        Cal/Mol-Kelvin    Cal/Mol-Kelvin
 Total                    5.540              6.827             48.436
 Electronic               0.000              0.000              1.377
 Translational            0.889              2.981             35.068
 Rotational               0.592              1.987             11.112
 Vibrational              4.059              1.859              0.878
 Vibration     1          0.818              1.338              0.765

 Normal termination of Gaussian 16 at Fri Aug 22 16:14:35 2025.
