 Gaussian 16, Revision C.01,
 Gaussian 16:  ES64L-G16RevC.01  3-Jul-2019

 -----------------------------------------
 # sp b3lyp/6-311g** Force nosymm scf=(qc)
 -----------------------------------------

 -------------------
 Title Card Required
 -------------------
 Symbolic Z-matrix:
 Charge =  0 Multiplicity = 2

                          Input orientation:
 ---------------------------------------------------------------------
 Center     Atomic      Atomic             Coordinates (Angstroms)
 Number     Number       Type             X           Y           Z
 ---------------------------------------------------------------------
      1          1           0        0.000000    0.000000    0.000000
      2          1           0       -1.800000    0.000000    0.000000
      3          9           0        1.300000    0.000000    0.000000
 ---------------------------------------------------------------------

 SCF Done:  E(UB3LYP) =  -100.906404107     a.u. after    9 cycles

 Alpha  occ. eigenvalues --  -24.63492  -1.10704  -0.46786  -0.37341  -0.36396
 Alpha  occ. eigenvalues --   -0.36396
 Alpha virt. eigenvalues --   -0.05072   0.22505   0.28058   0.93711   0.93711
 Alpha virt. eigenvalues --    1.02121   1.05409   1.18962   1.18962   1.35967
 Alpha virt. eigenvalues --    1.35967   1.47486   1.71618   2.14230   2.33070

  Beta  occ. eigenvalues --  -24.63107  -1.09716  -0.44819  -0.36040  -0.36040
  Beta virt. eigenvalues --   -0.17323  -0.01340   0.26797   0.31959   0.93694
  Beta virt. eigenvalues --    0.93694   1.03286   1.12354   1.31330   1.31330
  Beta virt. eigenvalues --    1.39595   1.39595   1.54657   1.74701   2.23871

 Mulliken charges and spin densities:
               1          2
     1  H    0.321220  -0.044772
     2  H    0.045132   0.927958
     3  F   -0.366352   0.116815
 Sum of Mulliken charges =  -0.00000   1.00000

 Dipole moment (field-independent basis, Debye):
    X=             -2.8416    Y=             -0.0000    Z=             -0.0000  Tot=              2.8416
 Quadrupole moment (field-independent basis, Debye-Ang):
   XX=             -8.3167   YY=             -7.1320   ZZ=             -7.1320
   XY=             -0.0000   XZ=             -0.0000   YZ=              0.0000

  Exact polarizability:      20.861       0.000       2.350       0.000       0.000       2.350
 Approx polarizability:      27.306      -0.000       2.306      -0.000       0.000       2.306

 ******    1 imaginary frequencies (negative Signs) ******

                      1                      2                      3
                      A                      A                      A
 Frequencies --  -1406.3490                 3.7085              1111.5132
 Red. masses --      1.0243                 1.0892                 1.0223
 Frc consts  --      1.1936                 0.0000                 0.7442
 IR Inten    --    180.4932                 8.3361                81.2280

                      4
                      A
 Frequencies --   1111.5132
 Red. masses --      1.0223
 Frc consts  --      0.7442
 IR Inten    --     81.2280

 - Thermochemistry -
 -------------------
 Temperature   298.150 Kelvin.  Pressure   1.00000 Atm.
 Atom     1 has atomic number  1 and mass   1.00783

 Molecular mass:    21.01405 amu.
 Principal axes and moments of inertia in atomic units:
                           1         2         3
     Eigenvalues --     0.00000  37.32713  37.32713
           X            1.00000  -0.00000   0.00000
           Y            0.00000   1.00000   0.00000
           Z            0.00000   0.00000   1.00000
 This molecule is a prolate symmetric top.
 Rotational symmetry number  1.
 Rotational temperature (Kelvin)      2.32040
 Rotational constant (GHZ):          48.349320
    1 imaginary frequencies ignored.
 Zero-point vibrational energy      13318.8 (Joules/Mol)
                                    3.18328 (Kcal/Mol)
 Warning -- explicit consideration of   1 degrees of freedom as
           vibrations may cause significant error
 Vibrational temperatures:      5.34  1599.22  1599.22
          (Kelvin)

 Zero-point correction=                           0.005073 (Hartree/Particle)
 Thermal correction to Energy=                    0.008417
 Thermal correction to Enthalpy=                  0.009361
 Thermal correction to Gibbs Free Energy=        -0.018284
 Sum of electronic and zero-point Energies=           -100.901331
 Sum of electronic and thermal Energies=              -100.897987
 Sum of electronic and thermal Enthalpies=            -100.897043
 Sum of electronic and thermal Free Energies=         -100.924688

                     E (Thermal)             CV                S
                      KCal/Mol        Cal/Mol-Kelvin    Cal/Mol-Kelvin
 Total                    5.282              7.496             58.183
 Electronic               0.000              0.000              1.377
 Translational            0.889              2.981             35.068
 Rotational               0.592              1.987             11.637
 Vibrational              3.800              2.528             10.101
 Vibration     1          0.593              1.987              9.982

 Normal termination of Gaussian 16 at Fri Aug 22 16:14:55 2025.
