 Gaussian 16, Revision C.01,
 Gaussian 16:  ES64L-G16RevC.01  3-Jul-2019

 -----------------------------------------
 # sp b3lyp/6-311g** Force nosymm scf=(qc)
 -----------------------------------------

 -------------------
 Title Card Required
 -------------------
 Symbolic Z-matrix:
 Charge =  0 Multiplicity = 2

                          Input orientation:
 ---------------------------------------------------------------------
 Center     Atomic      Atomic             Coordinates (Angstroms)
 Number     Number       Type             X           Y           Z
 ---------------------------------------------------------------------
      1          1           0        0.000000    0.000000    0.000000
      2          1           0       -1.650000    0.000000    0.000000
      3          9           0        3.550000    0.000000    0.000000
 ---------------------------------------------------------------------

 SCF Done:  E(UB3LYP) =  -100.800191932     a.u. after   74 cycles

 Alpha  occ. eigenvalues --  -24.76317  -1.22200  -0.55402  -0.46586  -0.46557
 Alpha  occ. eigenvalues --   -0.33138
 Alpha virt. eigenvalues --   -0.10397   0.25604   0.30718   0.85983   0.90859
 Alpha virt. eigenvalues --    0.91871   1.01195   1.06978   1.23223   1.23224
 Alpha virt. eigenvalues --    1.38815   1.38819   1.71160   2.18170   2.42951

  Beta  occ. eigenvalues --  -24.73162  -1.13127  -0.43431  -0.43393  -0.33126
  Beta virt. eigenvalues --   -0.26048  -0.10433   0.25585   0.30803   0.92361
  Beta virt. eigenvalues --    0.93322   0.95450   1.05285   1.06971   1.23214
  Beta virt. eigenvalues --    1.23218   1.38806   1.38807   1.71202   2.18414

 Mulliken charges and spin densities:
               1          2
     1  H    0.000555  -0.540324
     2  H   -0.002720   0.540288
     3  F    0.002165   1.000036
 Sum of Mulliken charges =   0.00000   1.00000

 Dipole moment (field-independent basis, Debye):
    X=              0.0438    Y=              0.0000    Z=              0.0000  Tot=              0.0438
 Quadrupole moment (field-independent basis, Debye-Ang):
   XX=             -6.4879   YY=             -7.7719   ZZ=             -6.9076
   XY=              0.0000   XZ=              0.0001   YZ=              0.0078

  Exact polarizability:      23.894       0.000       2.022       0.000       0.004       2.485
 Approx polarizability:      39.758       0.000       1.992       0.000       0.005       2.574

 ******    2 imaginary frequencies (negative Signs) ******

                      1                      2                      3
                      A                      A                      A
 Frequencies --  -1987.6415               -37.2181               979.8849
 Red. masses --      1.0078                 1.1085                 1.0113
 Frc consts  --      2.3459                 0.0009                 0.5721
 IR Inten    --      0.0309                 0.1357                 0.0023

                      4
                      A
 Frequencies --    980.8947
 Red. masses --      1.0113
 Frc consts  --      0.5733
 IR Inten    --      0.0010

 - Thermochemistry -
 -------------------
 Temperature   298.150 Kelvin.  Pressure   1.00000 Atm.
 Atom     1 has atomic number  1 and mass   1.00783

 Molecular mass:    21.01405 amu.
 Principal axes and moments of inertia in atomic units:
                           1         2         3
     Eigenvalues --     0.00000 129.45848 129.45848
           X            1.00000  -0.00000   0.00000
           Y            0.00000   1.00000   0.00000
           Z            0.00000   0.00000   1.00000
 This molecule is a prolate symmetric top.
 Rotational symmetry number  1.
 Rotational temperature (Kelvin)      0.66905
 Rotational constant (GHZ):          13.940695
    2 imaginary frequencies ignored.
 Zero-point vibrational energy      11728.1 (Joules/Mol)
                                    2.80308 (Kcal/Mol)
 Vibrational temperatures:   1409.84  1411.29
          (Kelvin)

 Zero-point correction=                           0.004467 (Hartree/Particle)
 Thermal correction to Energy=                    0.006907
 Thermal correction to Enthalpy=                  0.007851
 Thermal correction to Gibbs Free Energy=        -0.016265
 Sum of electronic and zero-point Energies=           -100.795725
 Sum of electronic and thermal Energies=              -100.793285
 Sum of electronic and thermal Enthalpies=            -100.792341
 Sum of electronic and thermal Free Energies=         -100.816457

                     E (Thermal)             CV                S
                      KCal/Mol        Cal/Mol-Kelvin    Cal/Mol-Kelvin
 Total                    4.334              5.766             50.756
 Electronic               0.000              0.000              1.377
 Translational            0.889              2.981             35.068
 Rotational               0.592              1.987             14.108
 Vibrational              2.853              0.798              0.202

 Normal termination of Gaussian 16 at Fri Aug 22 22:37:19 2025.
