 Gaussian 16, Revision C.01,
 Gaussian 16:  ES64L-G16RevC.01  3-Jul-2019

 -----------------------------------------
 # sp b3lyp/6-311g** Force nosymm scf=(qc)
 -----------------------------------------

 -------------------
 Title Card Required
 -------------------
 Symbolic Z-matrix:
 Charge =  0 Multiplicity = 2

                          Input orientation:
 ---------------------------------------------------------------------
 Center     Atomic      Atomic             Coordinates (Angstroms)
 Number     Number       Type             X           Y           Z
 ---------------------------------------------------------------------
      1          1           0        0.000000    0.000000    0.000000
      2          1           0       -3.250000    0.000000    0.000000
      3          9           0        2.650000    0.000000    0.000000
 ---------------------------------------------------------------------

 SCF Done:  E(UB3LYP) =  -100.765056801     a.u. after   20 cycles

 Alpha  occ. eigenvalues --  -24.72567  -1.18732  -0.51678  -0.43403  -0.43403
 Alpha  occ. eigenvalues --   -0.32883
 Alpha virt. eigenvalues --   -0.09814   0.23934   0.35280   0.90012   0.93163
 Alpha virt. eigenvalues --    0.93163   1.05888   1.24637   1.24637   1.25055
 Alpha virt. eigenvalues --    1.41681   1.41681   1.43427   2.14923   2.37033

  Beta  occ. eigenvalues --  -24.69654  -1.10418  -0.40494  -0.40494  -0.34789
  Beta virt. eigenvalues --   -0.23871  -0.07179   0.24309   0.37417   0.94575
  Beta virt. eigenvalues --    0.94575   0.97601   1.08846   1.22573   1.22573
  Beta virt. eigenvalues --    1.26371   1.45186   1.45414   1.45414   2.14136

 Mulliken charges and spin densities:
               1          2
     1  H    0.068976  -0.917656
     2  H    0.001401   0.996128
     3  F   -0.070377   0.921528
 Sum of Mulliken charges =  -0.00000   1.00000

 Dipole moment (field-independent basis, Debye):
    X=             -0.9750    Y=             -0.0000    Z=              0.0000  Tot=              0.9750
 Quadrupole moment (field-independent basis, Debye-Ang):
   XX=             -8.9630   YY=             -7.5913   ZZ=             -7.5913
   XY=             -0.0000   XZ=              0.0000   YZ=              0.0000

  Exact polarizability:      33.112      -0.000       2.022       0.000       0.000       2.022
 Approx polarizability:      38.784      -0.000       1.920       0.000      -0.000       1.920

 ******    2 imaginary frequencies (negative Signs) ******

                      1                      2                      3
                      A                      A                      A
 Frequencies --   -545.0569              -159.3980               206.3350
 Red. masses --      1.0480                 1.0637                 1.0206
 Frc consts  --      0.1834                 0.0159                 0.0256
 IR Inten    --     66.0720                 1.1846                 4.4424

                      4
                      A
 Frequencies --    206.3350
 Red. masses --      1.0206
 Frc consts  --      0.0256
 IR Inten    --      4.4424

 - Thermochemistry -
 -------------------
 Temperature   298.150 Kelvin.  Pressure   1.00000 Atm.
 Atom     1 has atomic number  1 and mass   1.00783

 Molecular mass:    21.01405 amu.
 Principal axes and moments of inertia in atomic units:
                           1         2         3
     Eigenvalues --     0.00000 137.93753 137.93753
           X            1.00000  -0.00000   0.00000
           Y            0.00000   1.00000   0.00000
           Z            0.00000   0.00000   1.00000
 This molecule is a prolate symmetric top.
 Rotational symmetry number  1.
 Rotational temperature (Kelvin)      0.62792
 Rotational constant (GHZ):          13.083758
    2 imaginary frequencies ignored.
 Zero-point vibrational energy       2468.3 (Joules/Mol)
                                    0.58994 (Kcal/Mol)
 Warning -- explicit consideration of   2 degrees of freedom as
           vibrations may cause significant error
 Vibrational temperatures:    296.87   296.87
          (Kelvin)

 Zero-point correction=                           0.000940 (Hartree/Particle)
 Thermal correction to Energy=                    0.004402
 Thermal correction to Enthalpy=                  0.005347
 Thermal correction to Gibbs Free Energy=        -0.020706
 Sum of electronic and zero-point Energies=           -100.764117
 Sum of electronic and thermal Energies=              -100.760654
 Sum of electronic and thermal Enthalpies=            -100.759710
 Sum of electronic and thermal Free Energies=         -100.785762

                     E (Thermal)             CV                S
                      KCal/Mol        Cal/Mol-Kelvin    Cal/Mol-Kelvin
 Total                    2.763              8.630             54.831
 Electronic               0.000              0.000              1.377
 Translational            0.889              2.981             35.068
 Rotational               0.592              1.987             14.234
 Vibrational              1.281              3.662              4.152
 Vibration     1          0.641              1.831              2.076
 Vibration     2          0.641              1.831              2.076

 Normal termination of Gaussian 16 at Fri Aug 22 18:15:36 2025.
