 Gaussian 16, Revision C.01,
 Gaussian 16:  ES64L-G16RevC.01  3-Jul-2019

 -----------------------------------------
 # sp b3lyp/6-311g** Force nosymm scf=(qc)
 -----------------------------------------

 -------------------
 Title Card Required
 -------------------
 Symbolic Z-matrix:
 Charge =  0 Multiplicity = 2

                          Input orientation:
 ---------------------------------------------------------------------
 Center     Atomic      Atomic             Coordinates (Angstroms)
 Number     Number       Type             X           Y           Z
 ---------------------------------------------------------------------
      1          1           0        0.000000    0.000000    0.000000
      2          1           0       -2.650000    0.000000    0.000000
      3          9           0        1.750000    0.000000    0.000000
 ---------------------------------------------------------------------

 SCF Done:  E(UB3LYP) =  -100.807008107     a.u. after   11 cycles

 Alpha  occ. eigenvalues --  -24.63656  -1.08167  -0.40291  -0.35481  -0.35460
 Alpha  occ. eigenvalues --   -0.35460
 Alpha virt. eigenvalues --   -0.19212   0.21553   0.26579   0.95581   0.95601
 Alpha virt. eigenvalues --    0.95601   1.08249   1.21844   1.21844   1.23575
 Alpha virt. eigenvalues --    1.26760   1.26760   1.68740   2.12902   2.15916

  Beta  occ. eigenvalues --  -24.63748  -1.08419  -0.40164  -0.35550  -0.35550
  Beta virt. eigenvalues --   -0.19672  -0.08927   0.24774   0.35595   0.95662
  Beta virt. eigenvalues --    0.95662   0.95857   1.08367   1.27641   1.27641
  Beta virt. eigenvalues --    1.42511   1.42511   1.43059   1.69443   2.17187

 Mulliken charges and spin densities:
               1          2
     1  H    0.305169   0.052333
     2  H    0.021513   0.977235
     3  F   -0.326682  -0.029568
 Sum of Mulliken charges =  -0.00000   1.00000

 Dipole moment (field-independent basis, Debye):
    X=             -3.0984    Y=              0.0000    Z=             -0.0000  Tot=              3.0984
 Quadrupole moment (field-independent basis, Debye-Ang):
   XX=            -10.2409   YY=             -7.4441   ZZ=             -7.4441
   XY=              0.0000   XZ=             -0.0000   YZ=             -0.0000

  Exact polarizability:      30.856       0.000       2.089       0.000      -0.000       2.089
 Approx polarizability:      62.770       0.000       2.002      -0.000       0.000       2.002

 ******    2 imaginary frequencies (negative Signs) ******

                      1                      2                      3
                      A                      A                      A
 Frequencies --  -1232.5330              -230.7884               818.9313
 Red. masses --      1.0508                 1.0608                 1.0237
 Frc consts  --      0.9405                 0.0333                 0.4045
 IR Inten    --    157.6460                 8.0324                81.3632

                      4
                      A
 Frequencies --    818.9313
 Red. masses --      1.0237
 Frc consts  --      0.4045
 IR Inten    --     81.3632

 - Thermochemistry -
 -------------------
 Temperature   298.150 Kelvin.  Pressure   1.00000 Atm.
 Atom     1 has atomic number  1 and mass   1.00783

 Molecular mass:    21.01405 amu.
 Principal axes and moments of inertia in atomic units:
                           1         2         3
     Eigenvalues --     0.00000  74.17034  74.17034
           X            1.00000  -0.00000   0.00000
           Y            0.00000   1.00000   0.00000
           Z            0.00000   0.00000   1.00000
 This molecule is a prolate symmetric top.
 Rotational symmetry number  1.
 Rotational temperature (Kelvin)      1.16777
 Rotational constant (GHZ):          24.332383
    2 imaginary frequencies ignored.
 Zero-point vibrational energy       9796.6 (Joules/Mol)
                                    2.34144 (Kcal/Mol)
 Vibrational temperatures:   1178.26  1178.26
          (Kelvin)

 Zero-point correction=                           0.003731 (Hartree/Particle)
 Thermal correction to Energy=                    0.006238
 Thermal correction to Enthalpy=                  0.007182
 Thermal correction to Gibbs Free Energy=        -0.016494
 Sum of electronic and zero-point Energies=           -100.803277
 Sum of electronic and thermal Energies=              -100.800770
 Sum of electronic and thermal Enthalpies=            -100.799826
 Sum of electronic and thermal Free Energies=         -100.823503

                     E (Thermal)             CV                S
                      KCal/Mol        Cal/Mol-Kelvin    Cal/Mol-Kelvin
 Total                    3.914              6.208             49.832
 Electronic               0.000              0.000              1.377
 Translational            0.889              2.981             35.068
 Rotational               0.592              1.987             13.001
 Vibrational              2.433              1.240              0.385

 Normal termination of Gaussian 16 at Fri Aug 22 16:41:04 2025.
