 Gaussian 16, Revision C.01,
 Gaussian 16:  ES64L-G16RevC.01  3-Jul-2019

 -----------------------------------------
 # sp b3lyp/6-311g** Force nosymm scf=(qc)
 -----------------------------------------

 -------------------
 Title Card Required
 -------------------
 Symbolic Z-matrix:
 Charge =  0 Multiplicity = 2

                          Input orientation:
 ---------------------------------------------------------------------
 Center     Atomic      Atomic             Coordinates (Angstroms)
 Number     Number       Type             X           Y           Z
 ---------------------------------------------------------------------
      1          1           0        0.000000    0.000000    0.000000
      2          1           0       -2.700000    0.000000    0.000000
      3          9           0        4.000000    0.000000    0.000000
 ---------------------------------------------------------------------

 SCF Done:  E(UB3LYP) =  -100.760828971     a.u. after   45 cycles

 Alpha  occ. eigenvalues --  -24.75900  -1.21826  -0.55025  -0.46201  -0.46201
 Alpha  occ. eigenvalues --   -0.32430
 Alpha virt. eigenvalues --   -0.08509   0.25549   0.35533   0.86552   0.91155
 Alpha virt. eigenvalues --    0.91155   1.01066   1.25156   1.25156   1.26485
 Alpha virt. eigenvalues --    1.43050   1.43050   1.43673   2.16091   2.38150

  Beta  occ. eigenvalues --  -24.72754  -1.12779  -0.43047  -0.43047  -0.32577
  Beta virt. eigenvalues --   -0.25748  -0.08313   0.25402   0.35781   0.92654
  Beta virt. eigenvalues --    0.92654   0.95939   1.05198   1.24998   1.24998
  Beta virt. eigenvalues --    1.26308   1.43334   1.43334   1.43956   2.16135

 Mulliken charges and spin densities:
               1          2
     1  H    0.001705  -0.980239
     2  H    0.000528   0.982770
     3  F   -0.002233   0.997469
 Sum of Mulliken charges =   0.00000   1.00000

 Dipole moment (field-independent basis, Debye):
    X=             -0.0529    Y=             -0.0000    Z=              0.0000  Tot=              0.0529
 Quadrupole moment (field-independent basis, Debye-Ang):
   XX=             -6.7565   YY=             -7.6519   ZZ=             -7.6519
   XY=             -0.0000   XZ=              0.0000   YZ=              0.0000

  Exact polarizability:      16.085      -0.000       2.026       0.000      -0.000       2.026
 Approx polarizability:      12.260      -0.000       1.933       0.000      -0.000       1.933

 ******    2 imaginary frequencies (negative Signs) ******

                      1                      2                      3
                      A                      A                      A
 Frequencies --   -497.7228               -74.6541               181.1346
 Red. masses --      1.0079                 1.1084                 1.0139
 Frc consts  --      0.1471                 0.0036                 0.0196
 IR Inten    --      0.5104                 0.5811                 0.0021

                      4
                      A
 Frequencies --    181.1346
 Red. masses --      1.0139
 Frc consts  --      0.0196
 IR Inten    --      0.0021

 - Thermochemistry -
 -------------------
 Temperature   298.150 Kelvin.  Pressure   1.00000 Atm.
 Atom     1 has atomic number  1 and mass   1.00783

 Molecular mass:    21.01405 amu.
 Principal axes and moments of inertia in atomic units:
                           1         2         3
     Eigenvalues --     0.00000 199.38186 199.38186
           X            1.00000  -0.00000   0.00000
           Y            0.00000   1.00000   0.00000
           Z            0.00000   0.00000   1.00000
 This molecule is a prolate symmetric top.
 Rotational symmetry number  1.
 Rotational temperature (Kelvin)      0.43441
 Rotational constant (GHZ):           9.051682
    2 imaginary frequencies ignored.
 Zero-point vibrational energy       2166.9 (Joules/Mol)
                                    0.51789 (Kcal/Mol)
 Warning -- explicit consideration of   2 degrees of freedom as
           vibrations may cause significant error
 Vibrational temperatures:    260.61   260.61
          (Kelvin)

 Zero-point correction=                           0.000825 (Hartree/Particle)
 Thermal correction to Energy=                    0.004368
 Thermal correction to Enthalpy=                  0.005312
 Thermal correction to Gibbs Free Energy=        -0.021317
 Sum of electronic and zero-point Energies=           -100.760004
 Sum of electronic and thermal Energies=              -100.756461
 Sum of electronic and thermal Enthalpies=            -100.755517
 Sum of electronic and thermal Free Energies=         -100.782146

                     E (Thermal)             CV                S
                      KCal/Mol        Cal/Mol-Kelvin    Cal/Mol-Kelvin
 Total                    2.741              8.699             56.045
 Electronic               0.000              0.000              1.377
 Translational            0.889              2.981             35.068
 Rotational               0.592              1.987             14.966
 Vibrational              1.259              3.731              4.633
 Vibration     1          0.630              1.865              2.317
 Vibration     2          0.630              1.865              2.317

 Normal termination of Gaussian 16 at Sat Aug 23 01:55:59 2025.
