 Gaussian 16, Revision C.01,
 Gaussian 16:  ES64L-G16RevC.01  3-Jul-2019

 -----------------------------------------
 # sp b3lyp/6-311g** Force nosymm scf=(qc)
 -----------------------------------------

 -------------------
 Title Card Required
 -------------------
 Symbolic Z-matrix:
 Charge =  0 Multiplicity = 2

                          Input orientation:
 ---------------------------------------------------------------------
 Center     Atomic      Atomic             Coordinates (Angstroms)
 Number     Number       Type             X           Y           Z
 ---------------------------------------------------------------------
      1          1           0        0.000000    0.000000    0.000000
      2          1           0       -3.500000    0.000000    0.000000
      3          9           0        1.650000    0.000000    0.000000
 ---------------------------------------------------------------------

 SCF Done:  E(UB3LYP) =  -100.823904480     a.u. after    9 cycles

 Alpha  occ. eigenvalues --  -24.64244  -1.08977  -0.41448  -0.36069  -0.36069
 Alpha  occ. eigenvalues --   -0.34039
 Alpha virt. eigenvalues --   -0.17838   0.19893   0.27476   0.94482   0.94482
 Alpha virt. eigenvalues --    0.98644   1.07161   1.23468   1.23468   1.23509
 Alpha virt. eigenvalues --    1.28445   1.28445   1.71829   2.13008   2.16626

  Beta  occ. eigenvalues --  -24.64268  -1.09043  -0.41487  -0.36093  -0.36093
  Beta virt. eigenvalues --   -0.17910  -0.06874   0.22833   0.38058   0.94495
  Beta virt. eigenvalues --    0.94495   0.98677   1.07167   1.28618   1.28618
  Beta virt. eigenvalues --    1.45500   1.45966   1.45966   1.71947   2.16182

 Mulliken charges and spin densities:
               1          2
     1  H    0.331993   0.010159
     2  H    0.002393   0.997509
     3  F   -0.334386  -0.007668
 Sum of Mulliken charges =  -0.00000   1.00000

 Dipole moment (field-independent basis, Debye):
    X=             -2.7507    Y=              0.0000    Z=              0.0000  Tot=              2.7507
 Quadrupole moment (field-independent basis, Debye-Ang):
   XX=            -10.4233   YY=             -7.3968   ZZ=             -7.3968
   XY=              0.0000   XZ=              0.0000   YZ=              0.0000

  Exact polarizability:      19.263       0.000       2.123      -0.000      -0.000       2.123
 Approx polarizability:      41.977      -0.000       2.037       0.000       0.000       2.037

 ******    2 imaginary frequencies (negative Signs) ******

                      1                      2                      3
                      A                      A                      A
 Frequencies --  -1190.7524               -89.8167               902.2563
 Red. masses --      1.0574                 1.0542                 1.0290
 Frc consts  --      0.8833                 0.0050                 0.4935
 IR Inten    --     40.4721                 0.3850               104.8958

                      4
                      A
 Frequencies --    902.2563
 Red. masses --      1.0290
 Frc consts  --      0.4935
 IR Inten    --    104.8958

 - Thermochemistry -
 -------------------
 Temperature   298.150 Kelvin.  Pressure   1.00000 Atm.
 Atom     1 has atomic number  1 and mass   1.00783

 Molecular mass:    21.01405 amu.
 Principal axes and moments of inertia in atomic units:
                           1         2         3
     Eigenvalues --     0.00000  97.27166  97.27166
           X            1.00000  -0.00000   0.00000
           Y            0.00000   1.00000   0.00000
           Z            0.00000   0.00000   1.00000
 This molecule is a prolate symmetric top.
 Rotational symmetry number  1.
 Rotational temperature (Kelvin)      0.89043
 Rotational constant (GHZ):          18.553618
    2 imaginary frequencies ignored.
 Zero-point vibrational energy      10793.4 (Joules/Mol)
                                    2.57968 (Kcal/Mol)
 Vibrational temperatures:   1298.15  1298.15
          (Kelvin)

 Zero-point correction=                           0.004111 (Hartree/Particle)
 Thermal correction to Energy=                    0.006579
 Thermal correction to Enthalpy=                  0.007523
 Thermal correction to Gibbs Free Energy=        -0.016359
 Sum of electronic and zero-point Energies=           -100.819793
 Sum of electronic and thermal Energies=              -100.817326
 Sum of electronic and thermal Enthalpies=            -100.816382
 Sum of electronic and thermal Free Energies=         -100.840263

                     E (Thermal)             CV                S
                      KCal/Mol        Cal/Mol-Kelvin    Cal/Mol-Kelvin
 Total                    4.128              5.962             50.262
 Electronic               0.000              0.000              1.377
 Translational            0.889              2.981             35.068
 Rotational               0.592              1.987             13.540
 Vibrational              2.647              0.994              0.277

 Normal termination of Gaussian 16 at Fri Aug 22 16:35:41 2025.
