 Gaussian 16, Revision C.01,
 Gaussian 16:  ES64L-G16RevC.01  3-Jul-2019

 -----------------------------------------
 # sp b3lyp/6-311g** Force nosymm scf=(qc)
 -----------------------------------------

 -------------------
 Title Card Required
 -------------------
 Symbolic Z-matrix:
 Charge =  0 Multiplicity = 2

                          Input orientation:
 ---------------------------------------------------------------------
 Center     Atomic      Atomic             Coordinates (Angstroms)
 Number     Number       Type             X           Y           Z
 ---------------------------------------------------------------------
      1          1           0        0.000000    0.000000    0.000000
      2          1           0       -0.600000    0.000000    0.000000
      3          9           0        3.450000    0.000000    0.000000
 ---------------------------------------------------------------------

 SCF Done:  E(UB3LYP) =  -100.914822042     a.u. after  257 cycles

 Alpha  occ. eigenvalues --  -24.76364  -1.22210  -0.55410  -0.46769  -0.46563
 Alpha  occ. eigenvalues --   -0.46382
 Alpha virt. eigenvalues --    0.08490   0.18905   0.51679   0.86008   0.90884
 Alpha virt. eigenvalues --    0.93303   1.02694   1.10245   1.10249   1.60777
 Alpha virt. eigenvalues --    1.82589   1.92791   1.92795   2.37142   3.64820

  Beta  occ. eigenvalues --  -24.73206  -1.13129  -0.46565  -0.43417  -0.43396
  Beta virt. eigenvalues --   -0.26046   0.08515   0.18918   0.51761   0.92383
  Beta virt. eigenvalues --    0.94888   0.95471   1.06632   1.10245   1.10249
  Beta virt. eigenvalues --    1.60787   1.82621   1.92790   1.92795   2.37144

 Mulliken charges and spin densities:
               1          2
     1  H   -0.003460  -0.000722
     2  H   -0.001594   0.000125
     3  F    0.005055   1.000597
 Sum of Mulliken charges =   0.00000   1.00000

 Dipole moment (field-independent basis, Debye):
    X=              0.0537    Y=              0.0000    Z=              0.0000  Tot=              0.0537
 Quadrupole moment (field-independent basis, Debye-Ang):
   XX=             -6.1166   YY=             -6.6449   ZZ=             -5.9723
   XY=              0.0000   XZ=              0.0000   YZ=              0.2712

  Exact polarizability:       6.528       0.000       1.920       0.000       0.146       2.281
 Approx polarizability:       7.088       0.000       2.015       0.000       0.182       2.467

 ******    2 imaginary frequencies (negative Signs) ******

                      1                      2                      3
                      A                      A                      A
 Frequencies --  -2761.9098             -2761.3015                36.8136
 Red. masses --      1.0085                 1.0085                 1.1085
 Frc consts  --      4.5324                 4.5304                 0.0009
 IR Inten    --      0.0083                 0.0070                 0.1367

                      4
                      A
 Frequencies --   7042.5274
 Red. masses --      1.0078
 Frc consts  --     29.4505
 IR Inten    --      0.0694

 - Thermochemistry -
 -------------------
 Temperature   298.150 Kelvin.  Pressure   1.00000 Atm.
 Atom     1 has atomic number  1 and mass   1.00783

 Molecular mass:    21.01405 amu.
 Principal axes and moments of inertia in atomic units:
                           1         2         3
     Eigenvalues --     0.00000  92.16080  92.16080
           X            1.00000  -0.00000   0.00000
           Y            0.00000   1.00000   0.00000
           Z            0.00000   0.00000   1.00000
 This molecule is a prolate symmetric top.
 Rotational symmetry number  1.
 Rotational temperature (Kelvin)      0.93981
 Rotational constant (GHZ):          19.582526
    2 imaginary frequencies ignored.
 Zero-point vibrational energy      42343.9 (Joules/Mol)
                                   10.12043 (Kcal/Mol)
 Warning -- explicit consideration of   1 degrees of freedom as
           vibrations may cause significant error
 Vibrational temperatures:     52.97 10132.63
          (Kelvin)

 Zero-point correction=                           0.016128 (Hartree/Particle)
 Thermal correction to Energy=                    0.019351
 Thermal correction to Enthalpy=                  0.020295
 Thermal correction to Gibbs Free Energy=        -0.005980
 Sum of electronic and zero-point Energies=           -100.898694
 Sum of electronic and thermal Energies=              -100.895471
 Sum of electronic and thermal Enthalpies=            -100.894527
 Sum of electronic and thermal Free Energies=         -100.920802

                     E (Thermal)             CV                S
                      KCal/Mol        Cal/Mol-Kelvin    Cal/Mol-Kelvin
 Total                   12.143              6.950             55.302
 Electronic               0.000              0.000              1.377
 Translational            0.889              2.981             35.068
 Rotational               0.592              1.987             13.433
 Vibrational             10.662              1.982              5.424
 Vibration     1          0.594              1.982              5.424

 Normal termination of Gaussian 16 at Fri Aug 22 21:20:42 2025.
