 Gaussian 16, Revision C.01,
 Gaussian 16:  ES64L-G16RevC.01  3-Jul-2019

 -----------------------------------------
 # sp b3lyp/6-311g** Force nosymm scf=(qc)
 -----------------------------------------

 -------------------
 Title Card Required
 -------------------
 Symbolic Z-matrix:
 Charge =  0 Multiplicity = 2

                          Input orientation:
 ---------------------------------------------------------------------
 Center     Atomic      Atomic             Coordinates (Angstroms)
 Number     Number       Type             X           Y           Z
 ---------------------------------------------------------------------
      1          1           0        0.000000    0.000000    0.000000
      2          1           0       -2.400000    0.000000    0.000000
      3          9           0        3.600000    0.000000    0.000000
 ---------------------------------------------------------------------

 SCF Done:  E(UB3LYP) =  -100.764043074     a.u. after   29 cycles

 Alpha  occ. eigenvalues --  -24.75610  -1.21556  -0.54733  -0.45956  -0.45956
 Alpha  occ. eigenvalues --   -0.32696
 Alpha virt. eigenvalues --   -0.09763   0.25809   0.34112   0.87302   0.91336
 Alpha virt. eigenvalues --    0.91336   1.01539   1.25006   1.25006   1.26245
 Alpha virt. eigenvalues --    1.40790   1.40790   1.43291   2.15412   2.36137

  Beta  occ. eigenvalues --  -24.72483  -1.12570  -0.42822  -0.42822  -0.32913
  Beta virt. eigenvalues --   -0.25614  -0.09393   0.25625   0.34665   0.92830
  Beta virt. eigenvalues --    0.92830   0.96536   1.05610   1.24748   1.24748
  Beta virt. eigenvalues --    1.25952   1.41348   1.41348   1.43830   2.15837

 Mulliken charges and spin densities:
               1          2
     1  H    0.005375  -0.950664
     2  H    0.002357   0.959412
     3  F   -0.007732   0.991252
 Sum of Mulliken charges =   0.00000   1.00000

 Dipole moment (field-independent basis, Debye):
    X=             -0.1698    Y=             -0.0000    Z=              0.0000  Tot=              0.1698
 Quadrupole moment (field-independent basis, Debye-Ang):
   XX=             -6.9182   YY=             -7.6756   ZZ=             -7.6756
   XY=             -0.0000   XZ=              0.0000   YZ=              0.0000

  Exact polarizability:      31.977       0.000       2.005      -0.000      -0.000       2.005
 Approx polarizability:      23.950      -0.000       1.929       0.000      -0.000       1.929

 ******    2 imaginary frequencies (negative Signs) ******

                      1                      2                      3
                      A                      A                      A
 Frequencies --   -768.3216              -124.3683               287.6792
 Red. masses --      1.0079                 1.1084                 1.0138
 Frc consts  --      0.3506                 0.0101                 0.0494
 IR Inten    --      4.0950                 4.3760                 0.0221

                      4
                      A
 Frequencies --    287.6793
 Red. masses --      1.0138
 Frc consts  --      0.0494
 IR Inten    --      0.0221

 - Thermochemistry -
 -------------------
 Temperature   298.150 Kelvin.  Pressure   1.00000 Atm.
 Atom     1 has atomic number  1 and mass   1.00783

 Molecular mass:    21.01405 amu.
 Principal axes and moments of inertia in atomic units:
                           1         2         3
     Eigenvalues --     0.00000 160.30000 160.30000
           X            1.00000  -0.00000   0.00000
           Y            0.00000   1.00000   0.00000
           Z            0.00000   0.00000   1.00000
 This molecule is a prolate symmetric top.
 Rotational symmetry number  1.
 Rotational temperature (Kelvin)      0.54032
 Rotational constant (GHZ):          11.258522
    2 imaginary frequencies ignored.
 Zero-point vibrational energy       3441.4 (Joules/Mol)
                                    0.82252 (Kcal/Mol)
 Warning -- explicit consideration of   2 degrees of freedom as
           vibrations may cause significant error
 Vibrational temperatures:    413.91   413.91
          (Kelvin)

 Zero-point correction=                           0.001311 (Hartree/Particle)
 Thermal correction to Energy=                    0.004543
 Thermal correction to Enthalpy=                  0.005487
 Thermal correction to Gibbs Free Energy=        -0.020148
 Sum of electronic and zero-point Energies=           -100.762732
 Sum of electronic and thermal Energies=              -100.759500
 Sum of electronic and thermal Enthalpies=            -100.758556
 Sum of electronic and thermal Free Energies=         -100.784191

                     E (Thermal)             CV                S
                      KCal/Mol        Cal/Mol-Kelvin    Cal/Mol-Kelvin
 Total                    2.851              8.361             53.953
 Electronic               0.000              0.000              1.377
 Translational            0.889              2.981             35.068
 Rotational               0.592              1.987             14.533
 Vibrational              1.369              3.393              2.975
 Vibration     1          0.685              1.697              1.488
 Vibration     2          0.685              1.697              1.488

 Normal termination of Gaussian 16 at Fri Aug 22 23:06:12 2025.
