 Gaussian 16, Revision C.01,
 Gaussian 16:  ES64L-G16RevC.01  3-Jul-2019

 -----------------------------------------
 # sp b3lyp/6-311g** Force nosymm scf=(qc)
 -----------------------------------------

 -------------------
 Title Card Required
 -------------------
 Symbolic Z-matrix:
 Charge =  0 Multiplicity = 2

                          Input orientation:
 ---------------------------------------------------------------------
 Center     Atomic      Atomic             Coordinates (Angstroms)
 Number     Number       Type             X           Y           Z
 ---------------------------------------------------------------------
      1          1           0        0.000000    0.000000    0.000000
      2          1           0       -1.150000    0.000000    0.000000
      3          9           0        1.400000    0.000000    0.000000
 ---------------------------------------------------------------------

 SCF Done:  E(UB3LYP) =  -100.916901072     a.u. after   13 cycles

 Alpha  occ. eigenvalues --  -24.66522  -1.13942  -0.51550  -0.39201  -0.38942
 Alpha  occ. eigenvalues --   -0.38942
 Alpha virt. eigenvalues --    0.01307   0.19796   0.31998   0.90994   0.90994
 Alpha virt. eigenvalues --    1.00017   1.09070   1.09070   1.15371   1.54702
 Alpha virt. eigenvalues --    1.54702   1.59686   2.11282   2.27606   2.46682

  Beta  occ. eigenvalues --  -24.64745  -1.09195  -0.44124  -0.37246  -0.37246
  Beta virt. eigenvalues --   -0.22549   0.04346   0.22079   0.34227   0.91701
  Beta virt. eigenvalues --    0.91701   1.04319   1.13668   1.13668   1.19684
  Beta virt. eigenvalues --    1.57128   1.57128   1.63376   2.16637   2.31505

 Mulliken charges and spin densities:
               1          2
     1  H    0.218305  -0.124912
     2  H    0.060756   0.587699
     3  F   -0.279061   0.537213
 Sum of Mulliken charges =   0.00000   1.00000

 Dipole moment (field-independent basis, Debye):
    X=             -2.2829    Y=              0.0000    Z=             -0.0000  Tot=              2.2829
 Quadrupole moment (field-independent basis, Debye-Ang):
   XX=             -7.7139   YY=             -7.0409   ZZ=             -7.0409
   XY=             -0.0000   XZ=              0.0000   YZ=             -0.0000

  Exact polarizability:      28.891      -0.000       2.415      -0.000      -0.000       2.415
 Approx polarizability:      42.547       0.000       2.390      -0.000       0.000       2.390

 ******    1 imaginary frequencies (negative Signs) ******

                      1                      2                      3
                      A                      A                      A
 Frequencies --  -2582.1748               615.8669              1194.1894
 Red. masses --      1.0256                 1.0877                 1.0157
 Frc consts  --      4.0292                 0.2431                 0.8534
 IR Inten    --    713.0759                41.1388                15.6632

                      4
                      A
 Frequencies --   1194.1894
 Red. masses --      1.0157
 Frc consts  --      0.8534
 IR Inten    --     15.6632

 - Thermochemistry -
 -------------------
 Temperature   298.150 Kelvin.  Pressure   1.00000 Atm.
 Atom     1 has atomic number  1 and mass   1.00783

 Molecular mass:    21.01405 amu.
 Principal axes and moments of inertia in atomic units:
                           1         2         3
     Eigenvalues --     0.00000  27.76351  27.76351
           X            1.00000  -0.00000   0.00000
           Y            0.00000   1.00000   0.00000
           Z            0.00000   0.00000   1.00000
 This molecule is a prolate symmetric top.
 Rotational symmetry number  1.
 Rotational temperature (Kelvin)      3.11970
 Rotational constant (GHZ):          65.004071
    1 imaginary frequencies ignored.
 Zero-point vibrational energy      17969.4 (Joules/Mol)
                                    4.29478 (Kcal/Mol)
 Warning -- explicit consideration of   1 degrees of freedom as
           vibrations may cause significant error
 Vibrational temperatures:    886.10  1718.17  1718.17
          (Kelvin)

 Zero-point correction=                           0.006844 (Hartree/Particle)
 Thermal correction to Energy=                    0.009390
 Thermal correction to Enthalpy=                  0.010335
 Thermal correction to Gibbs Free Energy=        -0.012473
 Sum of electronic and zero-point Energies=           -100.910057
 Sum of electronic and thermal Energies=              -100.907511
 Sum of electronic and thermal Enthalpies=            -100.906567
 Sum of electronic and thermal Free Energies=         -100.929374

                     E (Thermal)             CV                S
                      KCal/Mol        Cal/Mol-Kelvin    Cal/Mol-Kelvin
 Total                    5.893              6.384             48.002
 Electronic               0.000              0.000              1.377
 Translational            0.889              2.981             35.068
 Rotational               0.592              1.987             11.049
 Vibrational              4.411              1.416              0.508
 Vibration     1          0.975              0.998              0.423

 Normal termination of Gaussian 16 at Fri Aug 22 16:19:28 2025.
