 Gaussian 16, Revision C.01,
 Gaussian 16:  ES64L-G16RevC.01  3-Jul-2019

 -----------------------------------------
 # sp b3lyp/6-311g** Force nosymm scf=(qc)
 -----------------------------------------

 -------------------
 Title Card Required
 -------------------
 Symbolic Z-matrix:
 Charge =  0 Multiplicity = 2

                          Input orientation:
 ---------------------------------------------------------------------
 Center     Atomic      Atomic             Coordinates (Angstroms)
 Number     Number       Type             X           Y           Z
 ---------------------------------------------------------------------
      1          1           0        0.000000    0.000000    0.000000
      2          1           0       -3.550000    0.000000    0.000000
      3          9           0        3.800000    0.000000    0.000000
 ---------------------------------------------------------------------

 SCF Done:  E(UB3LYP) =  -100.758714356     a.u. after   32 cycles

 Alpha  occ. eigenvalues --  -24.75752  -1.21689  -0.54876  -0.46075  -0.46075
 Alpha  occ. eigenvalues --   -0.32275
 Alpha virt. eigenvalues --   -0.06655   0.24323   0.37537   0.86856   0.91252
 Alpha virt. eigenvalues --    0.91252   1.01265   1.25227   1.25227   1.25353
 Alpha virt. eigenvalues --    1.45550   1.45773   1.45773   2.15012   2.41348

  Beta  occ. eigenvalues --  -24.72615  -1.12668  -0.42930  -0.42930  -0.32550
  Beta virt. eigenvalues --   -0.25669  -0.06369   0.24134   0.38014   0.92748
  Beta virt. eigenvalues --    0.92748   0.96159   1.05360   1.24923   1.24923
  Beta virt. eigenvalues --    1.25032   1.46008   1.46226   1.46226   2.15052

 Mulliken charges and spin densities:
               1          2
     1  H    0.004648  -0.992868
     2  H    0.000086   0.998109
     3  F   -0.004734   0.994759
 Sum of Mulliken charges =  -0.00000   1.00000

 Dipole moment (field-independent basis, Debye):
    X=             -0.0943    Y=              0.0000    Z=              0.0000  Tot=              0.0943
 Quadrupole moment (field-independent basis, Debye-Ang):
   XX=             -7.0474   YY=             -7.6228   ZZ=             -7.6228
   XY=              0.0000   XZ=              0.0000   YZ=              0.0000

  Exact polarizability:      15.335      -0.000       2.030       0.000       0.000       2.030
 Approx polarizability:      11.336       0.000       1.936       0.000      -0.000       1.936

 ******    2 imaginary frequencies (negative Signs) ******

                      1                      2                      3
                      A                      A                      A
 Frequencies --   -197.7300               -82.2970                65.1305
 Red. masses --      1.0163                 1.0984                 1.0171
 Frc consts  --      0.0234                 0.0044                 0.0025
 IR Inten    --      2.5911                 0.7878                 0.0211

                      4
                      A
 Frequencies --     65.1306
 Red. masses --      1.0171
 Frc consts  --      0.0025
 IR Inten    --      0.0211

 - Thermochemistry -
 -------------------
 Temperature   298.150 Kelvin.  Pressure   1.00000 Atm.
 Atom     1 has atomic number  1 and mass   1.00783

 Molecular mass:    21.01405 amu.
 Principal axes and moments of inertia in atomic units:
                           1         2         3
     Eigenvalues --     0.00000 224.93820 224.93820
           X            1.00000  -0.00000   0.00000
           Y            0.00000   1.00000   0.00000
           Z            0.00000   0.00000   1.00000
 This molecule is a prolate symmetric top.
 Rotational symmetry number  1.
 Rotational temperature (Kelvin)      0.38506
 Rotational constant (GHZ):           8.023276
    2 imaginary frequencies ignored.
 Zero-point vibrational energy        779.1 (Joules/Mol)
                                    0.18622 (Kcal/Mol)
 Warning -- explicit consideration of   2 degrees of freedom as
           vibrations may cause significant error
 Vibrational temperatures:     93.71    93.71
          (Kelvin)

 Zero-point correction=                           0.000297 (Hartree/Particle)
 Thermal correction to Energy=                    0.004264
 Thermal correction to Enthalpy=                  0.005209
 Thermal correction to Gibbs Free Energy=        -0.023414
 Sum of electronic and zero-point Energies=           -100.758418
 Sum of electronic and thermal Energies=              -100.754450
 Sum of electronic and thermal Enthalpies=            -100.753506
 Sum of electronic and thermal Free Energies=         -100.782129

                     E (Thermal)             CV                S
                      KCal/Mol        Cal/Mol-Kelvin    Cal/Mol-Kelvin
 Total                    2.676              8.910             60.242
 Electronic               0.000              0.000              1.377
 Translational            0.889              2.981             35.068
 Rotational               0.592              1.987             15.206
 Vibrational              1.195              3.942              8.591
 Vibration     1          0.597              1.971              4.295
 Vibration     2          0.597              1.971              4.295

 Normal termination of Gaussian 16 at Sat Aug 23 00:52:21 2025.
