 Gaussian 16, Revision C.01,
 Gaussian 16:  ES64L-G16RevC.01  3-Jul-2019

 -----------------------------------------
 # sp b3lyp/6-311g** Force nosymm scf=(qc)
 -----------------------------------------

 -------------------
 Title Card Required
 -------------------
 Symbolic Z-matrix:
 Charge =  0 Multiplicity = 2

                          Input orientation:
 ---------------------------------------------------------------------
 Center     Atomic      Atomic             Coordinates (Angstroms)
 Number     Number       Type             X           Y           Z
 ---------------------------------------------------------------------
      1          1           0        0.000000    0.000000    0.000000
      2          1           0       -2.550000    0.000000    0.000000
      3          9           0        2.850000    0.000000    0.000000
 ---------------------------------------------------------------------

 SCF Done:  E(UB3LYP) =  -100.765548248     a.u. after   23 cycles

 Alpha  occ. eigenvalues --  -24.73552  -1.19646  -0.52667  -0.44224  -0.44224
 Alpha  occ. eigenvalues --   -0.33197
 Alpha virt. eigenvalues --   -0.10688   0.25175   0.33592   0.89999   0.92598
 Alpha virt. eigenvalues --    0.92598   1.04890   1.24436   1.24436   1.26493
 Alpha virt. eigenvalues --    1.39695   1.39695   1.41507   2.15339   2.36284

  Beta  occ. eigenvalues --  -24.70564  -1.11095  -0.41236  -0.41236  -0.34171
  Beta virt. eigenvalues --   -0.24482  -0.09152   0.25540   0.34995   0.94045
  Beta virt. eigenvalues --    0.94045   0.98520   1.08685   1.23296   1.23296
  Beta virt. eigenvalues --    1.25544   1.42171   1.42171   1.43556   2.16066

 Mulliken charges and spin densities:
               1          2
     1  H    0.041945  -0.920875
     2  H    0.006223   0.974621
     3  F   -0.048168   0.946254
 Sum of Mulliken charges =  -0.00000   1.00000

 Dipole moment (field-independent basis, Debye):
    X=             -0.7794    Y=              0.0000    Z=             -0.0000  Tot=              0.7794
 Quadrupole moment (field-independent basis, Debye-Ang):
   XX=             -8.2530   YY=             -7.6395   ZZ=             -7.6395
   XY=             -0.0000   XZ=              0.0000   YZ=             -0.0000

  Exact polarizability:      43.433      -0.000       2.014       0.000       0.000       2.014
 Approx polarizability:      41.925      -0.000       1.920       0.000      -0.000       1.920

 ******    2 imaginary frequencies (negative Signs) ******

                      1                      2                      3
                      A                      A                      A
 Frequencies --   -686.4064              -263.0858               260.0909
 Red. masses --      1.0127                 1.1026                 1.0167
 Frc consts  --      0.2811                 0.0450                 0.0405
 IR Inten    --     31.9637                20.6295                 1.4204

                      4
                      A
 Frequencies --    260.0909
 Red. masses --      1.0167
 Frc consts  --      0.0405
 IR Inten    --      1.4204

 - Thermochemistry -
 -------------------
 Temperature   298.150 Kelvin.  Pressure   1.00000 Atm.
 Atom     1 has atomic number  1 and mass   1.00783

 Molecular mass:    21.01405 amu.
 Principal axes and moments of inertia in atomic units:
                           1         2         3
     Eigenvalues --     0.00000 122.43198 122.43198
           X            1.00000  -0.00000   0.00000
           Y            0.00000   1.00000   0.00000
           Z            0.00000   0.00000   1.00000
 This molecule is a prolate symmetric top.
 Rotational symmetry number  1.
 Rotational temperature (Kelvin)      0.70745
 Rotational constant (GHZ):          14.740767
    2 imaginary frequencies ignored.
 Zero-point vibrational energy       3111.4 (Joules/Mol)
                                    0.74364 (Kcal/Mol)
 Warning -- explicit consideration of   2 degrees of freedom as
           vibrations may cause significant error
 Vibrational temperatures:    374.21   374.21
          (Kelvin)

 Zero-point correction=                           0.001185 (Hartree/Particle)
 Thermal correction to Energy=                    0.004490
 Thermal correction to Enthalpy=                  0.005435
 Thermal correction to Gibbs Free Energy=        -0.020111
 Sum of electronic and zero-point Energies=           -100.764363
 Sum of electronic and thermal Energies=              -100.761058
 Sum of electronic and thermal Enthalpies=            -100.760114
 Sum of electronic and thermal Free Energies=         -100.785659

                     E (Thermal)             CV                S
                      KCal/Mol        Cal/Mol-Kelvin    Cal/Mol-Kelvin
 Total                    2.818              8.459             53.765
 Electronic               0.000              0.000              1.377
 Translational            0.889              2.981             35.068
 Rotational               0.592              1.987             13.997
 Vibrational              1.337              3.491              3.322
 Vibration     1          0.668              1.746              1.661
 Vibration     2          0.668              1.746              1.661

 Normal termination of Gaussian 16 at Fri Aug 22 18:53:56 2025.
