 Gaussian 16, Revision C.01,
 Gaussian 16:  ES64L-G16RevC.01  3-Jul-2019

 -----------------------------------------
 # sp b3lyp/6-311g** Force nosymm scf=(qc)
 -----------------------------------------

 -------------------
 Title Card Required
 -------------------
 Symbolic Z-matrix:
 Charge =  0 Multiplicity = 2

                          Input orientation:
 ---------------------------------------------------------------------
 Center     Atomic      Atomic             Coordinates (Angstroms)
 Number     Number       Type             X           Y           Z
 ---------------------------------------------------------------------
      1          1           0        0.000000    0.000000    0.000000
      2          1           0       -2.950000    0.000000    0.000000
      3          9           0        3.200000    0.000000    0.000000
 ---------------------------------------------------------------------

 SCF Done:  E(UB3LYP) =  -100.761008664     a.u. after   25 cycles

 Alpha  occ. eigenvalues --  -24.74745  -1.20756  -0.53866  -0.45227  -0.45227
 Alpha  occ. eigenvalues --   -0.32606
 Alpha virt. eigenvalues --   -0.08683   0.24888   0.35231   0.88705   0.91876
 Alpha virt. eigenvalues --    0.91876   1.02882   1.24938   1.24938   1.25798
 Alpha virt. eigenvalues --    1.42927   1.42927   1.43146   2.15656   2.39186

  Beta  occ. eigenvalues --  -24.71674  -1.11941  -0.42151  -0.42151  -0.33336
  Beta virt. eigenvalues --   -0.25148  -0.07708   0.24746   0.36555   0.93351
  Beta virt. eigenvalues --    0.93351   0.97638   1.06789   1.24080   1.24080
  Beta virt. eigenvalues --    1.24891   1.44484   1.44484   1.44518   2.16209

 Mulliken charges and spin densities:
               1          2
     1  H    0.022571  -0.965164
     2  H    0.001319   0.991512
     3  F   -0.023891   0.973652
 Sum of Mulliken charges =  -0.00000   1.00000

 Dipole moment (field-independent basis, Debye):
    X=             -0.4114    Y=             -0.0000    Z=              0.0000  Tot=              0.4114
 Quadrupole moment (field-independent basis, Debye-Ang):
   XX=             -7.7951   YY=             -7.6310   ZZ=             -7.6310
   XY=             -0.0000   XZ=              0.0000   YZ=              0.0000

  Exact polarizability:      33.399      -0.000       2.024       0.000       0.000       2.024
 Approx polarizability:      29.365      -0.000       1.927       0.000      -0.000       1.927

 ******    2 imaginary frequencies (negative Signs) ******

                      1                      2                      3
                      A                      A                      A
 Frequencies --   -415.1854              -170.6780               149.8524
 Red. masses --      1.0160                 1.0988                 1.0170
 Frc consts  --      0.1032                 0.0189                 0.0135
 IR Inten    --     20.1278                 6.9837                 0.4399

                      4
                      A
 Frequencies --    149.8524
 Red. masses --      1.0170
 Frc consts  --      0.0135
 IR Inten    --      0.4399

 - Thermochemistry -
 -------------------
 Temperature   298.150 Kelvin.  Pressure   1.00000 Atm.
 Atom     1 has atomic number  1 and mass   1.00783

 Molecular mass:    21.01405 amu.
 Principal axes and moments of inertia in atomic units:
                           1         2         3
     Eigenvalues --     0.00000 157.88762 157.88762
           X            1.00000  -0.00000   0.00000
           Y            0.00000   1.00000   0.00000
           Z            0.00000   0.00000   1.00000
 This molecule is a prolate symmetric top.
 Rotational symmetry number  1.
 Rotational temperature (Kelvin)      0.54858
 Rotational constant (GHZ):          11.430543
    2 imaginary frequencies ignored.
 Zero-point vibrational energy       1792.6 (Joules/Mol)
                                    0.42845 (Kcal/Mol)
 Warning -- explicit consideration of   2 degrees of freedom as
           vibrations may cause significant error
 Vibrational temperatures:    215.60   215.60
          (Kelvin)

 Zero-point correction=                           0.000683 (Hartree/Particle)
 Thermal correction to Energy=                    0.004330
 Thermal correction to Enthalpy=                  0.005275
 Thermal correction to Gibbs Free Energy=        -0.021474
 Sum of electronic and zero-point Energies=           -100.760326
 Sum of electronic and thermal Energies=              -100.756678
 Sum of electronic and thermal Enthalpies=            -100.755734
 Sum of electronic and thermal Free Energies=         -100.782482

                     E (Thermal)             CV                S
                      KCal/Mol        Cal/Mol-Kelvin    Cal/Mol-Kelvin
 Total                    2.717              8.774             56.296
 Electronic               0.000              0.000              1.377
 Translational            0.889              2.981             35.068
 Rotational               0.592              1.987             14.503
 Vibrational              1.236              3.806              5.348
 Vibration     1          0.618              1.903              2.674
 Vibration     2          0.618              1.903              2.674

 Normal termination of Gaussian 16 at Fri Aug 22 20:24:18 2025.
