 Gaussian 16, Revision C.01,
 Gaussian 16:  ES64L-G16RevC.01  3-Jul-2019

 -----------------------------------------
 # sp b3lyp/6-311g** Force nosymm scf=(qc)
 -----------------------------------------

 -------------------
 Title Card Required
 -------------------
 Symbolic Z-matrix:
 Charge =  0 Multiplicity = 2

                          Input orientation:
 ---------------------------------------------------------------------
 Center     Atomic      Atomic             Coordinates (Angstroms)
 Number     Number       Type             X           Y           Z
 ---------------------------------------------------------------------
      1          1           0        0.000000    0.000000    0.000000
      2          1           0       -0.900000    0.000000    0.000000
      3          9           0        0.850000    0.000000    0.000000
 ---------------------------------------------------------------------

 SCF Done:  E(UB3LYP) =  -100.928962850     a.u. after    6 cycles

 Alpha  occ. eigenvalues --  -24.65385  -1.23573  -0.62232  -0.41675  -0.41675
 Alpha  occ. eigenvalues --   -0.34703
 Alpha virt. eigenvalues --    0.15433   0.18380   0.59176   0.88764   0.88764
 Alpha virt. eigenvalues --    0.95252   1.08480   1.08480   1.45295   1.68421
 Alpha virt. eigenvalues --    1.68421   1.77341   2.12526   2.33040   3.52595

  Beta  occ. eigenvalues --  -24.64572  -1.21433  -0.57431  -0.40965  -0.40965
  Beta virt. eigenvalues --   -0.15882   0.16825   0.22058   0.64865   0.90649
  Beta virt. eigenvalues --    0.90649   0.96896   1.14149   1.14149   1.46809
  Beta virt. eigenvalues --    1.73772   1.73772   1.87153   2.14002   2.44827

 Mulliken charges and spin densities:
               1          2
     1  H    0.266482  -0.012104
     2  H   -0.017996   0.832862
     3  F   -0.248486   0.179241
 Sum of Mulliken charges =   0.00000   1.00000

 Dipole moment (field-independent basis, Debye):
    X=             -1.5259    Y=              0.0000    Z=             -0.0000  Tot=              1.5259
 Quadrupole moment (field-independent basis, Debye-Ang):
   XX=             -7.5347   YY=             -6.5570   ZZ=             -6.5570
   XY=              0.0000   XZ=             -0.0000   YZ=              0.0000

  Exact polarizability:      11.063       0.000       2.576       0.000       0.000       2.576
 Approx polarizability:      11.952       0.000       2.627       0.000       0.000       2.627

 ******    2 imaginary frequencies (negative Signs) ******

                      1                      2                      3
                      A                      A                      A
 Frequencies --  -1994.5386             -1994.5386              2210.0936
 Red. masses --      1.0187                 1.0187                 1.0602
 Frc consts  --      2.3876                 2.3876                 3.0512
 IR Inten    --     79.9231                79.9231                97.3879

                      4
                      A
 Frequencies --   5042.1658
 Red. masses --      1.0513
 Frc consts  --     15.7482
 IR Inten    --     33.8263

 - Thermochemistry -
 -------------------
 Temperature   298.150 Kelvin.  Pressure   1.00000 Atm.
 Atom     1 has atomic number  1 and mass   1.00783

 Molecular mass:    21.01405 amu.
 Principal axes and moments of inertia in atomic units:
                           1         2         3
     Eigenvalues --     0.00000  12.45542  12.45542
           X            1.00000  -0.00000   0.00000
           Y            0.00000   1.00000   0.00000
           Z            0.00000   0.00000   1.00000
 This molecule is a prolate symmetric top.
 Rotational symmetry number  1.
 Rotational temperature (Kelvin)      6.95391
 Rotational constant (GHZ):         144.896000
    2 imaginary frequencies ignored.
 Zero-point vibrational energy      43378.1 (Joules/Mol)
                                   10.36763 (Kcal/Mol)
 Vibrational temperatures:   3179.83  7254.55
          (Kelvin)

 Zero-point correction=                           0.016522 (Hartree/Particle)
 Thermal correction to Energy=                    0.018883
 Thermal correction to Enthalpy=                  0.019827
 Thermal correction to Gibbs Free Energy=        -0.001983
 Sum of electronic and zero-point Energies=           -100.912441
 Sum of electronic and thermal Energies=              -100.910080
 Sum of electronic and thermal Enthalpies=            -100.909136
 Sum of electronic and thermal Free Energies=         -100.930945

                     E (Thermal)             CV                S
                      KCal/Mol        Cal/Mol-Kelvin    Cal/Mol-Kelvin
 Total                   11.849              4.973             45.902
 Electronic               0.000              0.000              1.377
 Translational            0.889              2.981             35.068
 Rotational               0.592              1.987              9.456
 Vibrational             10.368              0.005              0.001

 Normal termination of Gaussian 16 at Fri Aug 22 15:52:42 2025.
