 Gaussian 16, Revision C.01,
 Gaussian 16:  ES64L-G16RevC.01  3-Jul-2019

 -----------------------------------------
 # sp b3lyp/6-311g** Force nosymm scf=(qc)
 -----------------------------------------

 -------------------
 Title Card Required
 -------------------
 Symbolic Z-matrix:
 Charge =  0 Multiplicity = 2

                          Input orientation:
 ---------------------------------------------------------------------
 Center     Atomic      Atomic             Coordinates (Angstroms)
 Number     Number       Type             X           Y           Z
 ---------------------------------------------------------------------
      1          1           0        0.000000    0.000000    0.000000
      2          1           0       -1.750000    0.000000    0.000000
      3          9           0        3.800000    0.000000    0.000000
 ---------------------------------------------------------------------

 SCF Done:  E(UB3LYP) =  -100.790147466     a.u. after  116 cycles

 Alpha  occ. eigenvalues --  -24.76206  -1.22105  -0.55309  -0.46483  -0.46466
 Alpha  occ. eigenvalues --   -0.32983
 Alpha virt. eigenvalues --   -0.10627   0.25863   0.31256   0.86058   0.90935
 Alpha virt. eigenvalues --    0.91451   1.00959   1.08738   1.24355   1.24356
 Alpha virt. eigenvalues --    1.37976   1.37979   1.64496   2.15907   2.40447

  Beta  occ. eigenvalues --  -24.73051  -1.13033  -0.43324  -0.43303  -0.32970
  Beta virt. eigenvalues --   -0.25960  -0.10665   0.25844   0.31296   0.92437
  Beta virt. eigenvalues --    0.92912   0.95526   1.05089   1.08729   1.24353
  Beta virt. eigenvalues --    1.24356   1.37962   1.37963   1.64511   2.16076

 Mulliken charges and spin densities:
               1          2
     1  H    0.000703  -0.671259
     2  H   -0.001763   0.671265
     3  F    0.001060   0.999994
 Sum of Mulliken charges =   0.00000   1.00000

 Dipole moment (field-independent basis, Debye):
    X=              0.0266    Y=              0.0000    Z=              0.0000  Tot=              0.0266
 Quadrupole moment (field-independent basis, Debye-Ang):
   XX=             -6.6716   YY=             -7.7647   ZZ=             -6.9002
   XY=              0.0000   XZ=              0.0000   YZ=              0.0054

  Exact polarizability:      23.745       0.000       2.015       0.000       0.003       2.480
 Approx polarizability:      35.729       0.000       1.970       0.000       0.004       2.552

 ******    2 imaginary frequencies (negative Signs) ******

                      1                      2                      3
                      A                      A                      A
 Frequencies --  -1818.7935               -42.7024               839.3020
 Red. masses --      1.0078                 1.1085                 1.0113
 Frc consts  --      1.9643                 0.0012                 0.4197
 IR Inten    --      0.0111                 0.0550                 0.0014

                      4
                      A
 Frequencies --    839.9031
 Red. masses --      1.0113
 Frc consts  --      0.4203
 IR Inten    --      0.0009

 - Thermochemistry -
 -------------------
 Temperature   298.150 Kelvin.  Pressure   1.00000 Atm.
 Atom     1 has atomic number  1 and mass   1.00783

 Molecular mass:    21.01405 amu.
 Principal axes and moments of inertia in atomic units:
                           1         2         3
     Eigenvalues --     0.00000 147.73842 147.73842
           X            1.00000  -0.00000   0.00000
           Y            0.00000   1.00000   0.00000
           Z            0.00000   0.00000   1.00000
 This molecule is a prolate symmetric top.
 Rotational symmetry number  1.
 Rotational temperature (Kelvin)      0.58627
 Rotational constant (GHZ):          12.215788
    2 imaginary frequencies ignored.
 Zero-point vibrational energy      10043.9 (Joules/Mol)
                                    2.40054 (Kcal/Mol)
 Vibrational temperatures:   1207.57  1208.43
          (Kelvin)

 Zero-point correction=                           0.003826 (Hartree/Particle)
 Thermal correction to Energy=                    0.006321
 Thermal correction to Enthalpy=                  0.007266
 Thermal correction to Gibbs Free Energy=        -0.017047
 Sum of electronic and zero-point Energies=           -100.786322
 Sum of electronic and thermal Energies=              -100.783826
 Sum of electronic and thermal Enthalpies=            -100.782882
 Sum of electronic and thermal Free Energies=         -100.807195

                     E (Thermal)             CV                S
                      KCal/Mol        Cal/Mol-Kelvin    Cal/Mol-Kelvin
 Total                    3.967              6.143             51.171
 Electronic               0.000              0.000              1.377
 Translational            0.889              2.981             35.068
 Rotational               0.592              1.987             14.371
 Vibrational              2.486              1.175              0.355

 Normal termination of Gaussian 16 at Sat Aug 23 00:44:07 2025.
