 Gaussian 16, Revision C.01,
 Gaussian 16:  ES64L-G16RevC.01  3-Jul-2019

 -----------------------------------------
 # sp b3lyp/6-311g** Force nosymm scf=(qc)
 -----------------------------------------

 -------------------
 Title Card Required
 -------------------
 Symbolic Z-matrix:
 Charge =  0 Multiplicity = 2

                          Input orientation:
 ---------------------------------------------------------------------
 Center     Atomic      Atomic             Coordinates (Angstroms)
 Number     Number       Type             X           Y           Z
 ---------------------------------------------------------------------
      1          1           0        0.000000    0.000000    0.000000
      2          1           0       -1.500000    0.000000    0.000000
      3          9           0        3.850000    0.000000    0.000000
 ---------------------------------------------------------------------

 SCF Done:  E(UB3LYP) =  -100.820062793     a.u. after  279 cycles

 Alpha  occ. eigenvalues --  -24.76252  -1.22151  -0.55353  -0.46531  -0.46510
 Alpha  occ. eigenvalues --   -0.33601
 Alpha virt. eigenvalues --   -0.09825   0.24944   0.30425   0.86017   0.90894
 Alpha virt. eigenvalues --    0.91367   1.00890   1.07553   1.20343   1.20345
 Alpha virt. eigenvalues --    1.41464   1.41466   1.81734   2.22172   2.46125

  Beta  occ. eigenvalues --  -24.73096  -1.13077  -0.43369  -0.43346  -0.33600
  Beta virt. eigenvalues --   -0.26003  -0.09831   0.24944   0.30440   0.92394
  Beta virt. eigenvalues --    0.92855   0.95483   1.05028   1.07560   1.20341
  Beta virt. eigenvalues --    1.20343   1.41462   1.41464   1.81742   2.22192

 Mulliken charges and spin densities:
               1          2
     1  H    0.001044  -0.125237
     2  H   -0.002101   0.125136
     3  F    0.001057   1.000101
 Sum of Mulliken charges =   0.00000   1.00000

 Dipole moment (field-independent basis, Debye):
    X=              0.0267    Y=              0.0000    Z=             -0.0000  Tot=              0.0267
 Quadrupole moment (field-independent basis, Debye-Ang):
   XX=             -6.3168   YY=             -7.6122   ZZ=             -7.0398
   XY=             -0.0000   XZ=              0.0000   YZ=             -0.3240

  Exact polarizability:      22.516      -0.000       2.116       0.000      -0.170       2.416
 Approx polarizability:      42.972      -0.000       2.134       0.000      -0.218       2.520

 ******    2 imaginary frequencies (negative Signs) ******

                      1                      2                      3
                      A                      A                      A
 Frequencies --  -2184.3658               -50.2925              1221.1488
 Red. masses --      1.0078                 1.1085                 1.0104
 Frc consts  --      2.8333                 0.0017                 0.8878
 IR Inten    --      0.0190                 0.0516                 0.0019

                      4
                      A
 Frequencies --   1228.2496
 Red. masses --      1.0104
 Frc consts  --      0.8981
 IR Inten    --      0.0026

 - Thermochemistry -
 -------------------
 Temperature   298.150 Kelvin.  Pressure   1.00000 Atm.
 Atom     1 has atomic number  1 and mass   1.00783

 Molecular mass:    21.01405 amu.
 Principal axes and moments of inertia in atomic units:
                           1         2         3
     Eigenvalues --     0.00000 141.74948 141.74948
           X            1.00000  -0.00000   0.00000
           Y            0.00000   1.00000   0.00000
           Z            0.00000   0.00000   1.00000
 This molecule is a prolate symmetric top.
 Rotational symmetry number  1.
 Rotational temperature (Kelvin)      0.61104
 Rotational constant (GHZ):          12.731907
    2 imaginary frequencies ignored.
 Zero-point vibrational energy      14650.7 (Joules/Mol)
                                    3.50159 (Kcal/Mol)
 Vibrational temperatures:   1756.96  1767.18
          (Kelvin)

 Zero-point correction=                           0.005580 (Hartree/Particle)
 Thermal correction to Energy=                    0.007971
 Thermal correction to Enthalpy=                  0.008915
 Thermal correction to Gibbs Free Energy=        -0.015226
 Sum of electronic and zero-point Energies=           -100.814483
 Sum of electronic and thermal Energies=              -100.812092
 Sum of electronic and thermal Enthalpies=            -100.811148
 Sum of electronic and thermal Free Energies=         -100.835288

                     E (Thermal)             CV                S
                      KCal/Mol        Cal/Mol-Kelvin    Cal/Mol-Kelvin
 Total                    5.002              5.347             50.809
 Electronic               0.000              0.000              1.377
 Translational            0.889              2.981             35.068
 Rotational               0.592              1.987             14.288
 Vibrational              3.521              0.379              0.075

 Normal termination of Gaussian 16 at Sat Aug 23 01:02:46 2025.
