 Gaussian 16, Revision C.01,
 Gaussian 16:  ES64L-G16RevC.01  3-Jul-2019

 -----------------------------------------
 # sp b3lyp/6-311g** Force nosymm scf=(qc)
 -----------------------------------------

 -------------------
 Title Card Required
 -------------------
 Symbolic Z-matrix:
 Charge =  0 Multiplicity = 2

                          Input orientation:
 ---------------------------------------------------------------------
 Center     Atomic      Atomic             Coordinates (Angstroms)
 Number     Number       Type             X           Y           Z
 ---------------------------------------------------------------------
      1          1           0        0.000000    0.000000    0.000000
      2          1           0       -4.000000    0.000000    0.000000
      3          9           0        1.100000    0.000000    0.000000
 ---------------------------------------------------------------------

 SCF Done:  E(UB3LYP) =  -100.948397867     a.u. after    6 cycles

 Alpha  occ. eigenvalues --  -24.64306  -1.13876  -0.49620  -0.38111  -0.38111
 Alpha  occ. eigenvalues --   -0.33418
 Alpha virt. eigenvalues --   -0.02522   0.22897   0.31014   0.93560   0.93560
 Alpha virt. eigenvalues --    0.99596   1.24037   1.24088   1.24088   1.28285
 Alpha virt. eigenvalues --    1.35202   1.35202   1.79314   2.13640   2.31636

  Beta  occ. eigenvalues --  -24.64305  -1.13874  -0.49618  -0.38111  -0.38111
  Beta virt. eigenvalues --   -0.05366  -0.02117   0.29352   0.39347   0.93560
  Beta virt. eigenvalues --    0.93560   0.99598   1.28279   1.35200   1.35200
  Beta virt. eigenvalues --    1.49996   1.50048   1.50048   1.79337   2.31051

 Mulliken charges and spin densities:
               1          2
     1  H    0.340780   0.000127
     2  H    0.000365   0.999606
     3  F   -0.341145   0.000267
 Sum of Mulliken charges =   0.00000   1.00000

 Dipole moment (field-independent basis, Debye):
    X=             -2.1587    Y=             -0.0000    Z=             -0.0000  Tot=              2.1587
 Quadrupole moment (field-independent basis, Debye-Ang):
   XX=             -8.5990   YY=             -7.0486   ZZ=             -7.0486
   XY=             -0.0000   XZ=             -0.0000   YZ=              0.0000

  Exact polarizability:       7.603      -0.000       2.362       0.000      -0.000       2.362
 Approx polarizability:      10.134       0.000       2.325      -0.000      -0.000       2.325

 ******    1 imaginary frequencies (negative Signs) ******

                      1                      2                      3
                      A                      A                      A
 Frequencies --    -31.2248              1190.7665              1190.7665
 Red. masses --      1.0532                 1.0375                 1.0375
 Frc consts  --      0.0006                 0.8668                 0.8668
 IR Inten    --      0.0138               159.7756               159.7756

                      4
                      A
 Frequencies --   1941.5418
 Red. masses --      1.0583
 Frc consts  --      2.3505
 IR Inten    --     74.1499

 - Thermochemistry -
 -------------------
 Temperature   298.150 Kelvin.  Pressure   1.00000 Atm.
 Atom     1 has atomic number  1 and mass   1.00783

 Molecular mass:    21.01405 amu.
 Principal axes and moments of inertia in atomic units:
                           1         2         3
     Eigenvalues --     0.00000  91.33000  91.33000
           X            1.00000  -0.00000   0.00000
           Y            0.00000   1.00000   0.00000
           Z            0.00000   0.00000   1.00000
 This molecule is a prolate symmetric top.
 Rotational symmetry number  1.
 Rotational temperature (Kelvin)      0.94836
 Rotational constant (GHZ):          19.760661
    1 imaginary frequencies ignored.
 Zero-point vibrational energy      25857.7 (Joules/Mol)
                                    6.18015 (Kcal/Mol)
 Vibrational temperatures:   1713.25  1713.25  2793.45
          (Kelvin)

 Zero-point correction=                           0.009849 (Hartree/Particle)
 Thermal correction to Energy=                    0.012245
 Thermal correction to Enthalpy=                  0.013189
 Thermal correction to Gibbs Free Energy=        -0.010543
 Sum of electronic and zero-point Energies=           -100.938549
 Sum of electronic and thermal Energies=              -100.936153
 Sum of electronic and thermal Enthalpies=            -100.935209
 Sum of electronic and thermal Free Energies=         -100.958941

                     E (Thermal)             CV                S
                      KCal/Mol        Cal/Mol-Kelvin    Cal/Mol-Kelvin
 Total                    7.684              5.405             49.948
 Electronic               0.000              0.000              1.377
 Translational            0.889              2.981             35.068
 Rotational               0.592              1.987             13.415
 Vibrational              6.202              0.437              0.088

 Normal termination of Gaussian 16 at Fri Aug 22 16:06:38 2025.
