 Gaussian 16, Revision C.01,
 Gaussian 16:  ES64L-G16RevC.01  3-Jul-2019

 -----------------------------------------
 # sp b3lyp/6-311g** Force nosymm scf=(qc)
 -----------------------------------------

 -------------------
 Title Card Required
 -------------------
 Symbolic Z-matrix:
 Charge =  0 Multiplicity = 2

                          Input orientation:
 ---------------------------------------------------------------------
 Center     Atomic      Atomic             Coordinates (Angstroms)
 Number     Number       Type             X           Y           Z
 ---------------------------------------------------------------------
      1          1           0        0.000000    0.000000    0.000000
      2          1           0       -2.050000    0.000000    0.000000
      3          9           0        3.400000    0.000000    0.000000
 ---------------------------------------------------------------------

 SCF Done:  E(UB3LYP) =  -100.772760551     a.u. after   32 cycles

 Alpha  occ. eigenvalues --  -24.75400  -1.21362  -0.54523  -0.45781  -0.45781
 Alpha  occ. eigenvalues --   -0.33136
 Alpha virt. eigenvalues --   -0.11024   0.25830   0.32399   0.87956   0.91461
 Alpha virt. eigenvalues --    0.91461   1.02023   1.18886   1.24820   1.24820
 Alpha virt. eigenvalues --    1.37994   1.37994   1.49190   2.13106   2.36177

  Beta  occ. eigenvalues --  -24.72290  -1.12426  -0.42664  -0.42664  -0.33249
  Beta virt. eigenvalues --   -0.25537  -0.10689   0.25766   0.32933   0.92949
  Beta virt. eigenvalues --    0.92949   0.97067   1.06049   1.18820   1.24667
  Beta virt. eigenvalues --    1.24667   1.38480   1.38480   1.49558   2.13824

 Mulliken charges and spin densities:
               1          2
     1  H    0.005359  -0.865449
     2  H    0.006783   0.879412
     3  F   -0.012142   0.986037
 Sum of Mulliken charges =  -0.00000   1.00000

 Dipole moment (field-independent basis, Debye):
    X=             -0.2776    Y=             -0.0000    Z=              0.0000  Tot=              0.2776
 Quadrupole moment (field-independent basis, Debye-Ang):
   XX=             -6.7915   YY=             -7.7173   ZZ=             -7.7173
   XY=             -0.0000   XZ=              0.0000   YZ=              0.0000

  Exact polarizability:      46.399      -0.000       2.017       0.000       0.000       2.017
 Approx polarizability:      39.050      -0.000       1.934       0.000      -0.000       1.934

 ******    2 imaginary frequencies (negative Signs) ******

                      1                      2                      3
                      A                      A                      A
 Frequencies --  -1268.2312              -152.0215               507.3108
 Red. masses --      1.0079                 1.1085                 1.0130
 Frc consts  --      0.9551                 0.0151                 0.1536
 IR Inten    --     12.8720                 9.8356                 0.0053

                      4
                      A
 Frequencies --    507.3108
 Red. masses --      1.0130
 Frc consts  --      0.1536
 IR Inten    --      0.0053

 - Thermochemistry -
 -------------------
 Temperature   298.150 Kelvin.  Pressure   1.00000 Atm.
 Atom     1 has atomic number  1 and mass   1.00783

 Molecular mass:    21.01405 amu.
 Principal axes and moments of inertia in atomic units:
                           1         2         3
     Eigenvalues --     0.00000 134.98508 134.98508
           X            1.00000  -0.00000   0.00000
           Y            0.00000   1.00000   0.00000
           Z            0.00000   0.00000   1.00000
 This molecule is a prolate symmetric top.
 Rotational symmetry number  1.
 Rotational temperature (Kelvin)      0.64166
 Rotational constant (GHZ):          13.369931
    2 imaginary frequencies ignored.
 Zero-point vibrational energy       6068.8 (Joules/Mol)
                                    1.45047 (Kcal/Mol)
 Warning -- explicit consideration of   2 degrees of freedom as
           vibrations may cause significant error
 Vibrational temperatures:    729.91   729.91
          (Kelvin)

 Zero-point correction=                           0.002311 (Hartree/Particle)
 Thermal correction to Energy=                    0.005109
 Thermal correction to Enthalpy=                  0.006054
 Thermal correction to Gibbs Free Energy=        -0.018614
 Sum of electronic and zero-point Energies=           -100.770449
 Sum of electronic and thermal Energies=              -100.767651
 Sum of electronic and thermal Enthalpies=            -100.766707
 Sum of electronic and thermal Free Energies=         -100.791374

                     E (Thermal)             CV                S
                      KCal/Mol        Cal/Mol-Kelvin    Cal/Mol-Kelvin
 Total                    3.206              7.436             51.917
 Electronic               0.000              0.000              1.377
 Translational            0.889              2.981             35.068
 Rotational               0.592              1.987             14.191
 Vibrational              1.725              2.468              1.280
 Vibration     1          0.863              1.234              0.640
 Vibration     2          0.863              1.234              0.640

 Normal termination of Gaussian 16 at Fri Aug 22 21:16:43 2025.
