 Gaussian 16, Revision C.01,
 Gaussian 16:  ES64L-G16RevC.01  3-Jul-2019

 -----------------------------------------
 # sp b3lyp/6-311g** Force nosymm scf=(qc)
 -----------------------------------------

 -------------------
 Title Card Required
 -------------------
 Symbolic Z-matrix:
 Charge =  0 Multiplicity = 2

                          Input orientation:
 ---------------------------------------------------------------------
 Center     Atomic      Atomic             Coordinates (Angstroms)
 Number     Number       Type             X           Y           Z
 ---------------------------------------------------------------------
      1          1           0        0.000000    0.000000    0.000000
      2          1           0       -2.000000    0.000000    0.000000
      3          9           0        2.050000    0.000000    0.000000
 ---------------------------------------------------------------------

 SCF Done:  E(UB3LYP) =  -100.797422707     a.u. after   13 cycles

 Alpha  occ. eigenvalues --  -24.68564  -1.14894  -0.47652  -0.40021  -0.40021
 Alpha  occ. eigenvalues --   -0.36244
 Alpha virt. eigenvalues --   -0.13475   0.24010   0.31063   0.87978   0.94890
 Alpha virt. eigenvalues --    0.94890   1.04929   1.21655   1.21655   1.27641
 Alpha virt. eigenvalues --    1.34023   1.34023   1.58231   2.10962   2.31769

  Beta  occ. eigenvalues --  -24.66099  -1.07979  -0.37586  -0.37586  -0.37116
  Beta virt. eigenvalues --   -0.21654  -0.11611   0.26176   0.31759   0.91033
  Beta virt. eigenvalues --    0.95746   0.95746   1.08358   1.22827   1.22827
  Beta virt. eigenvalues --    1.36342   1.36342   1.37591   1.55405   2.11817

 Mulliken charges and spin densities:
               1          2
     1  H    0.130626  -0.658017
     2  H    0.042997   0.882706
     3  F   -0.173624   0.775311
 Sum of Mulliken charges =  -0.00000   1.00000

 Dipole moment (field-independent basis, Debye):
    X=             -2.1853    Y=             -0.0000    Z=              0.0000  Tot=              2.1853
 Quadrupole moment (field-independent basis, Debye-Ang):
   XX=             -8.6837   YY=             -7.5641   ZZ=             -7.5641
   XY=              0.0000   XZ=             -0.0000   YZ=              0.0000

  Exact polarizability:      50.741      -0.000       2.053       0.000       0.000       2.053
 Approx polarizability:      60.373       0.000       1.961       0.000      -0.000       1.961

 ******    2 imaginary frequencies (negative Signs) ******

                      1                      2                      3
                      A                      A                      A
 Frequencies --  -1531.1185              -556.1117               632.9159
 Red. masses --      1.0176                 1.0970                 1.0176
 Frc consts  --      1.4055                 0.1999                 0.2402
 IR Inten    --    114.3325                38.7101                10.5447

                      4
                      A
 Frequencies --    632.9159
 Red. masses --      1.0176
 Frc consts  --      0.2402
 IR Inten    --     10.5447

 - Thermochemistry -
 -------------------
 Temperature   298.150 Kelvin.  Pressure   1.00000 Atm.
 Atom     1 has atomic number  1 and mass   1.00783

 Molecular mass:    21.01405 amu.
 Principal axes and moments of inertia in atomic units:
                           1         2         3
     Eigenvalues --     0.00000  67.73487  67.73487
           X            1.00000  -0.00000   0.00000
           Y            0.00000   1.00000   0.00000
           Z            0.00000   0.00000   1.00000
 This molecule is a prolate symmetric top.
 Rotational symmetry number  1.
 Rotational temperature (Kelvin)      1.27872
 Rotational constant (GHZ):          26.644198
    2 imaginary frequencies ignored.
 Zero-point vibrational energy       7571.4 (Joules/Mol)
                                    1.80960 (Kcal/Mol)
 Vibrational temperatures:    910.62   910.62
          (Kelvin)

 Zero-point correction=                           0.002884 (Hartree/Particle)
 Thermal correction to Energy=                    0.005530
 Thermal correction to Enthalpy=                  0.006474
 Thermal correction to Gibbs Free Energy=        -0.017311
 Sum of electronic and zero-point Energies=           -100.794539
 Sum of electronic and thermal Energies=              -100.791893
 Sum of electronic and thermal Enthalpies=            -100.790949
 Sum of electronic and thermal Free Energies=         -100.814734

                     E (Thermal)             CV                S
                      KCal/Mol        Cal/Mol-Kelvin    Cal/Mol-Kelvin
 Total                    3.470              6.894             50.059
 Electronic               0.000              0.000              1.377
 Translational            0.889              2.981             35.068
 Rotational               0.592              1.987             12.821
 Vibrational              1.989              1.926              0.793

 Normal termination of Gaussian 16 at Fri Aug 22 17:00:07 2025.
