 Gaussian 16, Revision C.01,
 Gaussian 16:  ES64L-G16RevC.01  3-Jul-2019

 -----------------------------------------
 # sp b3lyp/6-311g** Force nosymm scf=(qc)
 -----------------------------------------

 -------------------
 Title Card Required
 -------------------
 Symbolic Z-matrix:
 Charge =  0 Multiplicity = 2

                          Input orientation:
 ---------------------------------------------------------------------
 Center     Atomic      Atomic             Coordinates (Angstroms)
 Number     Number       Type             X           Y           Z
 ---------------------------------------------------------------------
      1          1           0        0.000000    0.000000    0.000000
      2          1           0       -2.900000    0.000000    0.000000
      3          9           0        1.200000    0.000000    0.000000
 ---------------------------------------------------------------------

 SCF Done:  E(UB3LYP) =  -100.925816613     a.u. after    6 cycles

 Alpha  occ. eigenvalues --  -24.64275  -1.12213  -0.47710  -0.37464  -0.37464
 Alpha  occ. eigenvalues --   -0.34565
 Alpha virt. eigenvalues --   -0.05430   0.23617   0.28823   0.93240   0.93240
 Alpha virt. eigenvalues --    1.00848   1.22670   1.22967   1.22967   1.28204
 Alpha virt. eigenvalues --    1.34701   1.34701   1.73473   2.14058   2.29049

  Beta  occ. eigenvalues --  -24.64258  -1.12169  -0.47649  -0.37448  -0.37448
  Beta virt. eigenvalues --   -0.09714  -0.03380   0.27721   0.37490   0.93239
  Beta virt. eigenvalues --    0.93239   1.00887   1.27166   1.34664   1.34664
  Beta virt. eigenvalues --    1.45412   1.45415   1.45415   1.73687   2.28998

 Mulliken charges and spin densities:
               1          2
     1  H    0.350279   0.000059
     2  H    0.004657   0.994455
     3  F   -0.354936   0.005486
 Sum of Mulliken charges =  -0.00000   1.00000

 Dipole moment (field-independent basis, Debye):
    X=             -2.3456    Y=              0.0000    Z=              0.0000  Tot=              2.3456
 Quadrupole moment (field-independent basis, Debye-Ang):
   XX=             -8.7063   YY=             -7.1274   ZZ=             -7.1274
   XY=              0.0000   XZ=             -0.0000   YZ=              0.0000

  Exact polarizability:      11.051       0.000       2.334       0.000      -0.000       2.334
 Approx polarizability:      14.827       0.000       2.290      -0.000      -0.000       2.290

 ******    1 imaginary frequencies (negative Signs) ******

                      1                      2                      3
                      A                      A                      A
 Frequencies --   -115.9476               984.1233              1192.4537
 Red. masses --      1.0506                 1.0610                 1.0311
 Frc consts  --      0.0083                 0.6054                 0.8639
 IR Inten    --      1.2097                87.7484               139.5399

                      4
                      A
 Frequencies --   1192.4537
 Red. masses --      1.0311
 Frc consts  --      0.8639
 IR Inten    --    139.5399

 - Thermochemistry -
 -------------------
 Temperature   298.150 Kelvin.  Pressure   1.00000 Atm.
 Atom     1 has atomic number  1 and mass   1.00783

 Molecular mass:    21.01405 amu.
 Principal axes and moments of inertia in atomic units:
                           1         2         3
     Eigenvalues --     0.00000  60.83338  60.83338
           X            1.00000  -0.00000   0.00000
           Y            0.00000   1.00000   0.00000
           Z            0.00000   0.00000   1.00000
 This molecule is a prolate symmetric top.
 Rotational symmetry number  1.
 Rotational temperature (Kelvin)      1.42379
 Rotational constant (GHZ):          29.666957
    1 imaginary frequencies ignored.
 Zero-point vibrational energy      20151.3 (Joules/Mol)
                                    4.81627 (Kcal/Mol)
 Vibrational temperatures:   1415.93  1715.67  1715.67
          (Kelvin)

 Zero-point correction=                           0.007675 (Hartree/Particle)
 Thermal correction to Energy=                    0.010109
 Thermal correction to Enthalpy=                  0.011054
 Thermal correction to Gibbs Free Energy=        -0.012341
 Sum of electronic and zero-point Energies=           -100.918141
 Sum of electronic and thermal Energies=              -100.915707
 Sum of electronic and thermal Enthalpies=            -100.914763
 Sum of electronic and thermal Free Energies=         -100.938158

                     E (Thermal)             CV                S
                      KCal/Mol        Cal/Mol-Kelvin    Cal/Mol-Kelvin
 Total                    6.344              5.783             49.238
 Electronic               0.000              0.000              1.377
 Translational            0.889              2.981             35.068
 Rotational               0.592              1.987             12.607
 Vibrational              4.863              0.815              0.185

 Normal termination of Gaussian 16 at Fri Aug 22 16:10:46 2025.
