 Gaussian 16, Revision C.01,
 Gaussian 16:  ES64L-G16RevC.01  3-Jul-2019

 -----------------------------------------
 # sp b3lyp/6-311g** Force nosymm scf=(qc)
 -----------------------------------------

 -------------------
 Title Card Required
 -------------------
 Symbolic Z-matrix:
 Charge =  0 Multiplicity = 2

                          Input orientation:
 ---------------------------------------------------------------------
 Center     Atomic      Atomic             Coordinates (Angstroms)
 Number     Number       Type             X           Y           Z
 ---------------------------------------------------------------------
      1          1           0        0.000000    0.000000    0.000000
      2          1           0       -3.550000    0.000000    0.000000
      3          9           0        1.750000    0.000000    0.000000
 ---------------------------------------------------------------------

 SCF Done:  E(UB3LYP) =  -100.810601467     a.u. after   15 cycles

 Alpha  occ. eigenvalues --  -24.66177  -1.12277  -0.44893  -0.37970  -0.37970
 Alpha  occ. eigenvalues --   -0.33736
 Alpha virt. eigenvalues --   -0.15152   0.21422   0.29614   0.94381   0.94666
 Alpha virt. eigenvalues --    0.94666   1.05915   1.23779   1.23779   1.23831
 Alpha virt. eigenvalues --    1.33358   1.33358   1.71549   2.13621   2.24797

  Beta  occ. eigenvalues --  -24.64458  -1.07566  -0.39779  -0.36298  -0.36298
  Beta virt. eigenvalues --   -0.18841  -0.06983   0.21866   0.37862   0.94530
  Beta virt. eigenvalues --    0.94530   0.94946   1.07764   1.24458   1.24458
  Beta virt. eigenvalues --    1.45511   1.45926   1.45926   1.67179   2.12261

 Mulliken charges and spin densities:
               1          2
     1  H    0.273542  -0.539146
     2  H    0.001781   0.997803
     3  F   -0.275323   0.541343
 Sum of Mulliken charges =   0.00000   1.00000

 Dipole moment (field-independent basis, Debye):
    X=             -2.3792    Y=              0.0000    Z=              0.0000  Tot=              2.3792
 Quadrupole moment (field-independent basis, Debye-Ang):
   XX=            -10.1881   YY=             -7.4237   ZZ=             -7.4237
   XY=              0.0000   XZ=              0.0000   YZ=              0.0000

  Exact polarizability:      22.560       0.000       2.108       0.000       0.000       2.108
 Approx polarizability:      35.892       0.000       2.001      -0.000       0.000       2.001

 ******    2 imaginary frequencies (negative Signs) ******

                      1                      2                      3
                      A                      A                      A
 Frequencies --  -1623.9961              -106.7259               712.3165
 Red. masses --      1.0577                 1.0539                 1.0283
 Frc consts  --      1.6435                 0.0071                 0.3074
 IR Inten    --    127.0120                 0.2646                69.7356

                      4
                      A
 Frequencies --    712.3165
 Red. masses --      1.0283
 Frc consts  --      0.3074
 IR Inten    --     69.7356

 - Thermochemistry -
 -------------------
 Temperature   298.150 Kelvin.  Pressure   1.00000 Atm.
 Atom     1 has atomic number  1 and mass   1.00783

 Molecular mass:    21.01405 amu.
 Principal axes and moments of inertia in atomic units:
                           1         2         3
     Eigenvalues --     0.00000 103.53912 103.53912
           X            1.00000  -0.00000   0.00000
           Y            0.00000   1.00000   0.00000
           Z            0.00000   0.00000   1.00000
 This molecule is a prolate symmetric top.
 Rotational symmetry number  1.
 Rotational temperature (Kelvin)      0.83653
 Rotational constant (GHZ):          17.430525
    2 imaginary frequencies ignored.
 Zero-point vibrational energy       8521.2 (Joules/Mol)
                                    2.03662 (Kcal/Mol)
 Vibrational temperatures:   1024.86  1024.86
          (Kelvin)

 Zero-point correction=                           0.003246 (Hartree/Particle)
 Thermal correction to Energy=                    0.005822
 Thermal correction to Enthalpy=                  0.006766
 Thermal correction to Gibbs Free Energy=        -0.017320
 Sum of electronic and zero-point Energies=           -100.807356
 Sum of electronic and thermal Energies=              -100.804780
 Sum of electronic and thermal Enthalpies=            -100.803836
 Sum of electronic and thermal Free Energies=         -100.827922

                     E (Thermal)             CV                S
                      KCal/Mol        Cal/Mol-Kelvin    Cal/Mol-Kelvin
 Total                    3.653              6.580             50.693
 Electronic               0.000              0.000              1.377
 Translational            0.889              2.981             35.068
 Rotational               0.592              1.987             13.664
 Vibrational              2.172              1.612              0.584

 Normal termination of Gaussian 16 at Fri Aug 22 16:41:51 2025.
