 Gaussian 16, Revision C.01,
 Gaussian 16:  ES64L-G16RevC.01  3-Jul-2019

 -----------------------------------------
 # sp b3lyp/6-311g** Force nosymm scf=(qc)
 -----------------------------------------

 -------------------
 Title Card Required
 -------------------
 Symbolic Z-matrix:
 Charge =  0 Multiplicity = 2

                          Input orientation:
 ---------------------------------------------------------------------
 Center     Atomic      Atomic             Coordinates (Angstroms)
 Number     Number       Type             X           Y           Z
 ---------------------------------------------------------------------
      1          1           0        0.000000    0.000000    0.000000
      2          1           0       -1.650000    0.000000    0.000000
      3          9           0        1.950000    0.000000    0.000000
 ---------------------------------------------------------------------

 SCF Done:  E(UB3LYP) =  -100.822967406     a.u. after   17 cycles

 Alpha  occ. eigenvalues --  -24.68522  -1.14894  -0.47909  -0.40025  -0.40025
 Alpha  occ. eigenvalues --   -0.37700
 Alpha virt. eigenvalues --   -0.11832   0.22751   0.30599   0.85366   0.94449
 Alpha virt. eigenvalues --    0.94449   1.03068   1.18737   1.18737   1.29511
 Alpha virt. eigenvalues --    1.35753   1.35753   1.74389   2.16133   2.38909

  Beta  occ. eigenvalues --  -24.66101  -1.08123  -0.37639  -0.37639  -0.37628
  Beta virt. eigenvalues --   -0.22598  -0.10196   0.25308   0.30308   0.88677
  Beta virt. eigenvalues --    0.95233   0.95233   1.07270   1.21376   1.21376
  Beta virt. eigenvalues --    1.34971   1.36423   1.36423   1.75509   2.16854

 Mulliken charges and spin densities:
               1          2
     1  H    0.117789  -0.464030
     2  H    0.062598   0.704317
     3  F   -0.180387   0.759713
 Sum of Mulliken charges =  -0.00000   1.00000

 Dipole moment (field-independent basis, Debye):
    X=             -2.2382    Y=             -0.0000    Z=             -0.0000  Tot=              2.2382
 Quadrupole moment (field-independent basis, Debye-Ang):
   XX=             -8.1085   YY=             -7.5269   ZZ=             -7.5269
   XY=             -0.0000   XZ=              0.0000   YZ=              0.0000

  Exact polarizability:      52.135      -0.000       2.102       0.000      -0.000       2.102
 Approx polarizability:      73.995       0.000       2.035      -0.000       0.000       2.035

 ******    2 imaginary frequencies (negative Signs) ******

                      1                      2                      3
                      A                      A                      A
 Frequencies --  -2090.8049              -563.3570               918.0641
 Red. masses --      1.0135                 1.1018                 1.0160
 Frc consts  --      2.6103                 0.2060                 0.5046
 IR Inten    --    431.7028                21.7346                 5.5507

                      4
                      A
 Frequencies --    918.0641
 Red. masses --      1.0160
 Frc consts  --      0.5046
 IR Inten    --      5.5507

 - Thermochemistry -
 -------------------
 Temperature   298.150 Kelvin.  Pressure   1.00000 Atm.
 Atom     1 has atomic number  1 and mass   1.00783

 Molecular mass:    21.01405 amu.
 Principal axes and moments of inertia in atomic units:
                           1         2         3
     Eigenvalues --     0.00000  55.01166  55.01166
           X            1.00000  -0.00000   0.00000
           Y            0.00000   1.00000   0.00000
           Z            0.00000   0.00000   1.00000
 This molecule is a prolate symmetric top.
 Rotational symmetry number  1.
 Rotational temperature (Kelvin)      1.57446
 Rotational constant (GHZ):          32.806524
    2 imaginary frequencies ignored.
 Zero-point vibrational energy      10982.5 (Joules/Mol)
                                    2.62488 (Kcal/Mol)
 Vibrational temperatures:   1320.89  1320.89
          (Kelvin)

 Zero-point correction=                           0.004183 (Hartree/Particle)
 Thermal correction to Energy=                    0.006644
 Thermal correction to Enthalpy=                  0.007589
 Thermal correction to Gibbs Free Energy=        -0.015747
 Sum of electronic and zero-point Energies=           -100.818784
 Sum of electronic and thermal Energies=              -100.816323
 Sum of electronic and thermal Enthalpies=            -100.815379
 Sum of electronic and thermal Free Energies=         -100.838714

                     E (Thermal)             CV                S
                      KCal/Mol        Cal/Mol-Kelvin    Cal/Mol-Kelvin
 Total                    4.169              5.920             49.113
 Electronic               0.000              0.000              1.377
 Translational            0.889              2.981             35.068
 Rotational               0.592              1.987             12.407
 Vibrational              2.688              0.952              0.260

 Normal termination of Gaussian 16 at Fri Aug 22 16:53:00 2025.
