 Gaussian 16, Revision C.01,
 Gaussian 16:  ES64L-G16RevC.01  3-Jul-2019

 -----------------------------------------
 # sp b3lyp/6-311g** Force nosymm scf=(qc)
 -----------------------------------------

 -------------------
 Title Card Required
 -------------------
 Symbolic Z-matrix:
 Charge =  0 Multiplicity = 2

                          Input orientation:
 ---------------------------------------------------------------------
 Center     Atomic      Atomic             Coordinates (Angstroms)
 Number     Number       Type             X           Y           Z
 ---------------------------------------------------------------------
      1          1           0        0.000000    0.000000    0.000000
      2          1           0       -1.600000    0.000000    0.000000
      3          9           0        1.850000    0.000000    0.000000
 ---------------------------------------------------------------------

 SCF Done:  E(UB3LYP) =  -100.833439164     a.u. after   14 cycles

 Alpha  occ. eigenvalues --  -24.67831  -1.14239  -0.47469  -0.39464  -0.39464
 Alpha  occ. eigenvalues --   -0.38205
 Alpha virt. eigenvalues --   -0.11076   0.22281   0.30269   0.86303   0.94308
 Alpha virt. eigenvalues --    0.94308   1.03157   1.17690   1.17690   1.32998
 Alpha virt. eigenvalues --    1.36785   1.36785   1.79404   2.17516   2.39918

  Beta  occ. eigenvalues --  -24.65548  -1.07891  -0.38304  -0.37222  -0.37222
  Beta virt. eigenvalues --   -0.22535  -0.09089   0.24891   0.30185   0.89683
  Beta virt. eigenvalues --    0.94899   0.94899   1.07308   1.21065   1.21065
  Beta virt. eigenvalues --    1.37443   1.37443   1.38430   1.81169   2.18229

 Mulliken charges and spin densities:
               1          2
     1  H    0.137875  -0.407827
     2  H    0.067009   0.692585
     3  F   -0.204884   0.715242
 Sum of Mulliken charges =   0.00000   1.00000

 Dipole moment (field-independent basis, Debye):
    X=             -2.3802    Y=              0.0000    Z=              0.0000  Tot=              2.3802
 Quadrupole moment (field-independent basis, Debye-Ang):
   XX=             -8.1063   YY=             -7.4751   ZZ=             -7.4751
   XY=              0.0000   XZ=              0.0000   YZ=             -0.0000

  Exact polarizability:      49.089       0.000       2.139       0.000       0.000       2.139
 Approx polarizability:      71.735      -0.000       2.072      -0.000      -0.000       2.072

 ******    2 imaginary frequencies (negative Signs) ******

                      1                      2                      3
                      A                      A                      A
 Frequencies --  -2211.4735              -572.2417               967.3830
 Red. masses --      1.0155                 1.0994                 1.0163
 Frc consts  --      2.9261                 0.2121                 0.5604
 IR Inten    --    517.8125                10.3590                 7.5733

                      4
                      A
 Frequencies --    967.3830
 Red. masses --      1.0163
 Frc consts  --      0.5604
 IR Inten    --      7.5733

 - Thermochemistry -
 -------------------
 Temperature   298.150 Kelvin.  Pressure   1.00000 Atm.
 Atom     1 has atomic number  1 and mass   1.00783

 Molecular mass:    21.01405 amu.
 Principal axes and moments of inertia in atomic units:
                           1         2         3
     Eigenvalues --     0.00000  50.30628  50.30628
           X            1.00000  -0.00000   0.00000
           Y            0.00000   1.00000   0.00000
           Z            0.00000   0.00000   1.00000
 This molecule is a prolate symmetric top.
 Rotational symmetry number  1.
 Rotational temperature (Kelvin)      1.72173
 Rotational constant (GHZ):          35.875069
    2 imaginary frequencies ignored.
 Zero-point vibrational energy      11572.5 (Joules/Mol)
                                    2.76589 (Kcal/Mol)
 Vibrational temperatures:   1391.85  1391.85
          (Kelvin)

 Zero-point correction=                           0.004408 (Hartree/Particle)
 Thermal correction to Energy=                    0.006852
 Thermal correction to Enthalpy=                  0.007796
 Thermal correction to Gibbs Free Energy=        -0.015433
 Sum of electronic and zero-point Energies=           -100.829031
 Sum of electronic and thermal Energies=              -100.826587
 Sum of electronic and thermal Enthalpies=            -100.825643
 Sum of electronic and thermal Free Energies=         -100.848872

                     E (Thermal)             CV                S
                      KCal/Mol        Cal/Mol-Kelvin    Cal/Mol-Kelvin
 Total                    4.300              5.797             48.889
 Electronic               0.000              0.000              1.377
 Translational            0.889              2.981             35.068
 Rotational               0.592              1.987             12.230
 Vibrational              2.818              0.829              0.213

 Normal termination of Gaussian 16 at Fri Aug 22 16:46:21 2025.
