 Gaussian 16, Revision C.01,
 Gaussian 16:  ES64L-G16RevC.01  3-Jul-2019

 -----------------------------------------
 # sp b3lyp/6-311g** Force nosymm scf=(qc)
 -----------------------------------------

 -------------------
 Title Card Required
 -------------------
 Symbolic Z-matrix:
 Charge =  0 Multiplicity = 2

                          Input orientation:
 ---------------------------------------------------------------------
 Center     Atomic      Atomic             Coordinates (Angstroms)
 Number     Number       Type             X           Y           Z
 ---------------------------------------------------------------------
      1          1           0        0.000000    0.000000    0.000000
      2          1           0       -1.900000    0.000000    0.000000
      3          9           0        1.350000    0.000000    0.000000
 ---------------------------------------------------------------------

 SCF Done:  E(UB3LYP) =  -100.893892095     a.u. after    8 cycles

 Alpha  occ. eigenvalues --  -24.63565  -1.10306  -0.45851  -0.37182  -0.36256
 Alpha  occ. eigenvalues --   -0.36256
 Alpha virt. eigenvalues --   -0.07267   0.22966   0.27643   0.93726   0.93726
 Alpha virt. eigenvalues --    1.02601   1.06158   1.19610   1.19610   1.34974
 Alpha virt. eigenvalues --    1.34974   1.42216   1.70729   2.11769   2.30385

  Beta  occ. eigenvalues --  -24.63186  -1.09326  -0.44089  -0.35903  -0.35903
  Beta virt. eigenvalues --   -0.17122  -0.03364   0.26739   0.32381   0.93678
  Beta virt. eigenvalues --    0.93678   1.03773   1.12219   1.32142   1.32142
  Beta virt. eigenvalues --    1.38848   1.38848   1.51918   1.72042   2.21211

 Mulliken charges and spin densities:
               1          2
     1  H    0.323300  -0.053013
     2  H    0.042523   0.936769
     3  F   -0.365823   0.116244
 Sum of Mulliken charges =  -0.00000   1.00000

 Dipole moment (field-independent basis, Debye):
    X=             -2.8869    Y=              0.0000    Z=             -0.0000  Tot=              2.8869
 Quadrupole moment (field-independent basis, Debye-Ang):
   XX=             -8.4912   YY=             -7.1842   ZZ=             -7.1842
   XY=              0.0000   XZ=             -0.0000   YZ=             -0.0000

  Exact polarizability:      21.919       0.000       2.314       0.000       0.000       2.314
 Approx polarizability:      29.670      -0.000       2.263      -0.000       0.000       2.263

 ******    2 imaginary frequencies (negative Signs) ******

                      1                      2                      3
                      A                      A                      A
 Frequencies --  -1457.6942              -255.6289              1086.6927
 Red. masses --      1.0300                 1.0829                 1.0226
 Frc consts  --      1.2894                 0.0417                 0.7115
 IR Inten    --    184.3325                 1.8030                82.2642

                      4
                      A
 Frequencies --   1086.6927
 Red. masses --      1.0226
 Frc consts  --      0.7115
 IR Inten    --     82.2642

 - Thermochemistry -
 -------------------
 Temperature   298.150 Kelvin.  Pressure   1.00000 Atm.
 Atom     1 has atomic number  1 and mass   1.00783

 Molecular mass:    21.01405 amu.
 Principal axes and moments of inertia in atomic units:
                           1         2         3
     Eigenvalues --     0.00000  40.92136  40.92136
           X            1.00000  -0.00000   0.00000
           Y            0.00000   1.00000   0.00000
           Z            0.00000   0.00000   1.00000
 This molecule is a prolate symmetric top.
 Rotational symmetry number  1.
 Rotational temperature (Kelvin)      2.11659
 Rotational constant (GHZ):          44.102671
    2 imaginary frequencies ignored.
 Zero-point vibrational energy      12999.7 (Joules/Mol)
                                    3.10701 (Kcal/Mol)
 Vibrational temperatures:   1563.51  1563.51
          (Kelvin)

 Zero-point correction=                           0.004951 (Hartree/Particle)
 Thermal correction to Energy=                    0.007364
 Thermal correction to Enthalpy=                  0.008309
 Thermal correction to Gibbs Free Energy=        -0.014686
 Sum of electronic and zero-point Energies=           -100.888941
 Sum of electronic and thermal Energies=              -100.886528
 Sum of electronic and thermal Enthalpies=            -100.885584
 Sum of electronic and thermal Free Energies=         -100.908578

                     E (Thermal)             CV                S
                      KCal/Mol        Cal/Mol-Kelvin    Cal/Mol-Kelvin
 Total                    4.621              5.551             48.397
 Electronic               0.000              0.000              1.377
 Translational            0.889              2.981             35.068
 Rotational               0.592              1.987             11.819
 Vibrational              3.140              0.583              0.132

 Normal termination of Gaussian 16 at Fri Aug 22 16:17:32 2025.
