 Gaussian 16, Revision C.01,
 Gaussian 16:  ES64L-G16RevC.01  3-Jul-2019

 -----------------------------------------
 # sp b3lyp/6-311g** Force nosymm scf=(qc)
 -----------------------------------------

 -------------------
 Title Card Required
 -------------------
 Symbolic Z-matrix:
 Charge =  0 Multiplicity = 2

                          Input orientation:
 ---------------------------------------------------------------------
 Center     Atomic      Atomic             Coordinates (Angstroms)
 Number     Number       Type             X           Y           Z
 ---------------------------------------------------------------------
      1          1           0        0.000000    0.000000    0.000000
      2          1           0       -3.750000    0.000000    0.000000
      3          9           0        3.250000    0.000000    0.000000
 ---------------------------------------------------------------------

 SCF Done:  E(UB3LYP) =  -100.759637298     a.u. after   26 cycles

 Alpha  occ. eigenvalues --  -24.74848  -1.20851  -0.53969  -0.45314  -0.45314
 Alpha  occ. eigenvalues --   -0.32385
 Alpha virt. eigenvalues --   -0.07127   0.24042   0.36677   0.88457   0.91813
 Alpha virt. eigenvalues --    0.91813   1.02648   1.25114   1.25114   1.25172
 Alpha virt. eigenvalues --    1.45205   1.45205   1.45513   2.14638   2.41473

  Beta  occ. eigenvalues --  -24.71768  -1.12013  -0.42229  -0.42229  -0.33192
  Beta virt. eigenvalues --   -0.25198  -0.06143   0.23814   0.38108   0.93291
  Beta virt. eigenvalues --    0.93291   0.97405   1.06538   1.24184   1.24184
  Beta virt. eigenvalues --    1.24267   1.46323   1.46509   1.46509   2.14896

 Mulliken charges and spin densities:
               1          2
     1  H    0.021662  -0.974984
     2  H    0.000153   0.998871
     3  F   -0.021816   0.976113
 Sum of Mulliken charges =  -0.00000   1.00000

 Dipole moment (field-independent basis, Debye):
    X=             -0.3671    Y=             -0.0000    Z=              0.0000  Tot=              0.3671
 Quadrupole moment (field-independent basis, Debye-Ang):
   XX=             -7.8398   YY=             -7.6146   ZZ=             -7.6146
   XY=             -0.0000   XZ=              0.0000   YZ=              0.0000

  Exact polarizability:      28.507      -0.000       2.031       0.000       0.000       2.031
 Approx polarizability:      25.542      -0.000       1.931       0.000      -0.000       1.931

 ******    2 imaginary frequencies (negative Signs) ******

                      1                      2                      3
                      A                      A                      A
 Frequencies --   -286.9984               -88.9082                92.5503
 Red. masses --      1.0467                 1.0651                 1.0198
 Frc consts  --      0.0508                 0.0050                 0.0051
 IR Inten    --     23.4779                 0.3400                 0.4376

                      4
                      A
 Frequencies --     92.5503
 Red. masses --      1.0198
 Frc consts  --      0.0051
 IR Inten    --      0.4376

 - Thermochemistry -
 -------------------
 Temperature   298.150 Kelvin.  Pressure   1.00000 Atm.
 Atom     1 has atomic number  1 and mass   1.00783

 Molecular mass:    21.01405 amu.
 Principal axes and moments of inertia in atomic units:
                           1         2         3
     Eigenvalues --     0.00000 196.23143 196.23143
           X            1.00000  -0.00000   0.00000
           Y            0.00000   1.00000   0.00000
           Z            0.00000   0.00000   1.00000
 This molecule is a prolate symmetric top.
 Rotational symmetry number  1.
 Rotational temperature (Kelvin)      0.44139
 Rotational constant (GHZ):           9.197004
    2 imaginary frequencies ignored.
 Zero-point vibrational energy       1107.1 (Joules/Mol)
                                    0.26461 (Kcal/Mol)
 Warning -- explicit consideration of   2 degrees of freedom as
           vibrations may cause significant error
 Vibrational temperatures:    133.16   133.16
          (Kelvin)

 Zero-point correction=                           0.000422 (Hartree/Particle)
 Thermal correction to Energy=                    0.004280
 Thermal correction to Enthalpy=                  0.005224
 Thermal correction to Gibbs Free Energy=        -0.022614
 Sum of electronic and zero-point Energies=           -100.759216
 Sum of electronic and thermal Energies=              -100.755357
 Sum of electronic and thermal Enthalpies=            -100.754413
 Sum of electronic and thermal Free Energies=         -100.782251

                     E (Thermal)             CV                S
                      KCal/Mol        Cal/Mol-Kelvin    Cal/Mol-Kelvin
 Total                    2.686              8.877             58.591
 Electronic               0.000              0.000              1.377
 Translational            0.889              2.981             35.068
 Rotational               0.592              1.987             14.935
 Vibrational              1.205              3.909              7.211
 Vibration     1          0.602              1.954              3.605
 Vibration     2          0.602              1.954              3.605

 Normal termination of Gaussian 16 at Fri Aug 22 20:36:30 2025.
