 Gaussian 16, Revision C.01,
 Gaussian 16:  ES64L-G16RevC.01  3-Jul-2019

 -----------------------------------------
 # sp b3lyp/6-311g** Force nosymm scf=(qc)
 -----------------------------------------

 -------------------
 Title Card Required
 -------------------
 Symbolic Z-matrix:
 Charge =  0 Multiplicity = 2

                          Input orientation:
 ---------------------------------------------------------------------
 Center     Atomic      Atomic             Coordinates (Angstroms)
 Number     Number       Type             X           Y           Z
 ---------------------------------------------------------------------
      1          1           0        0.000000    0.000000    0.000000
      2          1           0       -0.750000    0.000000    0.000000
      3          9           0        1.700000    0.000000    0.000000
 ---------------------------------------------------------------------

 SCF Done:  E(UB3LYP) =  -100.936321466     a.u. after    7 cycles

 Alpha  occ. eigenvalues --  -24.72983  -1.19474  -0.54969  -0.44170  -0.43993
 Alpha  occ. eigenvalues --   -0.43993
 Alpha virt. eigenvalues --    0.08080   0.20181   0.43085   0.89655   0.89655
 Alpha virt. eigenvalues --    0.95963   1.07709   1.07709   1.20094   1.69233
 Alpha virt. eigenvalues --    1.81002   1.81002   1.96288   2.41820   3.20279

  Beta  occ. eigenvalues --  -24.70128  -1.11468  -0.46215  -0.41176  -0.41176
  Beta virt. eigenvalues --   -0.24556   0.09183   0.20968   0.44400   0.90871
  Beta virt. eigenvalues --    0.90871   1.03031   1.09178   1.09178   1.23487
  Beta virt. eigenvalues --    1.71521   1.81791   1.81791   1.97207   2.43393

 Mulliken charges and spin densities:
               1          2
     1  H    0.063294  -0.040892
     2  H    0.027670   0.158852
     3  F   -0.090965   0.882041
 Sum of Mulliken charges =   0.00000   1.00000

 Dipole moment (field-independent basis, Debye):
    X=             -0.8328    Y=              0.0000    Z=             -0.0000  Tot=              0.8328
 Quadrupole moment (field-independent basis, Debye-Ang):
   XX=             -6.5300   YY=             -6.8516   ZZ=             -6.8516
   XY=              0.0000   XZ=             -0.0000   YZ=              0.0000

  Exact polarizability:      20.158      -0.000       2.204      -0.000      -0.000       2.204
 Approx polarizability:      24.483       0.000       2.251      -0.000      -0.000       2.251

 ******    3 imaginary frequencies (negative Signs) ******

                      1                      2                      3
                      A                      A                      A
 Frequencies --   -641.6725              -641.6725              -265.9927
 Red. masses --      1.0110                 1.0110                 1.1084
 Frc consts  --      0.2453                 0.2453                 0.0462
 IR Inten    --      0.0054                 0.0054                71.2344

                      4
                      A
 Frequencies --   4148.5342
 Red. masses --      1.0079
 Frc consts  --     10.2206
 IR Inten    --    551.6362

 - Thermochemistry -
 -------------------
 Temperature   298.150 Kelvin.  Pressure   1.00000 Atm.
 Atom     1 has atomic number  1 and mass   1.00783

 Molecular mass:    21.01405 amu.
 Principal axes and moments of inertia in atomic units:
                           1         2         3
     Eigenvalues --     0.00000  29.03146  29.03146
           X            1.00000  -0.00000   0.00000
           Y            0.00000   1.00000   0.00000
           Z            0.00000   0.00000   1.00000
 This molecule is a prolate symmetric top.
 Rotational symmetry number  1.
 Rotational temperature (Kelvin)      2.98345
 Rotational constant (GHZ):          62.165015
    3 imaginary frequencies ignored.
 Zero-point vibrational energy      24813.7 (Joules/Mol)
                                    5.93063 (Kcal/Mol)
 Vibrational temperatures:   5968.82
          (Kelvin)

 Zero-point correction=                           0.009451 (Hartree/Particle)
 Thermal correction to Energy=                    0.011812
 Thermal correction to Enthalpy=                  0.012756
 Thermal correction to Gibbs Free Energy=        -0.009852
 Sum of electronic and zero-point Energies=           -100.926870
 Sum of electronic and thermal Energies=              -100.924510
 Sum of electronic and thermal Enthalpies=            -100.923566
 Sum of electronic and thermal Free Energies=         -100.946174

                     E (Thermal)             CV                S
                      KCal/Mol        Cal/Mol-Kelvin    Cal/Mol-Kelvin
 Total                    7.412              4.968             47.583
 Electronic               0.000              0.000              1.377
 Translational            0.889              2.981             35.068
 Rotational               0.592              1.987             11.137
 Vibrational              5.931              0.000              0.000

 Normal termination of Gaussian 16 at Fri Aug 22 16:36:19 2025.
