 Gaussian 16, Revision C.01,
 Gaussian 16:  ES64L-G16RevC.01  3-Jul-2019

 -----------------------------------------
 # sp b3lyp/6-311g** Force nosymm scf=(qc)
 -----------------------------------------

 -------------------
 Title Card Required
 -------------------
 Symbolic Z-matrix:
 Charge =  0 Multiplicity = 2

                          Input orientation:
 ---------------------------------------------------------------------
 Center     Atomic      Atomic             Coordinates (Angstroms)
 Number     Number       Type             X           Y           Z
 ---------------------------------------------------------------------
      1          1           0        0.000000    0.000000    0.000000
      2          1           0       -3.750000    0.000000    0.000000
      3          9           0        2.000000    0.000000    0.000000
 ---------------------------------------------------------------------

 SCF Done:  E(UB3LYP) =  -100.787136813     a.u. after   17 cycles

 Alpha  occ. eigenvalues --  -24.68248  -1.14566  -0.47226  -0.39779  -0.39779
 Alpha  occ. eigenvalues --   -0.33278
 Alpha virt. eigenvalues --   -0.13746   0.22356   0.31678   0.88869   0.94841
 Alpha virt. eigenvalues --    0.94841   1.05635   1.24229   1.24229   1.24247
 Alpha virt. eigenvalues --    1.35454   1.35454   1.60469   2.13744   2.29550

  Beta  occ. eigenvalues --  -24.65877  -1.07937  -0.37946  -0.37442  -0.37442
  Beta virt. eigenvalues --   -0.20749  -0.06563   0.22434   0.38022   0.90195
  Beta virt. eigenvalues --    0.95476   0.95476   1.08086   1.21945   1.21945
  Beta virt. eigenvalues --    1.45960   1.46304   1.46304   1.53346   2.11605

 Mulliken charges and spin densities:
               1          2
     1  H    0.192894  -0.744648
     2  H    0.000856   0.998754
     3  F   -0.193750   0.745893
 Sum of Mulliken charges =   0.00000   1.00000

 Dipole moment (field-independent basis, Debye):
    X=             -1.9298    Y=             -0.0000    Z=              0.0000  Tot=              1.9298
 Quadrupole moment (field-independent basis, Debye-Ang):
   XX=            -10.0740   YY=             -7.4869   ZZ=             -7.4869
   XY=              0.0000   XZ=             -0.0000   YZ=             -0.0000

  Exact polarizability:      25.194       0.000       2.062      -0.000      -0.000       2.062
 Approx polarizability:      36.840       0.000       1.947      -0.000       0.000       1.947

 ******    2 imaginary frequencies (negative Signs) ******

                      1                      2                      3
                      A                      A                      A
 Frequencies --  -1128.9783               -89.1818               481.0634
 Red. masses --      1.0576                 1.0540                 1.0270
 Frc consts  --      0.7942                 0.0049                 0.1400
 IR Inten    --    122.4658                 0.0911                35.2885

                      4
                      A
 Frequencies --    481.0634
 Red. masses --      1.0270
 Frc consts  --      0.1400
 IR Inten    --     35.2885

 - Thermochemistry -
 -------------------
 Temperature   298.150 Kelvin.  Pressure   1.00000 Atm.
 Atom     1 has atomic number  1 and mass   1.00783

 Molecular mass:    21.01405 amu.
 Principal axes and moments of inertia in atomic units:
                           1         2         3
     Eigenvalues --     0.00000 123.02105 123.02105
           X            1.00000  -0.00000   0.00000
           Y            0.00000   1.00000   0.00000
           Z            0.00000   0.00000   1.00000
 This molecule is a prolate symmetric top.
 Rotational symmetry number  1.
 Rotational temperature (Kelvin)      0.70406
 Rotational constant (GHZ):          14.670182
    2 imaginary frequencies ignored.
 Zero-point vibrational energy       5754.8 (Joules/Mol)
                                    1.37543 (Kcal/Mol)
 Warning -- explicit consideration of   2 degrees of freedom as
           vibrations may cause significant error
 Vibrational temperatures:    692.14   692.14
          (Kelvin)

 Zero-point correction=                           0.002192 (Hartree/Particle)
 Thermal correction to Energy=                    0.005029
 Thermal correction to Enthalpy=                  0.005974
 Thermal correction to Gibbs Free Energy=        -0.018670
 Sum of electronic and zero-point Energies=           -100.784945
 Sum of electronic and thermal Energies=              -100.782107
 Sum of electronic and thermal Enthalpies=            -100.781163
 Sum of electronic and thermal Free Energies=         -100.805807

                     E (Thermal)             CV                S
                      KCal/Mol        Cal/Mol-Kelvin    Cal/Mol-Kelvin
 Total                    3.156              7.552             51.867
 Electronic               0.000              0.000              1.377
 Translational            0.889              2.981             35.068
 Rotational               0.592              1.987             14.007
 Vibrational              1.675              2.584              1.414
 Vibration     1          0.837              1.292              0.707
 Vibration     2          0.837              1.292              0.707

 Normal termination of Gaussian 16 at Fri Aug 22 16:58:01 2025.
