 Gaussian 16, Revision C.01,
 Gaussian 16:  ES64L-G16RevC.01  3-Jul-2019

 -----------------------------------------
 # sp b3lyp/6-311g** Force nosymm scf=(qc)
 -----------------------------------------

 -------------------
 Title Card Required
 -------------------
 Symbolic Z-matrix:
 Charge =  0 Multiplicity = 2

                          Input orientation:
 ---------------------------------------------------------------------
 Center     Atomic      Atomic             Coordinates (Angstroms)
 Number     Number       Type             X           Y           Z
 ---------------------------------------------------------------------
      1          1           0        0.000000    0.000000    0.000000
      2          1           0       -3.300000    0.000000    0.000000
      3          9           0        3.650000    0.000000    0.000000
 ---------------------------------------------------------------------

 SCF Done:  E(UB3LYP) =  -100.759135962     a.u. after   32 cycles

 Alpha  occ. eigenvalues --  -24.75605  -1.21552  -0.54729  -0.45951  -0.45951
 Alpha  occ. eigenvalues --   -0.32335
 Alpha virt. eigenvalues --   -0.07216   0.24550   0.36948   0.87183   0.91344
 Alpha virt. eigenvalues --    0.91344   1.01487   1.25177   1.25177   1.25475
 Alpha virt. eigenvalues --    1.44840   1.45052   1.45052   2.15341   2.40569

  Beta  occ. eigenvalues --  -24.72477  -1.12561  -0.42816  -0.42816  -0.32685
  Beta virt. eigenvalues --   -0.25596  -0.06818   0.24340   0.37601   0.92837
  Beta virt. eigenvalues --    0.92837   0.96416   1.05549   1.24781   1.24781
  Beta virt. eigenvalues --    1.25056   1.45461   1.45686   1.45686   2.15482

 Mulliken charges and spin densities:
               1          2
     1  H    0.007238  -0.988241
     2  H    0.000226   0.996491
     3  F   -0.007463   0.991750
 Sum of Mulliken charges =  -0.00000   1.00000

 Dipole moment (field-independent basis, Debye):
    X=             -0.1439    Y=              0.0000    Z=             -0.0000  Tot=              0.1439
 Quadrupole moment (field-independent basis, Debye-Ang):
   XX=             -7.1747   YY=             -7.6266   ZZ=             -7.6266
   XY=             -0.0000   XZ=              0.0000   YZ=             -0.0000

  Exact polarizability:      20.249      -0.000       2.008      -0.000       0.000       2.008
 Approx polarizability:      15.241      -0.000       1.934       0.000       0.000       1.934

 ******    2 imaginary frequencies (negative Signs) ******

                      1                      2                      3
                      A                      A                      A
 Frequencies --   -258.6071              -103.7797                97.8045
 Red. masses --      1.0139                 1.1012                 1.0168
 Frc consts  --      0.0400                 0.0070                 0.0057
 IR Inten    --      4.7466                 1.8090                 0.0675

                      4
                      A
 Frequencies --     97.8060
 Red. masses --      1.0168
 Frc consts  --      0.0057
 IR Inten    --      0.0675

 - Thermochemistry -
 -------------------
 Temperature   298.150 Kelvin.  Pressure   1.00000 Atm.
 Atom     1 has atomic number  1 and mass   1.00783

 Molecular mass:    21.01405 amu.
 Principal axes and moments of inertia in atomic units:
                           1         2         3
     Eigenvalues --     0.00000 202.39479 202.39479
           X            1.00000  -0.00000   0.00000
           Y            0.00000   1.00000   0.00000
           Z            0.00000   0.00000   1.00000
 This molecule is a prolate symmetric top.
 Rotational symmetry number  1.
 Rotational temperature (Kelvin)      0.42795
 Rotational constant (GHZ):           8.916935
    2 imaginary frequencies ignored.
 Zero-point vibrational energy       1170.0 (Joules/Mol)
                                    0.27964 (Kcal/Mol)
 Warning -- explicit consideration of   2 degrees of freedom as
           vibrations may cause significant error
 Vibrational temperatures:    140.72   140.72
          (Kelvin)

 Zero-point correction=                           0.000446 (Hartree/Particle)
 Thermal correction to Energy=                    0.004284
 Thermal correction to Enthalpy=                  0.005228
 Thermal correction to Gibbs Free Energy=        -0.022537
 Sum of electronic and zero-point Energies=           -100.758690
 Sum of electronic and thermal Energies=              -100.754852
 Sum of electronic and thermal Enthalpies=            -100.753908
 Sum of electronic and thermal Free Energies=         -100.781673

                     E (Thermal)             CV                S
                      KCal/Mol        Cal/Mol-Kelvin    Cal/Mol-Kelvin
 Total                    2.688              8.869             58.437
 Electronic               0.000              0.000              1.377
 Translational            0.889              2.981             35.068
 Rotational               0.592              1.987             14.996
 Vibrational              1.207              3.901              6.995
 Vibration     1          0.603              1.951              3.498
 Vibration     2          0.603              1.951              3.498

 Normal termination of Gaussian 16 at Fri Aug 22 23:37:46 2025.
