 Gaussian 16, Revision C.01,
 Gaussian 16:  ES64L-G16RevC.01  3-Jul-2019

 -----------------------------------------
 # sp b3lyp/6-311g** Force nosymm scf=(qc)
 -----------------------------------------

 -------------------
 Title Card Required
 -------------------
 Symbolic Z-matrix:
 Charge =  0 Multiplicity = 2

                          Input orientation:
 ---------------------------------------------------------------------
 Center     Atomic      Atomic             Coordinates (Angstroms)
 Number     Number       Type             X           Y           Z
 ---------------------------------------------------------------------
      1          1           0        0.000000    0.000000    0.000000
      2          1           0       -3.250000    0.000000    0.000000
      3          9           0        0.500000    0.000000    0.000000
 ---------------------------------------------------------------------

 SCF Done:  E(UB3LYP) =  -100.269002737     a.u. after    6 cycles

 Alpha  occ. eigenvalues --  -24.63028  -1.42348  -0.63505  -0.44331  -0.44331
 Alpha  occ. eigenvalues --   -0.33419
 Alpha virt. eigenvalues --    0.08154   0.25383   0.62208   0.88997   0.90156
 Alpha virt. eigenvalues --    0.90156   1.23524   1.24096   1.24096   1.38547
 Alpha virt. eigenvalues --    1.58521   1.58521   2.00235   2.15372   3.76636

  Beta  occ. eigenvalues --  -24.63028  -1.42345  -0.63505  -0.44331  -0.44331
  Beta virt. eigenvalues --   -0.05390   0.08858   0.39503   0.62264   0.88996
  Beta virt. eigenvalues --    0.90153   0.90153   1.36571   1.50339   1.50339
  Beta virt. eigenvalues --    1.52046   1.58523   1.58523   2.00178   2.45333

 Mulliken charges and spin densities:
               1          2
     1  H    0.125270   0.000685
     2  H    0.001204   0.998596
     3  F   -0.126474   0.000720
 Sum of Mulliken charges =   0.00000   1.00000

 Dipole moment (field-independent basis, Debye):
    X=             -1.3082    Y=              0.0000    Z=             -0.0000  Tot=              1.3082
 Quadrupole moment (field-independent basis, Debye-Ang):
   XX=             -6.6191   YY=             -6.4387   ZZ=             -6.4387
   XY=              0.0000   XZ=             -0.0000   YZ=             -0.0000

  Exact polarizability:       3.262      -0.000       2.417      -0.000       0.000       2.417
 Approx polarizability:       3.390      -0.000       2.394       0.000       0.000       2.394

 ******    3 imaginary frequencies (negative Signs) ******

                      1                      2                      3
                      A                      A                      A
 Frequencies --  -9587.7369             -9587.7369               -21.7162
 Red. masses --      1.0451                 1.0451                 1.0532
 Frc consts  --     56.6036                56.6036                 0.0003
 IR Inten    --    281.1992               281.1992                 0.0423

                      4
                      A
 Frequencies --  19159.3099
 Red. masses --      1.0583
 Frc consts  --    228.8881
 IR Inten    --     78.1674

 - Thermochemistry -
 -------------------
 Temperature   298.150 Kelvin.  Pressure   1.00000 Atm.
 Atom     1 has atomic number  1 and mass   1.00783

 Molecular mass:    21.01405 amu.
 Principal axes and moments of inertia in atomic units:
                           1         2         3
     Eigenvalues --     0.00000  48.39310  48.39310
           X            1.00000  -0.00000   0.00000
           Y            0.00000   1.00000   0.00000
           Z            0.00000   0.00000   1.00000
 This molecule is a prolate symmetric top.
 Rotational symmetry number  1.
 Rotational temperature (Kelvin)      1.78980
 Rotational constant (GHZ):          37.293360
    3 imaginary frequencies ignored.
 Zero-point vibrational energy     114598.1 (Joules/Mol)
                                   27.38961 (Kcal/Mol)
 Vibrational temperatures:  27565.97
          (Kelvin)

 Zero-point correction=                           0.043648 (Hartree/Particle)
 Thermal correction to Energy=                    0.046009
 Thermal correction to Enthalpy=                  0.046953
 Thermal correction to Gibbs Free Energy=         0.023862
 Sum of electronic and zero-point Energies=           -100.225355
 Sum of electronic and thermal Energies=              -100.222994
 Sum of electronic and thermal Enthalpies=            -100.222050
 Sum of electronic and thermal Free Energies=         -100.245141

                     E (Thermal)             CV                S
                      KCal/Mol        Cal/Mol-Kelvin    Cal/Mol-Kelvin
 Total                   28.871              4.968             48.598
 Electronic               0.000              0.000              1.377
 Translational            0.889              2.981             35.068
 Rotational               0.592              1.987             12.153
 Vibrational             27.390              0.000              0.000

 Normal termination of Gaussian 16 at Fri Aug 22 15:37:46 2025.
