 Gaussian 16, Revision C.01,
 Gaussian 16:  ES64L-G16RevC.01  3-Jul-2019

 -----------------------------------------
 # sp b3lyp/6-311g** Force nosymm scf=(qc)
 -----------------------------------------

 -------------------
 Title Card Required
 -------------------
 Symbolic Z-matrix:
 Charge =  0 Multiplicity = 2

                          Input orientation:
 ---------------------------------------------------------------------
 Center     Atomic      Atomic             Coordinates (Angstroms)
 Number     Number       Type             X           Y           Z
 ---------------------------------------------------------------------
      1          1           0        0.000000    0.000000    0.000000
      2          1           0       -0.850000    0.000000    0.000000
      3          9           0        2.700000    0.000000    0.000000
 ---------------------------------------------------------------------

 SCF Done:  E(UB3LYP) =  -100.928539122     a.u. after  159 cycles

 Alpha  occ. eigenvalues --  -24.76842  -1.22626  -0.55807  -0.47166  -0.46954
 Alpha  occ. eigenvalues --   -0.40913
 Alpha virt. eigenvalues --    0.04377   0.20882   0.44303   0.85682   0.90550
 Alpha virt. eigenvalues --    0.93609   1.08482   1.08495   1.08912   1.49248
 Alpha virt. eigenvalues --    1.75823   1.75836   2.13667   2.39225   2.87858

  Beta  occ. eigenvalues --  -24.73679  -1.13534  -0.44116  -0.43782  -0.40787
  Beta virt. eigenvalues --   -0.26420   0.04436   0.20923   0.44412   0.92047
  Beta virt. eigenvalues --    0.95130   0.95518   1.08486   1.08494   1.12493
  Beta virt. eigenvalues --    1.49250   1.75822   1.75835   2.13682   2.39234

 Mulliken charges and spin densities:
               1          2
     1  H   -0.005855  -0.001367
     2  H   -0.007028  -0.000478
     3  F    0.012883   1.001845
 Sum of Mulliken charges =   0.00000   1.00000

 Dipole moment (field-independent basis, Debye):
    X=              0.1361    Y=             -0.0000    Z=              0.0000  Tot=              0.1361
 Quadrupole moment (field-independent basis, Debye-Ang):
   XX=             -6.0621   YY=             -6.9370   ZZ=             -6.3940
   XY=              0.0000   XZ=             -0.0000   YZ=             -0.3355

  Exact polarizability:      10.322       0.000       2.105      -0.000      -0.176       2.389
 Approx polarizability:      12.251       0.000       2.197      -0.000      -0.222       2.557

                      1                      2                      3
                      A                      A                      A
 Frequencies --    118.9933              1325.8513              1331.0352
 Red. masses --      1.1085                 1.0097                 1.0097
 Frc consts  --      0.0092                 1.0457                 1.0539
 IR Inten    --      0.5865                 0.0036                 0.0037

                      4
                      A
 Frequencies --   3137.2425
 Red. masses --      1.0078
 Frc consts  --      5.8443
 IR Inten    --      1.9156

 - Thermochemistry -
 -------------------
 Temperature   298.150 Kelvin.  Pressure   1.00000 Atm.
 Atom     1 has atomic number  1 and mass   1.00783

 Molecular mass:    21.01405 amu.
 Principal axes and moments of inertia in atomic units:
                           1         2         3
     Eigenvalues --     0.00000  64.85082  64.85082
           X            1.00000  -0.00000   0.00000
           Y            0.00000   1.00000   0.00000
           Z            0.00000   0.00000   1.00000
 This molecule is a prolate symmetric top.
 Rotational symmetry number  1.
 Rotational temperature (Kelvin)      1.33559
 Rotational constant (GHZ):          27.829119
 Zero-point vibrational energy      35368.3 (Joules/Mol)
                                    8.45323 (Kcal/Mol)
 Warning -- explicit consideration of   1 degrees of freedom as
           vibrations may cause significant error
 Vibrational temperatures:    171.20  1907.60  1915.06  4513.79
          (Kelvin)

 Zero-point correction=                           0.013471 (Hartree/Particle)
 Thermal correction to Energy=                    0.016550
 Thermal correction to Enthalpy=                  0.017495
 Thermal correction to Gibbs Free Energy=        -0.007376
 Sum of electronic and zero-point Energies=           -100.915068
 Sum of electronic and thermal Energies=              -100.911989
 Sum of electronic and thermal Enthalpies=            -100.911045
 Sum of electronic and thermal Free Energies=         -100.935915

                     E (Thermal)             CV                S
                      KCal/Mol        Cal/Mol-Kelvin    Cal/Mol-Kelvin
 Total                   10.386              7.171             52.345
 Electronic               0.000              0.000              1.377
 Translational            0.889              2.981             35.068
 Rotational               0.592              1.987             12.734
 Vibrational              8.904              2.203              3.165
 Vibration     1          0.609              1.933              3.117

 Normal termination of Gaussian 16 at Fri Aug 22 18:19:28 2025.
