 Gaussian 16, Revision C.01,
 Gaussian 16:  ES64L-G16RevC.01  3-Jul-2019

 -----------------------------------------
 # sp b3lyp/6-311g** Force nosymm scf=(qc)
 -----------------------------------------

 -------------------
 Title Card Required
 -------------------
 Symbolic Z-matrix:
 Charge =  0 Multiplicity = 2

                          Input orientation:
 ---------------------------------------------------------------------
 Center     Atomic      Atomic             Coordinates (Angstroms)
 Number     Number       Type             X           Y           Z
 ---------------------------------------------------------------------
      1          1           0        0.000000    0.000000    0.000000
      2          1           0       -2.650000    0.000000    0.000000
      3          9           0        1.100000    0.000000    0.000000
 ---------------------------------------------------------------------

 SCF Done:  E(UB3LYP) =  -100.948820658     a.u. after    5 cycles

 Alpha  occ. eigenvalues --  -24.64176  -1.13773  -0.49564  -0.37999  -0.37999
 Alpha  occ. eigenvalues --   -0.34872
 Alpha virt. eigenvalues --   -0.01770   0.24803   0.30588   0.93669   0.93669
 Alpha virt. eigenvalues --    0.99656   1.21422   1.22670   1.22670   1.33580
 Alpha virt. eigenvalues --    1.35331   1.35331   1.80472   2.13913   2.32521

  Beta  occ. eigenvalues --  -24.64154  -1.13718  -0.49475  -0.37979  -0.37979
  Beta virt. eigenvalues --   -0.09925   0.00095   0.30556   0.37151   0.93670
  Beta virt. eigenvalues --    0.93670   0.99701   1.29409   1.35292   1.35292
  Beta virt. eigenvalues --    1.44626   1.44626   1.46988   1.80720   2.32336

 Mulliken charges and spin densities:
               1          2
     1  H    0.335991   0.001459
     2  H    0.006437   0.991696
     3  F   -0.342428   0.006845
 Sum of Mulliken charges =   0.00000   1.00000

 Dipole moment (field-independent basis, Debye):
    X=             -2.2444    Y=              0.0000    Z=              0.0000  Tot=              2.2444
 Quadrupole moment (field-independent basis, Debye-Ang):
   XX=             -8.3170   YY=             -7.0451   ZZ=             -7.0451
   XY=              0.0000   XZ=              0.0000   YZ=             -0.0000

  Exact polarizability:      10.048       0.000       2.384      -0.000       0.000       2.384
 Approx polarizability:      12.274       0.000       2.351      -0.000       0.000       2.351

 ******    1 imaginary frequencies (negative Signs) ******

                      1                      2                      3
                      A                      A                      A
 Frequencies --   -119.5759              1166.6444              1166.6444
 Red. masses --      1.0523                 1.0311                 1.0311
 Frc consts  --      0.0089                 0.8268                 0.8268
 IR Inten    --      1.2375               145.9327               145.9327

                      4
                      A
 Frequencies --   1922.2969
 Red. masses --      1.0593
 Frc consts  --      2.3063
 IR Inten    --    110.0601

 - Thermochemistry -
 -------------------
 Temperature   298.150 Kelvin.  Pressure   1.00000 Atm.
 Atom     1 has atomic number  1 and mass   1.00783

 Molecular mass:    21.01405 amu.
 Principal axes and moments of inertia in atomic units:
                           1         2         3
     Eigenvalues --     0.00000  50.90571  50.90571
           X            1.00000  -0.00000   0.00000
           Y            0.00000   1.00000   0.00000
           Z            0.00000   0.00000   1.00000
 This molecule is a prolate symmetric top.
 Rotational symmetry number  1.
 Rotational temperature (Kelvin)      1.70146
 Rotational constant (GHZ):          35.452627
    1 imaginary frequencies ignored.
 Zero-point vibrational energy      25454.1 (Joules/Mol)
                                    6.08367 (Kcal/Mol)
 Vibrational temperatures:   1678.54  1678.54  2765.76
          (Kelvin)

 Zero-point correction=                           0.009695 (Hartree/Particle)
 Thermal correction to Energy=                    0.012095
 Thermal correction to Enthalpy=                  0.013039
 Thermal correction to Gibbs Free Energy=        -0.010146
 Sum of electronic and zero-point Energies=           -100.939126
 Sum of electronic and thermal Energies=              -100.936726
 Sum of electronic and thermal Enthalpies=            -100.935782
 Sum of electronic and thermal Free Energies=         -100.958966

                     E (Thermal)             CV                S
                      KCal/Mol        Cal/Mol-Kelvin    Cal/Mol-Kelvin
 Total                    7.589              5.439             48.796
 Electronic               0.000              0.000              1.377
 Translational            0.889              2.981             35.068
 Rotational               0.592              1.987             12.253
 Vibrational              6.108              0.471              0.097

 Normal termination of Gaussian 16 at Fri Aug 22 16:05:46 2025.
