 Gaussian 16, Revision C.01,
 Gaussian 16:  ES64L-G16RevC.01  3-Jul-2019

 -----------------------------------------
 # sp b3lyp/6-311g** Force nosymm scf=(qc)
 -----------------------------------------

 -------------------
 Title Card Required
 -------------------
 Symbolic Z-matrix:
 Charge =  0 Multiplicity = 2

                          Input orientation:
 ---------------------------------------------------------------------
 Center     Atomic      Atomic             Coordinates (Angstroms)
 Number     Number       Type             X           Y           Z
 ---------------------------------------------------------------------
      1          1           0        0.000000    0.000000    0.000000
      2          1           0       -0.550000    0.000000    0.000000
      3          9           0        1.000000    0.000000    0.000000
 ---------------------------------------------------------------------

 SCF Done:  E(UB3LYP) =  -100.849406930     a.u. after    6 cycles

 Alpha  occ. eigenvalues --  -24.67935  -1.21923  -0.67429  -0.42495  -0.42495
 Alpha  occ. eigenvalues --   -0.34493
 Alpha virt. eigenvalues --    0.13949   0.18320   0.66927   0.86532   0.86532
 Alpha virt. eigenvalues --    0.93728   1.13056   1.13056   1.49519   1.70555
 Alpha virt. eigenvalues --    1.85877   1.88473   1.88473   2.67590   3.78435

  Beta  occ. eigenvalues --  -24.65988  -1.17000  -0.59297  -0.40728  -0.40728
  Beta virt. eigenvalues --   -0.16138   0.16059   0.18980   0.71429   0.88391
  Beta virt. eigenvalues --    0.88391   0.97630   1.16777   1.16777   1.51861
  Beta virt. eigenvalues --    1.77443   1.87601   1.92258   1.92258   2.73531

 Mulliken charges and spin densities:
               1          2
     1  H    0.273081  -0.016708
     2  H   -0.070951   0.532895
     3  F   -0.202130   0.483813
 Sum of Mulliken charges =   0.00000   1.00000

 Dipole moment (field-independent basis, Debye):
    X=             -1.2201    Y=             -0.0000    Z=              0.0000  Tot=              1.2201
 Quadrupole moment (field-independent basis, Debye-Ang):
   XX=             -7.2737   YY=             -6.3869   ZZ=             -6.3869
   XY=             -0.0000   XZ=              0.0000   YZ=              0.0000

  Exact polarizability:      11.561       0.000       2.464      -0.000       0.000       2.464
 Approx polarizability:      13.481       0.000       2.539      -0.000       0.000       2.539

 ******    2 imaginary frequencies (negative Signs) ******

                      1                      2                      3
                      A                      A                      A
 Frequencies --  -4260.2112             -4260.2112              2324.9853
 Red. masses --      1.0123                 1.0123                 1.1085
 Frc consts  --     10.8251                10.8251                 3.5305
 IR Inten    --     18.7784                18.7784                15.8727

                      4
                      A
 Frequencies --   8014.5840
 Red. masses --      1.0078
 Frc consts  --     38.1415
 IR Inten    --    103.9293

 - Thermochemistry -
 -------------------
 Temperature   298.150 Kelvin.  Pressure   1.00000 Atm.
 Atom     1 has atomic number  1 and mass   1.00783

 Molecular mass:    21.01405 amu.
 Principal axes and moments of inertia in atomic units:
                           1         2         3
     Eigenvalues --     0.00000  11.12325  11.12325
           X            1.00000  -0.00000   0.00000
           Y            0.00000   1.00000   0.00000
           Z            0.00000   0.00000   1.00000
 This molecule is a prolate symmetric top.
 Rotational symmetry number  1.
 Rotational temperature (Kelvin)      7.78675
 Rotational constant (GHZ):         162.249449
    2 imaginary frequencies ignored.
 Zero-point vibrational energy      61844.4 (Joules/Mol)
                                   14.78116 (Kcal/Mol)
 Vibrational temperatures:   3345.14 11531.20
          (Kelvin)

 Zero-point correction=                           0.023555 (Hartree/Particle)
 Thermal correction to Energy=                    0.025916
 Thermal correction to Enthalpy=                  0.026860
 Thermal correction to Gibbs Free Energy=         0.005158
 Sum of electronic and zero-point Energies=           -100.825852
 Sum of electronic and thermal Energies=              -100.823491
 Sum of electronic and thermal Enthalpies=            -100.822547
 Sum of electronic and thermal Free Energies=         -100.844249

                     E (Thermal)             CV                S
                      KCal/Mol        Cal/Mol-Kelvin    Cal/Mol-Kelvin
 Total                   16.262              4.971             45.677
 Electronic               0.000              0.000              1.377
 Translational            0.889              2.981             35.068
 Rotational               0.592              1.987              9.231
 Vibrational             14.781              0.003              0.000

 Normal termination of Gaussian 16 at Fri Aug 22 15:59:31 2025.
