 Gaussian 16, Revision C.01,
 Gaussian 16:  ES64L-G16RevC.01  3-Jul-2019

 -----------------------------------------
 # sp b3lyp/6-311g** Force nosymm scf=(qc)
 -----------------------------------------

 -------------------
 Title Card Required
 -------------------
 Symbolic Z-matrix:
 Charge =  0 Multiplicity = 2

                          Input orientation:
 ---------------------------------------------------------------------
 Center     Atomic      Atomic             Coordinates (Angstroms)
 Number     Number       Type             X           Y           Z
 ---------------------------------------------------------------------
      1          1           0        0.000000    0.000000    0.000000
      2          1           0       -3.450000    0.000000    0.000000
      3          9           0        1.700000    0.000000    0.000000
 ---------------------------------------------------------------------

 SCF Done:  E(UB3LYP) =  -100.814566481     a.u. after   10 cycles

 Alpha  occ. eigenvalues --  -24.64207  -1.08821  -0.40942  -0.35977  -0.35977
 Alpha  occ. eigenvalues --   -0.34108
 Alpha virt. eigenvalues --   -0.18767   0.19843   0.27495   0.94882   0.94882
 Alpha virt. eigenvalues --    0.96522   1.07384   1.23397   1.23397   1.23459
 Alpha virt. eigenvalues --    1.27606   1.27606   1.70276   2.13035   2.16260

  Beta  occ. eigenvalues --  -24.64224  -1.08869  -0.40961  -0.35994  -0.35994
  Beta virt. eigenvalues --   -0.18846  -0.07033   0.22795   0.37956   0.94892
  Beta virt. eigenvalues --    0.94892   0.96572   1.07394   1.27750   1.27750
  Beta virt. eigenvalues --    1.45303   1.45782   1.45782   1.70385   2.15853

 Mulliken charges and spin densities:
               1          2
     1  H    0.325418   0.008554
     2  H    0.002951   0.996937
     3  F   -0.328369  -0.005490
 Sum of Mulliken charges =  -0.00000   1.00000

 Dipole moment (field-independent basis, Debye):
    X=             -2.7992    Y=              0.0000    Z=             -0.0000  Tot=              2.7992
 Quadrupole moment (field-independent basis, Debye-Ang):
   XX=            -10.5889   YY=             -7.4193   ZZ=             -7.4193
   XY=              0.0000   XZ=             -0.0000   YZ=              0.0000

  Exact polarizability:      20.901      -0.000       2.103       0.000      -0.000       2.103
 Approx polarizability:      47.558      -0.000       2.016       0.000      -0.000       2.016

 ******    2 imaginary frequencies (negative Signs) ******

                      1                      2                      3
                      A                      A                      A
 Frequencies --  -1187.8690               -99.8707               865.3314
 Red. masses --      1.0572                 1.0544                 1.0283
 Frc consts  --      0.8789                 0.0062                 0.4537
 IR Inten    --     41.9031                 0.5792               100.6502

                      4
                      A
 Frequencies --    865.3314
 Red. masses --      1.0283
 Frc consts  --      0.4537
 IR Inten    --    100.6502

 - Thermochemistry -
 -------------------
 Temperature   298.150 Kelvin.  Pressure   1.00000 Atm.
 Atom     1 has atomic number  1 and mass   1.00783

 Molecular mass:    21.01405 amu.
 Principal axes and moments of inertia in atomic units:
                           1         2         3
     Eigenvalues --     0.00000  97.75669  97.75669
           X            1.00000  -0.00000   0.00000
           Y            0.00000   1.00000   0.00000
           Z            0.00000   0.00000   1.00000
 This molecule is a prolate symmetric top.
 Rotational symmetry number  1.
 Rotational temperature (Kelvin)      0.88602
 Rotational constant (GHZ):          18.461562
    2 imaginary frequencies ignored.
 Zero-point vibrational energy      10351.7 (Joules/Mol)
                                    2.47411 (Kcal/Mol)
 Vibrational temperatures:   1245.02  1245.02
          (Kelvin)

 Zero-point correction=                           0.003943 (Hartree/Particle)
 Thermal correction to Energy=                    0.006426
 Thermal correction to Enthalpy=                  0.007370
 Thermal correction to Gibbs Free Energy=        -0.016536
 Sum of electronic and zero-point Energies=           -100.810624
 Sum of electronic and thermal Energies=              -100.808140
 Sum of electronic and thermal Enthalpies=            -100.807196
 Sum of electronic and thermal Free Energies=         -100.831103

                     E (Thermal)             CV                S
                      KCal/Mol        Cal/Mol-Kelvin    Cal/Mol-Kelvin
 Total                    4.033              6.066             50.316
 Electronic               0.000              0.000              1.377
 Translational            0.889              2.981             35.068
 Rotational               0.592              1.987             13.550
 Vibrational              2.551              1.098              0.320

 Normal termination of Gaussian 16 at Fri Aug 22 16:38:44 2025.
