 Gaussian 16, Revision C.01,
 Gaussian 16:  ES64L-G16RevC.01  3-Jul-2019

 -----------------------------------------
 # sp b3lyp/6-311g** Force nosymm scf=(qc)
 -----------------------------------------

 -------------------
 Title Card Required
 -------------------
 Symbolic Z-matrix:
 Charge =  0 Multiplicity = 2

                          Input orientation:
 ---------------------------------------------------------------------
 Center     Atomic      Atomic             Coordinates (Angstroms)
 Number     Number       Type             X           Y           Z
 ---------------------------------------------------------------------
      1          1           0        0.000000    0.000000    0.000000
      2          1           0       -2.950000    0.000000    0.000000
      3          9           0        1.750000    0.000000    0.000000
 ---------------------------------------------------------------------

 SCF Done:  E(UB3LYP) =  -100.806194835     a.u. after   11 cycles

 Alpha  occ. eigenvalues --  -24.63958  -1.08474  -0.40362  -0.35714  -0.35714
 Alpha  occ. eigenvalues --   -0.34866
 Alpha virt. eigenvalues --   -0.19461   0.20625   0.27199   0.95088   0.95424
 Alpha virt. eigenvalues --    0.95424   1.07944   1.22591   1.22591   1.23257
 Alpha virt. eigenvalues --    1.26791   1.26791   1.68506   2.13289   2.15919

  Beta  occ. eigenvalues --  -24.63999  -1.08588  -0.40335  -0.35755  -0.35755
  Beta virt. eigenvalues --   -0.19678  -0.08189   0.23785   0.36751   0.95259
  Beta virt. eigenvalues --    0.95452   0.95452   1.07999   1.27206   1.27206
  Beta virt. eigenvalues --    1.43840   1.44109   1.44109   1.68895   2.16461

 Mulliken charges and spin densities:
               1          2
     1  H    0.312985   0.024803
     2  H    0.011064   0.988468
     3  F   -0.324049  -0.013271
 Sum of Mulliken charges =  -0.00000   1.00000

 Dipole moment (field-independent basis, Debye):
    X=             -2.9599    Y=             -0.0000    Z=             -0.0000  Tot=              2.9599
 Quadrupole moment (field-independent basis, Debye-Ang):
   XX=            -10.4888   YY=             -7.4439   ZZ=             -7.4439
   XY=             -0.0000   XZ=             -0.0000   YZ=              0.0000

  Exact polarizability:      27.010       0.000       2.086       0.000       0.000       2.086
 Approx polarizability:      58.139       0.000       1.998       0.000      -0.000       1.998

 ******    2 imaginary frequencies (negative Signs) ******

                      1                      2                      3
                      A                      A                      A
 Frequencies --  -1202.5397              -179.8799               822.6969
 Red. masses --      1.0543                 1.0573                 1.0253
 Frc consts  --      0.8982                 0.0202                 0.4089
 IR Inten    --     89.9737                 4.0916                89.5821

                      4
                      A
 Frequencies --    822.6969
 Red. masses --      1.0253
 Frc consts  --      0.4089
 IR Inten    --     89.5821

 - Thermochemistry -
 -------------------
 Temperature   298.150 Kelvin.  Pressure   1.00000 Atm.
 Atom     1 has atomic number  1 and mass   1.00783

 Molecular mass:    21.01405 amu.
 Principal axes and moments of inertia in atomic units:
                           1         2         3
     Eigenvalues --     0.00000  83.34318  83.34318
           X            1.00000  -0.00000   0.00000
           Y            0.00000   1.00000   0.00000
           Z            0.00000   0.00000   1.00000
 This molecule is a prolate symmetric top.
 Rotational symmetry number  1.
 Rotational temperature (Kelvin)      1.03924
 Rotational constant (GHZ):          21.654335
    2 imaginary frequencies ignored.
 Zero-point vibrational energy       9841.6 (Joules/Mol)
                                    2.35221 (Kcal/Mol)
 Vibrational temperatures:   1183.68  1183.68
          (Kelvin)

 Zero-point correction=                           0.003748 (Hartree/Particle)
 Thermal correction to Energy=                    0.006253
 Thermal correction to Enthalpy=                  0.007197
 Thermal correction to Gibbs Free Energy=        -0.016587
 Sum of electronic and zero-point Energies=           -100.802446
 Sum of electronic and thermal Energies=              -100.799942
 Sum of electronic and thermal Enthalpies=            -100.798998
 Sum of electronic and thermal Free Energies=         -100.822782

                     E (Thermal)             CV                S
                      KCal/Mol        Cal/Mol-Kelvin    Cal/Mol-Kelvin
 Total                    3.924              6.196             50.058
 Electronic               0.000              0.000              1.377
 Translational            0.889              2.981             35.068
 Rotational               0.592              1.987             13.233
 Vibrational              2.443              1.228              0.379

 Normal termination of Gaussian 16 at Fri Aug 22 16:41:19 2025.
