 Gaussian 16, Revision C.01,
 Gaussian 16:  ES64L-G16RevC.01  3-Jul-2019

 -----------------------------------------
 # sp b3lyp/6-311g** Force nosymm scf=(qc)
 -----------------------------------------

 -------------------
 Title Card Required
 -------------------
 Symbolic Z-matrix:
 Charge =  0 Multiplicity = 2

                          Input orientation:
 ---------------------------------------------------------------------
 Center     Atomic      Atomic             Coordinates (Angstroms)
 Number     Number       Type             X           Y           Z
 ---------------------------------------------------------------------
      1          1           0        0.000000    0.000000    0.000000
      2          1           0       -3.100000    0.000000    0.000000
      3          9           0        1.800000    0.000000    0.000000
 ---------------------------------------------------------------------

 SCF Done:  E(UB3LYP) =  -100.805158692     a.u. after   19 cycles

 Alpha  occ. eigenvalues --  -24.66560  -1.12746  -0.45362  -0.38312  -0.38312
 Alpha  occ. eigenvalues --   -0.34159
 Alpha virt. eigenvalues --   -0.14853   0.22112   0.30034   0.92999   0.94798
 Alpha virt. eigenvalues --    0.94798   1.05990   1.23376   1.23376   1.23858
 Alpha virt. eigenvalues --    1.33707   1.33707   1.69812   2.13944   2.26043

  Beta  occ. eigenvalues --  -24.64656  -1.07502  -0.39306  -0.36453  -0.36453
  Beta virt. eigenvalues --   -0.19292  -0.07969   0.22637   0.37054   0.93782
  Beta virt. eigenvalues --    0.94813   0.94813   1.08058   1.23819   1.23819
  Beta virt. eigenvalues --    1.44213   1.44627   1.44627   1.65130   2.12755

 Mulliken charges and spin densities:
               1          2
     1  H    0.251816  -0.592279
     2  H    0.005276   0.993153
     3  F   -0.257092   0.599126
 Sum of Mulliken charges =   0.00000   1.00000

 Dipole moment (field-independent basis, Debye):
    X=             -2.3382    Y=             -0.0000    Z=              0.0000  Tot=              2.3382
 Quadrupole moment (field-independent basis, Debye-Ang):
   XX=             -9.9930   YY=             -7.4457   ZZ=             -7.4457
   XY=             -0.0000   XZ=              0.0000   YZ=              0.0000

  Exact polarizability:      25.995      -0.000       2.097       0.000      -0.000       2.097
 Approx polarizability:      38.051      -0.000       1.988       0.000       0.000       1.988

 ******    2 imaginary frequencies (negative Signs) ******

                      1                      2                      3
                      A                      A                      A
 Frequencies --  -1520.9716              -187.6220               652.8564
 Red. masses --      1.0563                 1.0552                 1.0257
 Frc consts  --      1.4397                 0.0219                 0.2576
 IR Inten    --    122.2791                 1.6406                57.2621

                      4
                      A
 Frequencies --    652.8564
 Red. masses --      1.0257
 Frc consts  --      0.2576
 IR Inten    --     57.2621

 - Thermochemistry -
 -------------------
 Temperature   298.150 Kelvin.  Pressure   1.00000 Atm.
 Atom     1 has atomic number  1 and mass   1.00783

 Molecular mass:    21.01405 amu.
 Principal axes and moments of inertia in atomic units:
                           1         2         3
     Eigenvalues --     0.00000  90.32466  90.32466
           X            1.00000  -0.00000   0.00000
           Y            0.00000   1.00000   0.00000
           Z            0.00000   0.00000   1.00000
 This molecule is a prolate symmetric top.
 Rotational symmetry number  1.
 Rotational temperature (Kelvin)      0.95892
 Rotational constant (GHZ):          19.980604
    2 imaginary frequencies ignored.
 Zero-point vibrational energy       7809.9 (Joules/Mol)
                                    1.86661 (Kcal/Mol)
 Vibrational temperatures:    939.31   939.31
          (Kelvin)

 Zero-point correction=                           0.002975 (Hartree/Particle)
 Thermal correction to Energy=                    0.005601
 Thermal correction to Enthalpy=                  0.006545
 Thermal correction to Gibbs Free Energy=        -0.017483
 Sum of electronic and zero-point Energies=           -100.802184
 Sum of electronic and thermal Energies=              -100.799557
 Sum of electronic and thermal Enthalpies=            -100.798613
 Sum of electronic and thermal Free Energies=         -100.822642

                     E (Thermal)             CV                S
                      KCal/Mol        Cal/Mol-Kelvin    Cal/Mol-Kelvin
 Total                    3.515              6.812             50.573
 Electronic               0.000              0.000              1.377
 Translational            0.889              2.981             35.068
 Rotational               0.592              1.987             13.393
 Vibrational              2.034              1.844              0.734

 Normal termination of Gaussian 16 at Fri Aug 22 16:44:35 2025.
