 Gaussian 16, Revision C.01,
 Gaussian 16:  ES64L-G16RevC.01  3-Jul-2019

 -----------------------------------------
 # sp b3lyp/6-311g** Force nosymm scf=(qc)
 -----------------------------------------

 -------------------
 Title Card Required
 -------------------
 Symbolic Z-matrix:
 Charge =  0 Multiplicity = 2

                          Input orientation:
 ---------------------------------------------------------------------
 Center     Atomic      Atomic             Coordinates (Angstroms)
 Number     Number       Type             X           Y           Z
 ---------------------------------------------------------------------
      1          1           0        0.000000    0.000000    0.000000
      2          1           0       -0.900000    0.000000    0.000000
      3          9           0        3.850000    0.000000    0.000000
 ---------------------------------------------------------------------

 SCF Done:  E(UB3LYP) =  -100.921802752     a.u. after  191 cycles

 Alpha  occ. eigenvalues --  -24.76218  -1.22109  -0.55313  -0.46490  -0.46468
 Alpha  occ. eigenvalues --   -0.40423
 Alpha virt. eigenvalues --    0.02597   0.20757   0.41620   0.86063   0.90940
 Alpha virt. eigenvalues --    0.91707   1.01077   1.08366   1.08368   1.45332
 Alpha virt. eigenvalues --    1.72252   1.72255   2.17001   2.37293   2.74170

  Beta  occ. eigenvalues --  -24.73062  -1.13035  -0.43328  -0.43305  -0.40421
  Beta virt. eigenvalues --   -0.25961   0.02601   0.20760   0.41641   0.92440
  Beta virt. eigenvalues --    0.93199   0.95528   1.05215   1.08366   1.08368
  Beta virt. eigenvalues --    1.45335   1.72252   1.72255   2.17006   2.37294

 Mulliken charges and spin densities:
               1          2
     1  H    0.000432  -0.000146
     2  H   -0.001943  -0.000018
     3  F    0.001511   1.000165
 Sum of Mulliken charges =   0.00000   1.00000

 Dipole moment (field-independent basis, Debye):
    X=              0.0249    Y=              0.0000    Z=              0.0000  Tot=              0.0249
 Quadrupole moment (field-independent basis, Debye-Ang):
   XX=             -6.3161   YY=             -7.0033   ZZ=             -6.4314
   XY=              0.0000   XZ=              0.0000   YZ=              0.3242

  Exact polarizability:      10.286       0.000       2.105       0.000       0.175       2.414
 Approx polarizability:      12.834       0.000       2.187       0.000       0.218       2.572

 ******    1 imaginary frequencies (negative Signs) ******

                      1                      2                      3
                      A                      A                      A
 Frequencies --    -50.5422              1451.5769              1453.7136
 Red. masses --      1.1085                 1.0089                 1.0089
 Frc consts  --      0.0017                 1.2525                 1.2562
 IR Inten    --      0.0558                 0.0008                 0.0003

                      4
                      A
 Frequencies --   2642.8118
 Red. masses --      1.0078
 Frc consts  --      4.1473
 IR Inten    --      0.0462

 - Thermochemistry -
 -------------------
 Temperature   298.150 Kelvin.  Pressure   1.00000 Atm.
 Atom     1 has atomic number  1 and mass   1.00783

 Molecular mass:    21.01405 amu.
 Principal axes and moments of inertia in atomic units:
                           1         2         3
     Eigenvalues --     0.00000 121.78293 121.78293
           X            1.00000  -0.00000   0.00000
           Y            0.00000   1.00000   0.00000
           Z            0.00000   0.00000   1.00000
 This molecule is a prolate symmetric top.
 Rotational symmetry number  1.
 Rotational temperature (Kelvin)      0.71122
 Rotational constant (GHZ):          14.819329
    1 imaginary frequencies ignored.
 Zero-point vibrational energy      33185.0 (Joules/Mol)
                                    7.93141 (Kcal/Mol)
 Vibrational temperatures:   2088.50  2091.57  3802.42
          (Kelvin)

 Zero-point correction=                           0.012640 (Hartree/Particle)
 Thermal correction to Energy=                    0.015012
 Thermal correction to Enthalpy=                  0.015956
 Thermal correction to Gibbs Free Energy=        -0.008019
 Sum of electronic and zero-point Energies=           -100.909163
 Sum of electronic and thermal Energies=              -100.906791
 Sum of electronic and thermal Enthalpies=            -100.905847
 Sum of electronic and thermal Free Energies=         -100.929822

                     E (Thermal)             CV                S
                      KCal/Mol        Cal/Mol-Kelvin    Cal/Mol-Kelvin
 Total                    9.420              5.146             50.461
 Electronic               0.000              0.000              1.377
 Translational            0.889              2.981             35.068
 Rotational               0.592              1.987             13.987
 Vibrational              7.939              0.178              0.029

 Normal termination of Gaussian 16 at Sat Aug 23 00:56:30 2025.
