 Gaussian 16, Revision C.01,
 Gaussian 16:  ES64L-G16RevC.01  3-Jul-2019

 -----------------------------------------
 # sp b3lyp/6-311g** Force nosymm scf=(qc)
 -----------------------------------------

 -------------------
 Title Card Required
 -------------------
 Symbolic Z-matrix:
 Charge =  0 Multiplicity = 2

                          Input orientation:
 ---------------------------------------------------------------------
 Center     Atomic      Atomic             Coordinates (Angstroms)
 Number     Number       Type             X           Y           Z
 ---------------------------------------------------------------------
      1          1           0        0.000000    0.000000    0.000000
      2          1           0       -1.200000    0.000000    0.000000
      3          9           0        2.000000    0.000000    0.000000
 ---------------------------------------------------------------------

 SCF Done:  E(UB3LYP) =  -100.878436874     a.u. after   13 cycles

 Alpha  occ. eigenvalues --  -24.72188  -1.18464  -0.51923  -0.43175  -0.43175
 Alpha  occ. eigenvalues --   -0.39254
 Alpha virt. eigenvalues --   -0.04541   0.21743   0.33885   0.88839   0.92218
 Alpha virt. eigenvalues --    0.92218   1.06295   1.10261   1.10261   1.38389
 Alpha virt. eigenvalues --    1.51787   1.51787   2.07184   2.28458   2.53626

  Beta  occ. eigenvalues --  -24.69393  -1.10554  -0.40399  -0.40399  -0.38963
  Beta virt. eigenvalues --   -0.24792  -0.02935   0.22748   0.34370   0.93445
  Beta virt. eigenvalues --    0.93445   0.95354   1.09348   1.11580   1.11580
  Beta virt. eigenvalues --    1.41606   1.52681   1.52681   2.08789   2.29748

 Mulliken charges and spin densities:
               1          2
     1  H    0.044522  -0.120160
     2  H    0.051402   0.243585
     3  F   -0.095924   0.876575
 Sum of Mulliken charges =  -0.00000   1.00000

 Dipole moment (field-independent basis, Debye):
    X=             -1.2319    Y=             -0.0000    Z=             -0.0000  Tot=              1.2319
 Quadrupole moment (field-independent basis, Debye-Ang):
   XX=             -6.9132   YY=             -7.3763   ZZ=             -7.3763
   XY=             -0.0000   XZ=             -0.0000   YZ=             -0.0000

  Exact polarizability:      41.270      -0.000       2.174      -0.000       0.000       2.174
 Approx polarizability:      59.661       0.000       2.168       0.000       0.000       2.168

 ******    2 imaginary frequencies (negative Signs) ******

                      1                      2                      3
                      A                      A                      A
 Frequencies --  -1441.4216              -105.1479              1376.3459
 Red. masses --      1.0185                 1.0958                 1.0129
 Frc consts  --      1.2469                 0.0071                 1.1306
 IR Inten    --   1001.5175                 1.7038                 0.1011

                      4
                      A
 Frequencies --   1376.3459
 Red. masses --      1.0129
 Frc consts  --      1.1306
 IR Inten    --      0.1011

 - Thermochemistry -
 -------------------
 Temperature   298.150 Kelvin.  Pressure   1.00000 Atm.
 Atom     1 has atomic number  1 and mass   1.00783

 Molecular mass:    21.01405 amu.
 Principal axes and moments of inertia in atomic units:
                           1         2         3
     Eigenvalues --     0.00000  46.58259  46.58259
           X            1.00000  -0.00000   0.00000
           Y            0.00000   1.00000   0.00000
           Z            0.00000   0.00000   1.00000
 This molecule is a prolate symmetric top.
 Rotational symmetry number  1.
 Rotational temperature (Kelvin)      1.85936
 Rotational constant (GHZ):          38.742826
    2 imaginary frequencies ignored.
 Zero-point vibrational energy      16464.8 (Joules/Mol)
                                    3.93517 (Kcal/Mol)
 Vibrational temperatures:   1980.25  1980.25
          (Kelvin)

 Zero-point correction=                           0.006271 (Hartree/Particle)
 Thermal correction to Energy=                    0.008648
 Thermal correction to Enthalpy=                  0.009592
 Thermal correction to Gibbs Free Energy=        -0.013481
 Sum of electronic and zero-point Energies=           -100.872166
 Sum of electronic and thermal Energies=              -100.869789
 Sum of electronic and thermal Enthalpies=            -100.868845
 Sum of electronic and thermal Free Energies=         -100.891918

                     E (Thermal)             CV                S
                      KCal/Mol        Cal/Mol-Kelvin    Cal/Mol-Kelvin
 Total                    5.427              5.197             48.562
 Electronic               0.000              0.000              1.377
 Translational            0.889              2.981             35.068
 Rotational               0.592              1.987             12.077
 Vibrational              3.945              0.229              0.040

 Normal termination of Gaussian 16 at Fri Aug 22 16:55:45 2025.
