 Gaussian 16, Revision C.01,
 Gaussian 16:  ES64L-G16RevC.01  3-Jul-2019

 -----------------------------------------
 # sp b3lyp/6-311g** Force nosymm scf=(qc)
 -----------------------------------------

 -------------------
 Title Card Required
 -------------------
 Symbolic Z-matrix:
 Charge =  0 Multiplicity = 2

                          Input orientation:
 ---------------------------------------------------------------------
 Center     Atomic      Atomic             Coordinates (Angstroms)
 Number     Number       Type             X           Y           Z
 ---------------------------------------------------------------------
      1          1           0        0.000000    0.000000    0.000000
      2          1           0       -2.450000    0.000000    0.000000
      3          9           0        0.750000    0.000000    0.000000
 ---------------------------------------------------------------------

 SCF Done:  E(UB3LYP) =  -100.922157366     a.u. after    6 cycles

 Alpha  occ. eigenvalues --  -24.63386  -1.25409  -0.57364  -0.41126  -0.41126
 Alpha  occ. eigenvalues --   -0.34639
 Alpha virt. eigenvalues --    0.07421   0.25405   0.49055   0.93987   0.93987
 Alpha virt. eigenvalues --    0.96383   1.17499   1.22912   1.22912   1.41772
 Alpha virt. eigenvalues --    1.41772   1.43332   1.99977   2.14588   2.67804

  Beta  occ. eigenvalues --  -24.63374  -1.25376  -0.57318  -0.41117  -0.41117
  Beta virt. eigenvalues --   -0.08783   0.08908   0.37696   0.48978   0.93985
  Beta virt. eigenvalues --    0.93985   0.96545   1.28052   1.41743   1.41743
  Beta virt. eigenvalues --    1.45113   1.45113   1.56451   2.00121   2.42604

 Mulliken charges and spin densities:
               1          2
     1  H    0.262458   0.003954
     2  H    0.005290   0.992184
     3  F   -0.267749   0.003862
 Sum of Mulliken charges =   0.00000   1.00000

 Dipole moment (field-independent basis, Debye):
    X=             -1.7234    Y=             -0.0000    Z=              0.0000  Tot=              1.7234
 Quadrupole moment (field-independent basis, Debye-Ang):
   XX=             -7.2512   YY=             -6.7082   ZZ=             -6.7082
   XY=             -0.0000   XZ=              0.0000   YZ=              0.0000

  Exact polarizability:       5.989       0.000       2.476       0.000      -0.000       2.476
 Approx polarizability:       6.185       0.000       2.462      -0.000      -0.000       2.462

 ******    2 imaginary frequencies (negative Signs) ******

                      1                      2                      3
                      A                      A                      A
 Frequencies --  -2678.5237             -2678.5237               110.8319
 Red. masses --      1.0359                 1.0359                 1.0532
 Frc consts  --      4.3789                 4.3789                 0.0076
 IR Inten    --    188.6346               188.6346                 0.3164

                      4
                      A
 Frequencies --   7584.5634
 Red. masses --      1.0583
 Frc consts  --     35.8699
 IR Inten    --    127.1128

 - Thermochemistry -
 -------------------
 Temperature   298.150 Kelvin.  Pressure   1.00000 Atm.
 Atom     1 has atomic number  1 and mass   1.00783

 Molecular mass:    21.01405 amu.
 Principal axes and moments of inertia in atomic units:
                           1         2         3
     Eigenvalues --     0.00000  36.18519  36.18519
           X            1.00000  -0.00000   0.00000
           Y            0.00000   1.00000   0.00000
           Z            0.00000   0.00000   1.00000
 This molecule is a prolate symmetric top.
 Rotational symmetry number  1.
 Rotational temperature (Kelvin)      2.39363
 Rotational constant (GHZ):          49.875134
    2 imaginary frequencies ignored.
 Zero-point vibrational energy      46028.7 (Joules/Mol)
                                   11.00112 (Kcal/Mol)
 Warning -- explicit consideration of   1 degrees of freedom as
           vibrations may cause significant error
 Vibrational temperatures:    159.46 10912.50
          (Kelvin)

 Zero-point correction=                           0.017531 (Hartree/Particle)
 Thermal correction to Energy=                    0.020606
 Thermal correction to Enthalpy=                  0.021550
 Thermal correction to Gibbs Free Energy=        -0.002812
 Sum of electronic and zero-point Energies=           -100.904626
 Sum of electronic and thermal Energies=              -100.901551
 Sum of electronic and thermal Enthalpies=            -100.900607
 Sum of electronic and thermal Free Energies=         -100.924970

                     E (Thermal)             CV                S
                      KCal/Mol        Cal/Mol-Kelvin    Cal/Mol-Kelvin
 Total                   12.930              6.909             51.275
 Electronic               0.000              0.000              1.377
 Translational            0.889              2.981             35.068
 Rotational               0.592              1.987             11.575
 Vibrational             11.449              1.941              3.254
 Vibration     1          0.607              1.941              3.254

 Normal termination of Gaussian 16 at Fri Aug 22 15:49:03 2025.
