 Gaussian 16, Revision C.01,
 Gaussian 16:  ES64L-G16RevC.01  3-Jul-2019

 -----------------------------------------
 # sp b3lyp/6-311g** Force nosymm scf=(qc)
 -----------------------------------------

 -------------------
 Title Card Required
 -------------------
 Symbolic Z-matrix:
 Charge =  0 Multiplicity = 2

                          Input orientation:
 ---------------------------------------------------------------------
 Center     Atomic      Atomic             Coordinates (Angstroms)
 Number     Number       Type             X           Y           Z
 ---------------------------------------------------------------------
      1          1           0        0.000000    0.000000    0.000000
      2          1           0       -3.950000    0.000000    0.000000
      3          9           0        2.450000    0.000000    0.000000
 ---------------------------------------------------------------------

 SCF Done:  E(UB3LYP) =  -100.768396247     a.u. after   15 cycles

 Alpha  occ. eigenvalues --  -24.71433  -1.17667  -0.50531  -0.42456  -0.42456
 Alpha  occ. eigenvalues --   -0.32781
 Alpha virt. eigenvalues --   -0.10518   0.23379   0.34853   0.89380   0.93771
 Alpha virt. eigenvalues --    0.93771   1.06197   1.24719   1.24719   1.24731
 Alpha virt. eigenvalues --    1.39983   1.39983   1.45322   2.14029   2.36340

  Beta  occ. eigenvalues --  -24.68620  -1.09670  -0.39653  -0.39653  -0.35567
  Beta virt. eigenvalues --   -0.23135  -0.06101   0.23639   0.38108   0.95109
  Beta virt. eigenvalues --    0.95109   0.95134   1.08399   1.21944   1.21944
  Beta virt. eigenvalues --    1.31268   1.46497   1.46655   1.46655   2.12035

 Mulliken charges and spin densities:
               1          2
     1  H    0.097946  -0.887762
     2  H    0.000299   0.999315
     3  F   -0.098245   0.888448
 Sum of Mulliken charges =  -0.00000   1.00000

 Dipole moment (field-independent basis, Debye):
    X=             -1.2271    Y=             -0.0000    Z=             -0.0000  Tot=              1.2271
 Quadrupole moment (field-independent basis, Debye-Ang):
   XX=             -9.4486   YY=             -7.5608   ZZ=             -7.5608
   XY=             -0.0000   XZ=             -0.0000   YZ=              0.0000

  Exact polarizability:      29.457      -0.000       2.028      -0.000      -0.000       2.028
 Approx polarizability:      38.353      -0.000       1.921      -0.000       0.000       1.921

 ******    2 imaginary frequencies (negative Signs) ******

                      1                      2                      3
                      A                      A                      A
 Frequencies --   -644.3681               -72.3846               256.8856
 Red. masses --      1.0570                 1.0546                 1.0246
 Frc consts  --      0.2586                 0.0033                 0.0398
 IR Inten    --     85.1622                 0.0378                 9.3855

                      4
                      A
 Frequencies --    256.8856
 Red. masses --      1.0246
 Frc consts  --      0.0398
 IR Inten    --      9.3855

 - Thermochemistry -
 -------------------
 Temperature   298.150 Kelvin.  Pressure   1.00000 Atm.
 Atom     1 has atomic number  1 and mass   1.00783

 Molecular mass:    21.01405 amu.
 Principal axes and moments of inertia in atomic units:
                           1         2         3
     Eigenvalues --     0.00000 155.49943 155.49943
           X            1.00000  -0.00000   0.00000
           Y            0.00000   1.00000   0.00000
           Z            0.00000   0.00000   1.00000
 This molecule is a prolate symmetric top.
 Rotational symmetry number  1.
 Rotational temperature (Kelvin)      0.55700
 Rotational constant (GHZ):          11.606095
    2 imaginary frequencies ignored.
 Zero-point vibrational energy       3073.0 (Joules/Mol)
                                    0.73447 (Kcal/Mol)
 Warning -- explicit consideration of   2 degrees of freedom as
           vibrations may cause significant error
 Vibrational temperatures:    369.60   369.60
          (Kelvin)

 Zero-point correction=                           0.001170 (Hartree/Particle)
 Thermal correction to Energy=                    0.004485
 Thermal correction to Enthalpy=                  0.005429
 Thermal correction to Gibbs Free Energy=        -0.020363
 Sum of electronic and zero-point Energies=           -100.767226
 Sum of electronic and thermal Energies=              -100.763912
 Sum of electronic and thermal Enthalpies=            -100.762967
 Sum of electronic and thermal Free Energies=         -100.788759

                     E (Thermal)             CV                S
                      KCal/Mol        Cal/Mol-Kelvin    Cal/Mol-Kelvin
 Total                    2.814              8.470             54.283
 Electronic               0.000              0.000              1.377
 Translational            0.889              2.981             35.068
 Rotational               0.592              1.987             14.472
 Vibrational              1.333              3.502              3.366
 Vibration     1          0.666              1.751              1.683
 Vibration     2          0.666              1.751              1.683

 Normal termination of Gaussian 16 at Fri Aug 22 17:40:09 2025.
