 Gaussian 16, Revision C.01,
 Gaussian 16:  ES64L-G16RevC.01  3-Jul-2019

 -----------------------------------------
 # sp b3lyp/6-311g** Force nosymm scf=(qc)
 -----------------------------------------

 -------------------
 Title Card Required
 -------------------
 Symbolic Z-matrix:
 Charge =  0 Multiplicity = 2

                          Input orientation:
 ---------------------------------------------------------------------
 Center     Atomic      Atomic             Coordinates (Angstroms)
 Number     Number       Type             X           Y           Z
 ---------------------------------------------------------------------
      1          1           0        0.000000    0.000000    0.000000
      2          1           0       -1.200000    0.000000    0.000000
      3          9           0        1.500000    0.000000    0.000000
 ---------------------------------------------------------------------

 SCF Done:  E(UB3LYP) =  -100.902427812     a.u. after   11 cycles

 Alpha  occ. eigenvalues --  -24.67147  -1.14158  -0.50449  -0.39559  -0.39263
 Alpha  occ. eigenvalues --   -0.39263
 Alpha virt. eigenvalues --   -0.01380   0.20157   0.31364   0.91501   0.91501
 Alpha virt. eigenvalues --    0.99502   1.09148   1.09834   1.09834   1.52001
 Alpha virt. eigenvalues --    1.52001   1.56682   2.06990   2.25247   2.49504

  Beta  occ. eigenvalues --  -24.65181  -1.08829  -0.42634  -0.37366  -0.37366
  Beta virt. eigenvalues --   -0.22983   0.01643   0.22386   0.32912   0.92121
  Beta virt. eigenvalues --    0.92121   1.04711   1.12546   1.14010   1.14010
  Beta virt. eigenvalues --    1.53997   1.53997   1.60709   2.10923   2.29518

 Mulliken charges and spin densities:
               1          2
     1  H    0.190193  -0.155974
     2  H    0.065692   0.553579
     3  F   -0.255885   0.602395
 Sum of Mulliken charges =   0.00000   1.00000

 Dipole moment (field-independent basis, Debye):
    X=             -2.2558    Y=              0.0000    Z=             -0.0000  Tot=              2.2558
 Quadrupole moment (field-independent basis, Debye-Ang):
   XX=             -7.7022   YY=             -7.1352   ZZ=             -7.1352
   XY=              0.0000   XZ=             -0.0000   YZ=              0.0000

  Exact polarizability:      32.850       0.000       2.361      -0.000       0.000       2.361
 Approx polarizability:      49.823       0.000       2.327      -0.000      -0.000       2.327

 ******    1 imaginary frequencies (negative Signs) ******

                      1                      2                      3
                      A                      A                      A
 Frequencies --  -2535.8834               384.2940              1222.1357
 Red. masses --      1.0237                 1.0899                 1.0155
 Frc consts  --      3.8788                 0.0948                 0.8936
 IR Inten    --    918.9977                24.9792                10.8710

                      4
                      A
 Frequencies --   1222.1357
 Red. masses --      1.0155
 Frc consts  --      0.8936
 IR Inten    --     10.8710

 - Thermochemistry -
 -------------------
 Temperature   298.150 Kelvin.  Pressure   1.00000 Atm.
 Atom     1 has atomic number  1 and mass   1.00783

 Molecular mass:    21.01405 amu.
 Principal axes and moments of inertia in atomic units:
                           1         2         3
     Eigenvalues --     0.00000  31.28976  31.28976
           X            1.00000  -0.00000   0.00000
           Y            0.00000   1.00000   0.00000
           Z            0.00000   0.00000   1.00000
 This molecule is a prolate symmetric top.
 Rotational symmetry number  1.
 Rotational temperature (Kelvin)      2.76812
 Rotational constant (GHZ):          57.678342
    1 imaginary frequencies ignored.
 Zero-point vibrational energy      16918.6 (Joules/Mol)
                                    4.04364 (Kcal/Mol)
 Warning -- explicit consideration of   1 degrees of freedom as
           vibrations may cause significant error
 Vibrational temperatures:    552.91  1758.38  1758.38
          (Kelvin)

 Zero-point correction=                           0.006444 (Hartree/Particle)
 Thermal correction to Energy=                    0.009160
 Thermal correction to Enthalpy=                  0.010104
 Thermal correction to Gibbs Free Energy=        -0.013096
 Sum of electronic and zero-point Energies=           -100.895984
 Sum of electronic and thermal Energies=              -100.893268
 Sum of electronic and thermal Enthalpies=            -100.892324
 Sum of electronic and thermal Free Energies=         -100.915524

                     E (Thermal)             CV                S
                      KCal/Mol        Cal/Mol-Kelvin    Cal/Mol-Kelvin
 Total                    5.748              6.853             48.829
 Electronic               0.000              0.000              1.377
 Translational            0.889              2.981             35.068
 Rotational               0.592              1.987             11.286
 Vibrational              4.267              1.885              1.098
 Vibration     1          0.753              1.504              1.022

 Normal termination of Gaussian 16 at Fri Aug 22 16:24:47 2025.
