 Gaussian 16, Revision C.01,
 Gaussian 16:  ES64L-G16RevC.01  3-Jul-2019

 -----------------------------------------
 # sp b3lyp/6-311g** Force nosymm scf=(qc)
 -----------------------------------------

 -------------------
 Title Card Required
 -------------------
 Symbolic Z-matrix:
 Charge =  0 Multiplicity = 2

                          Input orientation:
 ---------------------------------------------------------------------
 Center     Atomic      Atomic             Coordinates (Angstroms)
 Number     Number       Type             X           Y           Z
 ---------------------------------------------------------------------
      1          1           0        0.000000    0.000000    0.000000
      2          1           0       -3.350000    0.000000    0.000000
      3          9           0        4.000000    0.000000    0.000000
 ---------------------------------------------------------------------

 SCF Done:  E(UB3LYP) =  -100.758802417     a.u. after   34 cycles

 Alpha  occ. eigenvalues --  -24.75882  -1.21809  -0.55007  -0.46185  -0.46185
 Alpha  occ. eigenvalues --   -0.32276
 Alpha virt. eigenvalues --   -0.06903   0.24552   0.37469   0.86562   0.91169
 Alpha virt. eigenvalues --    0.91169   1.01081   1.25234   1.25234   1.25484
 Alpha virt. eigenvalues --    1.45286   1.45518   1.45518   2.15317   2.40774

  Beta  occ. eigenvalues --  -24.72736  -1.12764  -0.43031  -0.43031  -0.32461
  Beta virt. eigenvalues --   -0.25733  -0.06700   0.24405   0.37730   0.92667
  Beta virt. eigenvalues --    0.92667   0.95941   1.05208   1.25035   1.25035
  Beta virt. eigenvalues --    1.25271   1.45593   1.45818   1.45818   2.15303

 Mulliken charges and spin densities:
               1          2
     1  H    0.002296  -0.994197
     2  H    0.000099   0.996870
     3  F   -0.002395   0.997327
 Sum of Mulliken charges =   0.00000   1.00000

 Dipole moment (field-independent basis, Debye):
    X=             -0.0513    Y=             -0.0000    Z=             -0.0000  Tot=              0.0513
 Quadrupole moment (field-independent basis, Debye-Ang):
   XX=             -6.8854   YY=             -7.6265   ZZ=             -7.6265
   XY=             -0.0000   XZ=             -0.0000   YZ=             -0.0000

  Exact polarizability:      11.330      -0.000       2.033      -0.000       0.000       2.033
 Approx polarizability:       8.535      -0.000       1.936      -0.000      -0.000       1.936

 ******    2 imaginary frequencies (negative Signs) ******

                      1                      2                      3
                      A                      A                      A
 Frequencies --   -224.3710               -71.6961                76.6547
 Red. masses --      1.0093                 1.1068                 1.0159
 Frc consts  --      0.0299                 0.0034                 0.0035
 IR Inten    --      0.6807                 0.4640                 0.0049

                      4
                      A
 Frequencies --     76.6548
 Red. masses --      1.0159
 Frc consts  --      0.0035
 IR Inten    --      0.0049

 - Thermochemistry -
 -------------------
 Temperature   298.150 Kelvin.  Pressure   1.00000 Atm.
 Atom     1 has atomic number  1 and mass   1.00783

 Molecular mass:    21.01405 amu.
 Principal axes and moments of inertia in atomic units:
                           1         2         3
     Eigenvalues --     0.00000 229.77592 229.77592
           X            1.00000  -0.00000   0.00000
           Y            0.00000   1.00000   0.00000
           Z            0.00000   0.00000   1.00000
 This molecule is a prolate symmetric top.
 Rotational symmetry number  1.
 Rotational temperature (Kelvin)      0.37695
 Rotational constant (GHZ):           7.854353
    2 imaginary frequencies ignored.
 Zero-point vibrational energy        917.0 (Joules/Mol)
                                    0.21917 (Kcal/Mol)
 Warning -- explicit consideration of   2 degrees of freedom as
           vibrations may cause significant error
 Vibrational temperatures:    110.29   110.29
          (Kelvin)

 Zero-point correction=                           0.000349 (Hartree/Particle)
 Thermal correction to Energy=                    0.004270
 Thermal correction to Enthalpy=                  0.005215
 Thermal correction to Gibbs Free Energy=        -0.023124
 Sum of electronic and zero-point Energies=           -100.758453
 Sum of electronic and thermal Energies=              -100.754532
 Sum of electronic and thermal Enthalpies=            -100.753588
 Sum of electronic and thermal Free Energies=         -100.781926

                     E (Thermal)             CV                S
                      KCal/Mol        Cal/Mol-Kelvin    Cal/Mol-Kelvin
 Total                    2.680              8.897             59.643
 Electronic               0.000              0.000              1.377
 Translational            0.889              2.981             35.068
 Rotational               0.592              1.987             15.248
 Vibrational              1.198              3.929              7.950
 Vibration     1          0.599              1.965              3.975
 Vibration     2          0.599              1.965              3.975

 Normal termination of Gaussian 16 at Sat Aug 23 01:57:36 2025.
