 Gaussian 16, Revision C.01,
 Gaussian 16:  ES64L-G16RevC.01  3-Jul-2019

 -----------------------------------------
 # sp b3lyp/6-311g** Force nosymm scf=(qc)
 -----------------------------------------

 -------------------
 Title Card Required
 -------------------
 Symbolic Z-matrix:
 Charge =  0 Multiplicity = 2

                          Input orientation:
 ---------------------------------------------------------------------
 Center     Atomic      Atomic             Coordinates (Angstroms)
 Number     Number       Type             X           Y           Z
 ---------------------------------------------------------------------
      1          1           0        0.000000    0.000000    0.000000
      2          1           0       -2.200000    0.000000    0.000000
      3          9           0        2.750000    0.000000    0.000000
 ---------------------------------------------------------------------

 SCF Done:  E(UB3LYP) =  -100.771937694     a.u. after   22 cycles

 Alpha  occ. eigenvalues --  -24.73162  -1.19280  -0.52274  -0.43893  -0.43893
 Alpha  occ. eigenvalues --   -0.33849
 Alpha virt. eigenvalues --   -0.11905   0.25260   0.32605   0.90298   0.92834
 Alpha virt. eigenvalues --    0.92834   1.05523   1.23850   1.23985   1.23985
 Alpha virt. eigenvalues --    1.37137   1.37137   1.43616   2.13014   2.34706

  Beta  occ. eigenvalues --  -24.70205  -1.10824  -0.40937  -0.40937  -0.34431
  Beta virt. eigenvalues --   -0.24285  -0.10653   0.26123   0.33375   0.94267
  Beta virt. eigenvalues --    0.94267   0.98576   1.09243   1.23291   1.23291
  Beta virt. eigenvalues --    1.23820   1.39195   1.39195   1.45127   2.14007

 Mulliken charges and spin densities:
               1          2
     1  H    0.040902  -0.864119
     2  H    0.015416   0.927844
     3  F   -0.056318   0.936275
 Sum of Mulliken charges =  -0.00000   1.00000

 Dipole moment (field-independent basis, Debye):
    X=             -0.9548    Y=              0.0000    Z=              0.0000  Tot=              0.9548
 Quadrupole moment (field-independent basis, Debye-Ang):
   XX=             -8.0678   YY=             -7.6663   ZZ=             -7.6663
   XY=             -0.0000   XZ=             -0.0000   YZ=              0.0000

  Exact polarizability:      54.436      -0.000       2.007      -0.000      -0.000       2.007
 Approx polarizability:      52.149      -0.000       1.921      -0.000       0.000       1.921

 ******    2 imaginary frequencies (negative Signs) ******

                      1                      2                      3
                      A                      A                      A
 Frequencies --  -1062.3701              -309.9457               412.8937
 Red. masses --      1.0091                 1.1070                 1.0155
 Frc consts  --      0.6710                 0.0627                 0.1020
 IR Inten    --     35.5759                36.4881                 1.0732

                      4
                      A
 Frequencies --    412.8938
 Red. masses --      1.0155
 Frc consts  --      0.1020
 IR Inten    --      1.0732

 - Thermochemistry -
 -------------------
 Temperature   298.150 Kelvin.  Pressure   1.00000 Atm.
 Atom     1 has atomic number  1 and mass   1.00783

 Molecular mass:    21.01405 amu.
 Principal axes and moments of inertia in atomic units:
                           1         2         3
     Eigenvalues --     0.00000 105.16834 105.16834
           X            1.00000  -0.00000   0.00000
           Y            0.00000   1.00000   0.00000
           Z            0.00000   0.00000   1.00000
 This molecule is a prolate symmetric top.
 Rotational symmetry number  1.
 Rotational temperature (Kelvin)      0.82357
 Rotational constant (GHZ):          17.160498
    2 imaginary frequencies ignored.
 Zero-point vibrational energy       4939.3 (Joules/Mol)
                                    1.18052 (Kcal/Mol)
 Warning -- explicit consideration of   2 degrees of freedom as
           vibrations may cause significant error
 Vibrational temperatures:    594.06   594.06
          (Kelvin)

 Zero-point correction=                           0.001881 (Hartree/Particle)
 Thermal correction to Energy=                    0.004836
 Thermal correction to Enthalpy=                  0.005780
 Thermal correction to Gibbs Free Energy=        -0.018914
 Sum of electronic and zero-point Energies=           -100.770056
 Sum of electronic and thermal Energies=              -100.767102
 Sum of electronic and thermal Enthalpies=            -100.766158
 Sum of electronic and thermal Free Energies=         -100.790852

                     E (Thermal)             CV                S
                      KCal/Mol        Cal/Mol-Kelvin    Cal/Mol-Kelvin
 Total                    3.035              7.852             51.974
 Electronic               0.000              0.000              1.377
 Translational            0.889              2.981             35.068
 Rotational               0.592              1.987             13.695
 Vibrational              1.553              2.884              1.833
 Vibration     1          0.777              1.442              0.916
 Vibration     2          0.777              1.442              0.916

 Normal termination of Gaussian 16 at Fri Aug 22 18:33:50 2025.
