 Gaussian 16, Revision C.01,
 Gaussian 16:  ES64L-G16RevC.01  3-Jul-2019

 -----------------------------------------
 # sp b3lyp/6-311g** Force nosymm scf=(qc)
 -----------------------------------------

 -------------------
 Title Card Required
 -------------------
 Symbolic Z-matrix:
 Charge =  0 Multiplicity = 2

                          Input orientation:
 ---------------------------------------------------------------------
 Center     Atomic      Atomic             Coordinates (Angstroms)
 Number     Number       Type             X           Y           Z
 ---------------------------------------------------------------------
      1          1           0        0.000000    0.000000    0.000000
      2          1           0       -3.400000    0.000000    0.000000
      3          9           0        1.200000    0.000000    0.000000
 ---------------------------------------------------------------------

 SCF Done:  E(UB3LYP) =  -100.925597801     a.u. after    6 cycles

 Alpha  occ. eigenvalues --  -24.64341  -1.12262  -0.47739  -0.37520  -0.37520
 Alpha  occ. eigenvalues --   -0.33939
 Alpha virt. eigenvalues --   -0.05705   0.22411   0.29426   0.93184   0.93184
 Alpha virt. eigenvalues --    1.00809   1.23525   1.23578   1.23578   1.26453
 Alpha virt. eigenvalues --    1.34632   1.34632   1.72883   2.13919   2.28538

  Beta  occ. eigenvalues --  -24.64336  -1.12249  -0.47723  -0.37515  -0.37515
  Beta virt. eigenvalues --   -0.07954  -0.04153   0.26968   0.38545   0.93184
  Beta virt. eigenvalues --    0.93184   1.00823   1.26376   1.34620   1.34620
  Beta virt. eigenvalues --    1.47241   1.47241   1.47461   1.72924   2.28301

 Mulliken charges and spin densities:
               1          2
     1  H    0.352686   0.000096
     2  H    0.001577   0.998228
     3  F   -0.354263   0.001676
 Sum of Mulliken charges =   0.00000   1.00000

 Dipole moment (field-independent basis, Debye):
    X=             -2.3020    Y=             -0.0000    Z=              0.0000  Tot=              2.3020
 Quadrupole moment (field-independent basis, Debye-Ang):
   XX=             -8.8444   YY=             -7.1278   ZZ=             -7.1278
   XY=             -0.0000   XZ=              0.0000   YZ=              0.0000

  Exact polarizability:       9.760       0.000       2.325       0.000      -0.000       2.325
 Approx polarizability:      13.689      -0.000       2.280       0.000       0.000       2.280

 ******    1 imaginary frequencies (negative Signs) ******

                      1                      2                      3
                      A                      A                      A
 Frequencies --    -67.0900              1001.8515              1202.8937
 Red. masses --      1.0525                 1.0591                 1.0337
 Frc consts  --      0.0028                 0.6263                 0.8812
 IR Inten    --      0.1823                70.1096               145.4085

                      4
                      A
 Frequencies --   1202.8937
 Red. masses --      1.0337
 Frc consts  --      0.8812
 IR Inten    --    145.4085

 - Thermochemistry -
 -------------------
 Temperature   298.150 Kelvin.  Pressure   1.00000 Atm.
 Atom     1 has atomic number  1 and mass   1.00783

 Molecular mass:    21.01405 amu.
 Principal axes and moments of inertia in atomic units:
                           1         2         3
     Eigenvalues --     0.00000  75.53110  75.53110
           X            1.00000  -0.00000   0.00000
           Y            0.00000   1.00000   0.00000
           Z            0.00000   0.00000   1.00000
 This molecule is a prolate symmetric top.
 Rotational symmetry number  1.
 Rotational temperature (Kelvin)      1.14673
 Rotational constant (GHZ):          23.894016
    1 imaginary frequencies ignored.
 Zero-point vibrational energy      20382.2 (Joules/Mol)
                                    4.87146 (Kcal/Mol)
 Vibrational temperatures:   1441.44  1730.70  1730.70
          (Kelvin)

 Zero-point correction=                           0.007763 (Hartree/Particle)
 Thermal correction to Energy=                    0.010193
 Thermal correction to Enthalpy=                  0.011138
 Thermal correction to Gibbs Free Energy=        -0.012456
 Sum of electronic and zero-point Energies=           -100.917835
 Sum of electronic and thermal Energies=              -100.915404
 Sum of electronic and thermal Enthalpies=            -100.914460
 Sum of electronic and thermal Free Energies=         -100.938054

                     E (Thermal)             CV                S
                      KCal/Mol        Cal/Mol-Kelvin    Cal/Mol-Kelvin
 Total                    6.396              5.749             49.657
 Electronic               0.000              0.000              1.377
 Translational            0.889              2.981             35.068
 Rotational               0.592              1.987             13.037
 Vibrational              4.915              0.781              0.175

 Normal termination of Gaussian 16 at Fri Aug 22 16:11:05 2025.
