 Gaussian 16, Revision C.01,
 Gaussian 16:  ES64L-G16RevC.01  3-Jul-2019

 -----------------------------------------
 # sp b3lyp/6-311g** Force nosymm scf=(qc)
 -----------------------------------------

 -------------------
 Title Card Required
 -------------------
 Symbolic Z-matrix:
 Charge =  0 Multiplicity = 2

                          Input orientation:
 ---------------------------------------------------------------------
 Center     Atomic      Atomic             Coordinates (Angstroms)
 Number     Number       Type             X           Y           Z
 ---------------------------------------------------------------------
      1          1           0        0.000000    0.000000    0.000000
      2          1           0       -2.450000    0.000000    0.000000
      3          9           0        1.850000    0.000000    0.000000
 ---------------------------------------------------------------------

 SCF Done:  E(UB3LYP) =  -100.803118873     a.u. after   18 cycles

 Alpha  occ. eigenvalues --  -24.66819  -1.13077  -0.45735  -0.38534  -0.38534
 Alpha  occ. eigenvalues --   -0.35388
 Alpha virt. eigenvalues --   -0.14324   0.23707   0.29659   0.92215   0.95001
 Alpha virt. eigenvalues --    0.95001   1.06263   1.22266   1.22266   1.25538
 Alpha virt. eigenvalues --    1.34000   1.34000   1.67690   2.13086   2.26925

  Beta  occ. eigenvalues --  -24.64761  -1.07381  -0.38672  -0.36519  -0.36519
  Beta virt. eigenvalues --   -0.19842  -0.10022   0.24539   0.34423   0.93658
  Beta virt. eigenvalues --    0.95208   0.95208   1.08608   1.23635   1.23635
  Beta virt. eigenvalues --    1.40694   1.40694   1.42459   1.62861   2.13237

 Mulliken charges and spin densities:
               1          2
     1  H    0.216897  -0.613352
     2  H    0.022024   0.966105
     3  F   -0.238922   0.647247
 Sum of Mulliken charges =   0.00000   1.00000

 Dipole moment (field-independent basis, Debye):
    X=             -2.4239    Y=              0.0000    Z=              0.0000  Tot=              2.4239
 Quadrupole moment (field-independent basis, Debye-Ang):
   XX=             -9.4324   YY=             -7.4825   ZZ=             -7.4825
   XY=              0.0000   XZ=              0.0000   YZ=              0.0000

  Exact polarizability:      35.807      -0.000       2.088      -0.000       0.000       2.088
 Approx polarizability:      45.238      -0.000       1.983      -0.000      -0.000       1.983

 ******    2 imaginary frequencies (negative Signs) ******

                      1                      2                      3
                      A                      A                      A
 Frequencies --  -1475.7759              -406.8415               622.3764
 Red. masses --      1.0466                 1.0651                 1.0217
 Frc consts  --      1.3430                 0.1039                 0.2332
 IR Inten    --     95.7958                14.1592                38.1591

                      4
                      A
 Frequencies --    622.3764
 Red. masses --      1.0217
 Frc consts  --      0.2332
 IR Inten    --     38.1591

 - Thermochemistry -
 -------------------
 Temperature   298.150 Kelvin.  Pressure   1.00000 Atm.
 Atom     1 has atomic number  1 and mass   1.00783

 Molecular mass:    21.01405 amu.
 Principal axes and moments of inertia in atomic units:
                           1         2         3
     Eigenvalues --     0.00000  72.33485  72.33485
           X            1.00000  -0.00000   0.00000
           Y            0.00000   1.00000   0.00000
           Z            0.00000   0.00000   1.00000
 This molecule is a prolate symmetric top.
 Rotational symmetry number  1.
 Rotational temperature (Kelvin)      1.19740
 Rotational constant (GHZ):          24.949816
    2 imaginary frequencies ignored.
 Zero-point vibrational energy       7445.3 (Joules/Mol)
                                    1.77946 (Kcal/Mol)
 Vibrational temperatures:    895.46   895.46
          (Kelvin)

 Zero-point correction=                           0.002836 (Hartree/Particle)
 Thermal correction to Energy=                    0.005492
 Thermal correction to Enthalpy=                  0.006437
 Thermal correction to Gibbs Free Energy=        -0.017426
 Sum of electronic and zero-point Energies=           -100.800283
 Sum of electronic and thermal Energies=              -100.797627
 Sum of electronic and thermal Enthalpies=            -100.796682
 Sum of electronic and thermal Free Energies=         -100.820545

                     E (Thermal)             CV                S
                      KCal/Mol        Cal/Mol-Kelvin    Cal/Mol-Kelvin
 Total                    3.446              6.937             50.222
 Electronic               0.000              0.000              1.377
 Translational            0.889              2.981             35.068
 Rotational               0.592              1.987             12.951
 Vibrational              1.965              1.969              0.825

 Normal termination of Gaussian 16 at Fri Aug 22 16:47:10 2025.
