 Gaussian 16, Revision C.01,
 Gaussian 16:  ES64L-G16RevC.01  3-Jul-2019

 -----------------------------------------
 # sp b3lyp/6-311g** Force nosymm scf=(qc)
 -----------------------------------------

 -------------------
 Title Card Required
 -------------------
 Symbolic Z-matrix:
 Charge =  0 Multiplicity = 2

                          Input orientation:
 ---------------------------------------------------------------------
 Center     Atomic      Atomic             Coordinates (Angstroms)
 Number     Number       Type             X           Y           Z
 ---------------------------------------------------------------------
      1          1           0        0.000000    0.000000    0.000000
      2          1           0       -0.600000    0.000000    0.000000
      3          9           0        0.550000    0.000000    0.000000
 ---------------------------------------------------------------------

 SCF Done:  E(UB3LYP) =  -100.291135325     a.u. after    6 cycles

 Alpha  occ. eigenvalues --  -24.71057  -1.53766  -0.75469  -0.51545  -0.51545
 Alpha  occ. eigenvalues --   -0.25001
 Alpha virt. eigenvalues --    0.16467   0.20181   0.82443   0.82443   0.82617
 Alpha virt. eigenvalues --    0.96522   1.12139   1.12139   1.41618   1.53452
 Alpha virt. eigenvalues --    2.05252   2.05252   2.20133   3.63463   3.69591

  Beta  occ. eigenvalues --  -24.70271  -1.50981  -0.72970  -0.50898  -0.50898
  Beta virt. eigenvalues --   -0.06980   0.17159   0.26578   0.83668   0.83831
  Beta virt. eigenvalues --    0.83831   1.02115   1.17849   1.17849   1.44445
  Beta virt. eigenvalues --    1.57288   2.10859   2.10859   2.28269   3.69895

 Mulliken charges and spin densities:
               1          2
     1  H    0.233005  -0.113742
     2  H   -0.210219   1.067602
     3  F   -0.022787   0.046140
 Sum of Mulliken charges =   0.00000   1.00000

 Dipole moment (field-independent basis, Debye):
    X=              0.0683    Y=              0.0000    Z=              0.0000  Tot=              0.0683
 Quadrupole moment (field-independent basis, Debye-Ang):
   XX=             -7.6749   YY=             -6.4859   ZZ=             -6.4859
   XY=              0.0000   XZ=              0.0000   YZ=              0.0000

  Exact polarizability:       7.704      -0.000       2.397       0.000      -0.000       2.397
 Approx polarizability:       7.317       0.000       2.512      -0.000      -0.000       2.512

 ******    2 imaginary frequencies (negative Signs) ******

                      1                      2                      3
                      A                      A                      A
 Frequencies --  -7920.0793             -7920.0793              5336.2600
 Red. masses --      1.0190                 1.0190                 1.0632
 Frc consts  --     37.6615                37.6615                17.8373
 IR Inten    --    193.1588               193.1588               597.5571

                      4
                      A
 Frequencies --  16381.6501
 Red. masses --      1.0485
 Frc consts  --    165.7767
 IR Inten    --      3.1254

 - Thermochemistry -
 -------------------
 Temperature   298.150 Kelvin.  Pressure   1.00000 Atm.
 Atom     1 has atomic number  1 and mass   1.00783

 Molecular mass:    21.01405 amu.
 Principal axes and moments of inertia in atomic units:
                           1         2         3
     Eigenvalues --     0.00000   5.34955   5.34955
           X            1.00000  -0.00000   0.00000
           Y            0.00000   1.00000   0.00000
           Z            0.00000   0.00000   1.00000
 This molecule is a prolate symmetric top.
 Rotational symmetry number  1.
 Rotational temperature (Kelvin)     16.19087
 Rotational constant (GHZ):         337.362872
    2 imaginary frequencies ignored.
 Zero-point vibrational energy     129901.9 (Joules/Mol)
                                   31.04731 (Kcal/Mol)
 Vibrational temperatures:   7677.69 23569.54
          (Kelvin)

 Zero-point correction=                           0.049477 (Hartree/Particle)
 Thermal correction to Energy=                    0.051838
 Thermal correction to Enthalpy=                  0.052782
 Thermal correction to Gibbs Free Energy=         0.031771
 Sum of electronic and zero-point Energies=           -100.241658
 Sum of electronic and thermal Energies=              -100.239298
 Sum of electronic and thermal Enthalpies=            -100.238354
 Sum of electronic and thermal Free Energies=         -100.259365

                     E (Thermal)             CV                S
                      KCal/Mol        Cal/Mol-Kelvin    Cal/Mol-Kelvin
 Total                   32.529              4.968             44.222
 Electronic               0.000              0.000              1.377
 Translational            0.889              2.981             35.068
 Rotational               0.592              1.987              7.776
 Vibrational             31.047              0.000              0.000

 Normal termination of Gaussian 16 at Fri Aug 22 15:38:21 2025.
