 Gaussian 16, Revision C.01,
 Gaussian 16:  ES64L-G16RevC.01  3-Jul-2019

 -----------------------------------------
 # sp b3lyp/6-311g** Force nosymm scf=(qc)
 -----------------------------------------

 -------------------
 Title Card Required
 -------------------
 Symbolic Z-matrix:
 Charge =  0 Multiplicity = 2

                          Input orientation:
 ---------------------------------------------------------------------
 Center     Atomic      Atomic             Coordinates (Angstroms)
 Number     Number       Type             X           Y           Z
 ---------------------------------------------------------------------
      1          1           0        0.000000    0.000000    0.000000
      2          1           0       -1.450000    0.000000    0.000000
      3          9           0        2.400000    0.000000    0.000000
 ---------------------------------------------------------------------

 SCF Done:  E(UB3LYP) =  -100.832170232     a.u. after   19 cycles

 Alpha  occ. eigenvalues --  -24.73174  -1.19313  -0.52402  -0.43938  -0.43938
 Alpha  occ. eigenvalues --   -0.36383
 Alpha virt. eigenvalues --   -0.09993   0.23378   0.31572   0.88306   0.92638
 Alpha virt. eigenvalues --    0.92638   1.04099   1.16800   1.16800   1.16827
 Alpha virt. eigenvalues --    1.41249   1.41249   1.83863   2.21586   2.47745

  Beta  occ. eigenvalues --  -24.70252  -1.10976  -0.41021  -0.41021  -0.35869
  Beta virt. eigenvalues --   -0.24902  -0.09093   0.24393   0.31774   0.94023
  Beta virt. eigenvalues --    0.94023   0.94843   1.06890   1.17539   1.17539
  Beta virt. eigenvalues --    1.20362   1.41815   1.41815   1.84647   2.22600

 Mulliken charges and spin densities:
               1          2
     1  H    0.021956  -0.247815
     2  H    0.041220   0.324958
     3  F   -0.063176   0.922857
 Sum of Mulliken charges =  -0.00000   1.00000

 Dipole moment (field-independent basis, Debye):
    X=             -1.0485    Y=             -0.0000    Z=              0.0000  Tot=              1.0485
 Quadrupole moment (field-independent basis, Debye-Ang):
   XX=             -6.8706   YY=             -7.6296   ZZ=             -7.6296
   XY=             -0.0000   XZ=              0.0000   YZ=              0.0000

  Exact polarizability:      55.748      -0.000       2.071       0.000       0.000       2.071
 Approx polarizability:      79.629       0.000       2.052      -0.000      -0.000       2.052

 ******    2 imaginary frequencies (negative Signs) ******

                      1                      2                      3
                      A                      A                      A
 Frequencies --  -1944.9143              -310.5353              1195.2940
 Red. masses --      1.0090                 1.1071                 1.0130
 Frc consts  --      2.2488                 0.0629                 0.8527
 IR Inten    --    811.6766                25.5469                 0.0066

                      4
                      A
 Frequencies --   1195.2940
 Red. masses --      1.0130
 Frc consts  --      0.8527
 IR Inten    --      0.0066

 - Thermochemistry -
 -------------------
 Temperature   298.150 Kelvin.  Pressure   1.00000 Atm.
 Atom     1 has atomic number  1 and mass   1.00783

 Molecular mass:    21.01405 amu.
 Principal axes and moments of inertia in atomic units:
                           1         2         3
     Eigenvalues --     0.00000  67.33414  67.33414
           X            1.00000  -0.00000   0.00000
           Y            0.00000   1.00000   0.00000
           Z            0.00000   0.00000   1.00000
 This molecule is a prolate symmetric top.
 Rotational symmetry number  1.
 Rotational temperature (Kelvin)      1.28633
 Rotational constant (GHZ):          26.802768
    2 imaginary frequencies ignored.
 Zero-point vibrational energy      14298.9 (Joules/Mol)
                                    3.41752 (Kcal/Mol)
 Vibrational temperatures:   1719.76  1719.76
          (Kelvin)

 Zero-point correction=                           0.005446 (Hartree/Particle)
 Thermal correction to Energy=                    0.007841
 Thermal correction to Enthalpy=                  0.008785
 Thermal correction to Gibbs Free Energy=        -0.014658
 Sum of electronic and zero-point Energies=           -100.826724
 Sum of electronic and thermal Energies=              -100.824329
 Sum of electronic and thermal Enthalpies=            -100.823385
 Sum of electronic and thermal Free Energies=         -100.846828

                     E (Thermal)             CV                S
                      KCal/Mol        Cal/Mol-Kelvin    Cal/Mol-Kelvin
 Total                    4.920              5.384             49.339
 Electronic               0.000              0.000              1.377
 Translational            0.889              2.981             35.068
 Rotational               0.592              1.987             12.809
 Vibrational              3.439              0.416              0.084

 Normal termination of Gaussian 16 at Fri Aug 22 17:31:36 2025.
