 Gaussian 16, Revision C.01,
 Gaussian 16:  ES64L-G16RevC.01  3-Jul-2019

 -----------------------------------------
 # sp b3lyp/6-311g** Force nosymm scf=(qc)
 -----------------------------------------

 -------------------
 Title Card Required
 -------------------
 Symbolic Z-matrix:
 Charge =  0 Multiplicity = 2

                          Input orientation:
 ---------------------------------------------------------------------
 Center     Atomic      Atomic             Coordinates (Angstroms)
 Number     Number       Type             X           Y           Z
 ---------------------------------------------------------------------
      1          1           0        0.000000    0.000000    0.000000
      2          1           0       -3.050000    0.000000    0.000000
      3          9           0        3.350000    0.000000    0.000000
 ---------------------------------------------------------------------

 SCF Done:  E(UB3LYP) =  -100.760201519     a.u. after   29 cycles

 Alpha  occ. eigenvalues --  -24.75111  -1.21095  -0.54233  -0.45535  -0.45535
 Alpha  occ. eigenvalues --   -0.32491
 Alpha virt. eigenvalues --   -0.08150   0.24809   0.35795   0.88126   0.91651
 Alpha virt. eigenvalues --    0.91651   1.02271   1.25041   1.25041   1.25684
 Alpha virt. eigenvalues --    1.43714   1.43714   1.43726   2.15604   2.39667

  Beta  occ. eigenvalues --  -24.72016  -1.12204  -0.42433  -0.42433  -0.33070
  Beta virt. eigenvalues --   -0.25343  -0.07413   0.24602   0.36903   0.93134
  Beta virt. eigenvalues --    0.93134   0.97171   1.06233   1.24364   1.24364
  Beta virt. eigenvalues --    1.24964   1.44803   1.44896   1.44896   2.16023

 Mulliken charges and spin densities:
               1          2
     1  H    0.016012  -0.974917
     2  H    0.000779   0.993431
     3  F   -0.016791   0.981486
 Sum of Mulliken charges =  -0.00000   1.00000

 Dipole moment (field-independent basis, Debye):
    X=             -0.3005    Y=              0.0000    Z=             -0.0000  Tot=              0.3005
 Quadrupole moment (field-independent basis, Debye-Ang):
   XX=             -7.5584   YY=             -7.6305   ZZ=             -7.6305
   XY=             -0.0000   XZ=              0.0000   YZ=              0.0000

  Exact polarizability:      29.580      -0.000       2.028       0.000       0.000       2.028
 Approx polarizability:      24.470      -0.000       1.930       0.000      -0.000       1.930

 ******    2 imaginary frequencies (negative Signs) ******

                      1                      2                      3
                      A                      A                      A
 Frequencies --   -360.4221              -146.9514               125.5825
 Red. masses --      1.0152                 1.0997                 1.0168
 Frc consts  --      0.0777                 0.0140                 0.0094
 IR Inten    --     13.7475                 4.8820                 0.2209

                      4
                      A
 Frequencies --    125.5825
 Red. masses --      1.0168
 Frc consts  --      0.0094
 IR Inten    --      0.2209

 - Thermochemistry -
 -------------------
 Temperature   298.150 Kelvin.  Pressure   1.00000 Atm.
 Atom     1 has atomic number  1 and mass   1.00783

 Molecular mass:    21.01405 amu.
 Principal axes and moments of inertia in atomic units:
                           1         2         3
     Eigenvalues --     0.00000 171.39682 171.39682
           X            1.00000  -0.00000   0.00000
           Y            0.00000   1.00000   0.00000
           Z            0.00000   0.00000   1.00000
 This molecule is a prolate symmetric top.
 Rotational symmetry number  1.
 Rotational temperature (Kelvin)      0.50534
 Rotational constant (GHZ):          10.529607
    2 imaginary frequencies ignored.
 Zero-point vibrational energy       1502.3 (Joules/Mol)
                                    0.35906 (Kcal/Mol)
 Warning -- explicit consideration of   2 degrees of freedom as
           vibrations may cause significant error
 Vibrational temperatures:    180.69   180.69
          (Kelvin)

 Zero-point correction=                           0.000572 (Hartree/Particle)
 Thermal correction to Energy=                    0.004306
 Thermal correction to Enthalpy=                  0.005250
 Thermal correction to Gibbs Free Energy=        -0.021897
 Sum of electronic and zero-point Energies=           -100.759629
 Sum of electronic and thermal Energies=              -100.755895
 Sum of electronic and thermal Enthalpies=            -100.754951
 Sum of electronic and thermal Free Energies=         -100.782098

                     E (Thermal)             CV                S
                      KCal/Mol        Cal/Mol-Kelvin    Cal/Mol-Kelvin
 Total                    2.702              8.823             57.136
 Electronic               0.000              0.000              1.377
 Translational            0.889              2.981             35.068
 Rotational               0.592              1.987             14.666
 Vibrational              1.221              3.855              6.025
 Vibration     1          0.611              1.927              3.013
 Vibration     2          0.611              1.927              3.013

 Normal termination of Gaussian 16 at Fri Aug 22 21:02:39 2025.
