 Gaussian 16, Revision C.01,
 Gaussian 16:  ES64L-G16RevC.01  3-Jul-2019

 -----------------------------------------
 # sp b3lyp/6-311g** Force nosymm scf=(qc)
 -----------------------------------------

 -------------------
 Title Card Required
 -------------------
 Symbolic Z-matrix:
 Charge =  0 Multiplicity = 2

                          Input orientation:
 ---------------------------------------------------------------------
 Center     Atomic      Atomic             Coordinates (Angstroms)
 Number     Number       Type             X           Y           Z
 ---------------------------------------------------------------------
      1          1           0        0.000000    0.000000    0.000000
      2          1           0       -2.500000    0.000000    0.000000
      3          9           0        3.850000    0.000000    0.000000
 ---------------------------------------------------------------------

 SCF Done:  E(UB3LYP) =  -100.762572558     a.u. after   34 cycles

 Alpha  occ. eigenvalues --  -24.75832  -1.21763  -0.54957  -0.46145  -0.46145
 Alpha  occ. eigenvalues --   -0.32550
 Alpha virt. eigenvalues --   -0.09235   0.25781   0.34730   0.86753   0.91196
 Alpha virt. eigenvalues --    0.91196   1.01178   1.25102   1.25102   1.26626
 Alpha virt. eigenvalues --    1.41740   1.41740   1.43344   2.15867   2.36780

  Beta  occ. eigenvalues --  -24.72691  -1.12732  -0.42995  -0.42995  -0.32709
  Beta virt. eigenvalues --   -0.25720  -0.08992   0.25612   0.35067   0.92694
  Beta virt. eigenvalues --    0.92694   0.96099   1.05294   1.24925   1.24925
  Beta virt. eigenvalues --    1.26425   1.42092   1.42092   1.43690   2.16026

 Mulliken charges and spin densities:
               1          2
     1  H    0.002431  -0.965553
     2  H    0.001141   0.969616
     3  F   -0.003572   0.995936
 Sum of Mulliken charges =   0.00000   1.00000

 Dipole moment (field-independent basis, Debye):
    X=             -0.0843    Y=              0.0000    Z=             -0.0000  Tot=              0.0843
 Quadrupole moment (field-independent basis, Debye-Ang):
   XX=             -6.7595   YY=             -7.6671   ZZ=             -7.6671
   XY=              0.0000   XZ=             -0.0000   YZ=              0.0000

  Exact polarizability:      22.512       0.000       2.020      -0.000      -0.000       2.020
 Approx polarizability:      16.963       0.000       1.931      -0.000       0.000       1.931

 ******    2 imaginary frequencies (negative Signs) ******

                      1                      2                      3
                      A                      A                      A
 Frequencies --   -661.3298               -87.7289               244.9309
 Red. masses --      1.0079                 1.1085                 1.0136
 Frc consts  --      0.2597                 0.0050                 0.0358
 IR Inten    --      1.1771                 1.3618                 0.0037

                      4
                      A
 Frequencies --    244.9309
 Red. masses --      1.0136
 Frc consts  --      0.0358
 IR Inten    --      0.0037

 - Thermochemistry -
 -------------------
 Temperature   298.150 Kelvin.  Pressure   1.00000 Atm.
 Atom     1 has atomic number  1 and mass   1.00783

 Molecular mass:    21.01405 amu.
 Principal axes and moments of inertia in atomic units:
                           1         2         3
     Eigenvalues --     0.00000 180.50930 180.50930
           X            1.00000  -0.00000   0.00000
           Y            0.00000   1.00000   0.00000
           Z            0.00000   0.00000   1.00000
 This molecule is a prolate symmetric top.
 Rotational symmetry number  1.
 Rotational temperature (Kelvin)      0.47983
 Rotational constant (GHZ):           9.998051
    2 imaginary frequencies ignored.
 Zero-point vibrational energy       2930.0 (Joules/Mol)
                                    0.70029 (Kcal/Mol)
 Warning -- explicit consideration of   2 degrees of freedom as
           vibrations may cause significant error
 Vibrational temperatures:    352.40   352.40
          (Kelvin)

 Zero-point correction=                           0.001116 (Hartree/Particle)
 Thermal correction to Energy=                    0.004464
 Thermal correction to Enthalpy=                  0.005408
 Thermal correction to Gibbs Free Energy=        -0.020605
 Sum of electronic and zero-point Energies=           -100.761457
 Sum of electronic and thermal Energies=              -100.758109
 Sum of electronic and thermal Enthalpies=            -100.757165
 Sum of electronic and thermal Free Energies=         -100.783177

                     E (Thermal)             CV                S
                      KCal/Mol        Cal/Mol-Kelvin    Cal/Mol-Kelvin
 Total                    2.801              8.510             54.748
 Electronic               0.000              0.000              1.377
 Translational            0.889              2.981             35.068
 Rotational               0.592              1.987             14.769
 Vibrational              1.320              3.542              3.534
 Vibration     1          0.660              1.771              1.767
 Vibration     2          0.660              1.771              1.767

 Normal termination of Gaussian 16 at Sat Aug 23 01:09:03 2025.
