 Gaussian 16, Revision C.01,
 Gaussian 16:  ES64L-G16RevC.01  3-Jul-2019

 -----------------------------------------
 # sp b3lyp/6-311g** Force nosymm scf=(qc)
 -----------------------------------------

 -------------------
 Title Card Required
 -------------------
 Symbolic Z-matrix:
 Charge =  0 Multiplicity = 2

                          Input orientation:
 ---------------------------------------------------------------------
 Center     Atomic      Atomic             Coordinates (Angstroms)
 Number     Number       Type             X           Y           Z
 ---------------------------------------------------------------------
      1          1           0        0.000000    0.000000    0.000000
      2          1           0       -2.500000    0.000000    0.000000
      3          9           0        3.000000    0.000000    0.000000
 ---------------------------------------------------------------------

 SCF Done:  E(UB3LYP) =  -100.764842621     a.u. after   22 cycles

 Alpha  occ. eigenvalues --  -24.74156  -1.20207  -0.53273  -0.44731  -0.44731
 Alpha  occ. eigenvalues --   -0.33074
 Alpha virt. eigenvalues --   -0.10447   0.25363   0.33586   0.89533   0.92236
 Alpha virt. eigenvalues --    0.92236   1.03950   1.24578   1.24578   1.26454
 Alpha virt. eigenvalues --    1.39958   1.39958   1.41751   2.15361   2.36483

  Beta  occ. eigenvalues --  -24.71125  -1.11521  -0.41697  -0.41697  -0.33800
  Beta virt. eigenvalues --   -0.24831  -0.09256   0.25522   0.34854   0.93698
  Beta virt. eigenvalues --    0.93698   0.98301   1.07850   1.23704   1.23704
  Beta virt. eigenvalues --    1.25426   1.41886   1.41886   1.43565   2.16324

 Mulliken charges and spin densities:
               1          2
     1  H    0.030065  -0.930790
     2  H    0.005610   0.970534
     3  F   -0.035674   0.960257
 Sum of Mulliken charges =  -0.00000   1.00000

 Dipole moment (field-independent basis, Debye):
    X=             -0.6161    Y=             -0.0000    Z=             -0.0000  Tot=              0.6161
 Quadrupole moment (field-independent basis, Debye-Ang):
   XX=             -7.9332   YY=             -7.6520   ZZ=             -7.6520
   XY=             -0.0000   XZ=             -0.0000   YZ=              0.0000

  Exact polarizability:      43.874      -0.000       2.014      -0.000      -0.000       2.014
 Approx polarizability:      39.433      -0.000       1.922      -0.000       0.000       1.922

 ******    2 imaginary frequencies (negative Signs) ******

                      1                      2                      3
                      A                      A                      A
 Frequencies --   -704.5778              -235.3474               264.0257
 Red. masses --      1.0100                 1.1059                 1.0159
 Frc consts  --      0.2954                 0.0361                 0.0417
 IR Inten    --     22.9750                19.2185                 0.6983

                      4
                      A
 Frequencies --    264.0257
 Red. masses --      1.0159
 Frc consts  --      0.0417
 IR Inten    --      0.6983

 - Thermochemistry -
 -------------------
 Temperature   298.150 Kelvin.  Pressure   1.00000 Atm.
 Atom     1 has atomic number  1 and mass   1.00783

 Molecular mass:    21.01405 amu.
 Principal axes and moments of inertia in atomic units:
                           1         2         3
     Eigenvalues --     0.00000 128.79024 128.79024
           X            1.00000  -0.00000   0.00000
           Y            0.00000   1.00000   0.00000
           Z            0.00000   0.00000   1.00000
 This molecule is a prolate symmetric top.
 Rotational symmetry number  1.
 Rotational temperature (Kelvin)      0.67252
 Rotational constant (GHZ):          14.013028
    2 imaginary frequencies ignored.
 Zero-point vibrational energy       3158.4 (Joules/Mol)
                                    0.75489 (Kcal/Mol)
 Warning -- explicit consideration of   2 degrees of freedom as
           vibrations may cause significant error
 Vibrational temperatures:    379.87   379.87
          (Kelvin)

 Zero-point correction=                           0.001203 (Hartree/Particle)
 Thermal correction to Energy=                    0.004498
 Thermal correction to Enthalpy=                  0.005442
 Thermal correction to Gibbs Free Energy=        -0.020127
 Sum of electronic and zero-point Energies=           -100.763640
 Sum of electronic and thermal Energies=              -100.760345
 Sum of electronic and thermal Enthalpies=            -100.759401
 Sum of electronic and thermal Free Energies=         -100.784969

                     E (Thermal)             CV                S
                      KCal/Mol        Cal/Mol-Kelvin    Cal/Mol-Kelvin
 Total                    2.822              8.446             53.813
 Electronic               0.000              0.000              1.377
 Translational            0.889              2.981             35.068
 Rotational               0.592              1.987             14.098
 Vibrational              1.341              3.478              3.270
 Vibration     1          0.671              1.739              1.635
 Vibration     2          0.671              1.739              1.635

 Normal termination of Gaussian 16 at Fri Aug 22 19:32:04 2025.
