 Gaussian 16, Revision C.01,
 Gaussian 16:  ES64L-G16RevC.01  3-Jul-2019

 -----------------------------------------
 # sp b3lyp/6-311g** Force nosymm scf=(qc)
 -----------------------------------------

 -------------------
 Title Card Required
 -------------------
 Symbolic Z-matrix:
 Charge =  0 Multiplicity = 2

                          Input orientation:
 ---------------------------------------------------------------------
 Center     Atomic      Atomic             Coordinates (Angstroms)
 Number     Number       Type             X           Y           Z
 ---------------------------------------------------------------------
      1          1           0        0.000000    0.000000    0.000000
      2          1           0       -0.850000    0.000000    0.000000
      3          9           0        2.600000    0.000000    0.000000
 ---------------------------------------------------------------------

 SCF Done:  E(UB3LYP) =  -100.927777193     a.u. after    5 cycles

 Alpha  occ. eigenvalues --  -24.76032  -1.21937  -0.55216  -0.46315  -0.46315
 Alpha  occ. eigenvalues --   -0.41924
 Alpha virt. eigenvalues --    0.03736   0.20414   0.43779   0.89876   0.90999
 Alpha virt. eigenvalues --    0.90999   1.07561   1.07561   1.10065   1.48280
 Alpha virt. eigenvalues --    1.74896   1.74896   2.12643   2.38433   2.86772

  Beta  occ. eigenvalues --  -24.72907  -1.12958  -0.43184  -0.43184  -0.41883
  Beta virt. eigenvalues --   -0.26182   0.04131   0.20666   0.44132   0.92479
  Beta virt. eigenvalues --    0.92479   0.98320   1.07683   1.07683   1.14483
  Beta virt. eigenvalues --    1.48425   1.74978   1.74978   2.12768   2.38573

 Mulliken charges and spin densities:
               1          2
     1  H   -0.012890  -0.008278
     2  H    0.016031   0.019578
     3  F   -0.003141   0.988701
 Sum of Mulliken charges =   0.00000   1.00000

 Dipole moment (field-independent basis, Debye):
    X=             -0.1150    Y=              0.0000    Z=             -0.0000  Tot=              0.1150
 Quadrupole moment (field-independent basis, Debye-Ang):
   XX=             -5.6019   YY=             -7.0804   ZZ=             -7.0804
   XY=              0.0000   XZ=             -0.0000   YZ=             -0.0000

  Exact polarizability:      14.569       0.000       2.025      -0.000      -0.000       2.025
 Approx polarizability:      16.195       0.000       2.094      -0.000      -0.000       2.094

 ******    1 imaginary frequencies (negative Signs) ******

                      1                      2                      3
                      A                      A                      A
 Frequencies --   -125.3182              1305.4058              1305.4058
 Red. masses --      1.1085                 1.0098                 1.0098
 Frc consts  --      0.0103                 1.0138                 1.0138
 IR Inten    --      2.7958                 0.2367                 0.2367

                      4
                      A
 Frequencies --   3114.2895
 Red. masses --      1.0078
 Frc consts  --      5.7591
 IR Inten    --     30.6570

 - Thermochemistry -
 -------------------
 Temperature   298.150 Kelvin.  Pressure   1.00000 Atm.
 Atom     1 has atomic number  1 and mass   1.00783

 Molecular mass:    21.01405 amu.
 Principal axes and moments of inertia in atomic units:
                           1         2         3
     Eigenvalues --     0.00000  60.84865  60.84865
           X            1.00000  -0.00000   0.00000
           Y            0.00000   1.00000   0.00000
           Z            0.00000   0.00000   1.00000
 This molecule is a prolate symmetric top.
 Rotational symmetry number  1.
 Rotational temperature (Kelvin)      1.42343
 Rotational constant (GHZ):          29.659510
    1 imaginary frequencies ignored.
 Zero-point vibrational energy      34243.7 (Joules/Mol)
                                    8.18444 (Kcal/Mol)
 Vibrational temperatures:   1878.19  1878.19  4480.77
          (Kelvin)

 Zero-point correction=                           0.013043 (Hartree/Particle)
 Thermal correction to Energy=                    0.015425
 Thermal correction to Enthalpy=                  0.016369
 Thermal correction to Gibbs Free Energy=        -0.006963
 Sum of electronic and zero-point Energies=           -100.914734
 Sum of electronic and thermal Energies=              -100.912352
 Sum of electronic and thermal Enthalpies=            -100.911408
 Sum of electronic and thermal Free Energies=         -100.934740

                     E (Thermal)             CV                S
                      KCal/Mol        Cal/Mol-Kelvin    Cal/Mol-Kelvin
 Total                    9.679              5.259             49.107
 Electronic               0.000              0.000              1.377
 Translational            0.889              2.981             35.068
 Rotational               0.592              1.987             12.608
 Vibrational              8.198              0.291              0.053

 Normal termination of Gaussian 16 at Fri Aug 22 18:00:04 2025.
