 Gaussian 16, Revision C.01,
 Gaussian 16:  ES64L-G16RevC.01  3-Jul-2019

 -----------------------------------------
 # sp b3lyp/6-311g** Force nosymm scf=(qc)
 -----------------------------------------

 -------------------
 Title Card Required
 -------------------
 Symbolic Z-matrix:
 Charge =  0 Multiplicity = 2

                          Input orientation:
 ---------------------------------------------------------------------
 Center     Atomic      Atomic             Coordinates (Angstroms)
 Number     Number       Type             X           Y           Z
 ---------------------------------------------------------------------
      1          1           0        0.000000    0.000000    0.000000
      2          1           0       -2.450000    0.000000    0.000000
      3          9           0        1.650000    0.000000    0.000000
 ---------------------------------------------------------------------

 SCF Done:  E(UB3LYP) =  -100.828106570     a.u. after   15 cycles

 Alpha  occ. eigenvalues --  -24.65063  -1.11020  -0.43884  -0.36994  -0.36994
 Alpha  occ. eigenvalues --   -0.35836
 Alpha virt. eigenvalues --   -0.14412   0.23300   0.27919   0.94608   0.94608
 Alpha virt. eigenvalues --    0.98831   1.07094   1.21752   1.21752   1.24974
 Alpha virt. eigenvalues --    1.33064   1.33064   1.74695   2.12624   2.23272

  Beta  occ. eigenvalues --  -24.63778  -1.07541  -0.40396  -0.35754  -0.35754
  Beta virt. eigenvalues --   -0.18256  -0.09421   0.24345   0.34627   0.94328
  Beta virt. eigenvalues --    0.94328   1.00177   1.08198   1.26784   1.26784
  Beta virt. eigenvalues --    1.40921   1.40921   1.42582   1.72078   2.14007

 Mulliken charges and spin densities:
               1          2
     1  H    0.288036  -0.374165
     2  H    0.023205   0.969246
     3  F   -0.311241   0.404920
 Sum of Mulliken charges =   0.00000   1.00000

 Dipole moment (field-independent basis, Debye):
    X=             -2.7754    Y=              0.0000    Z=              0.0000  Tot=              2.7754
 Quadrupole moment (field-independent basis, Debye-Ang):
   XX=             -9.4574   YY=             -7.4053   ZZ=             -7.4053
   XY=              0.0000   XZ=              0.0000   YZ=             -0.0000

  Exact polarizability:      30.407       0.000       2.144       0.000       0.000       2.144
 Approx polarizability:      42.386      -0.000       2.053      -0.000       0.000       2.053

 ******    2 imaginary frequencies (negative Signs) ******

                      1                      2                      3
                      A                      A                      A
 Frequencies --  -1859.3832              -355.3737               825.8987
 Red. masses --      1.0504                 1.0612                 1.0234
 Frc consts  --      2.1396                 0.0790                 0.4113
 IR Inten    --     49.2493                 9.5536                68.8576

                      4
                      A
 Frequencies --    825.8987
 Red. masses --      1.0234
 Frc consts  --      0.4113
 IR Inten    --     68.8576

 - Thermochemistry -
 -------------------
 Temperature   298.150 Kelvin.  Pressure   1.00000 Atm.
 Atom     1 has atomic number  1 and mass   1.00783

 Molecular mass:    21.01405 amu.
 Principal axes and moments of inertia in atomic units:
                           1         2         3
     Eigenvalues --     0.00000  64.59082  64.59082
           X            1.00000  -0.00000   0.00000
           Y            0.00000   1.00000   0.00000
           Z            0.00000   0.00000   1.00000
 This molecule is a prolate symmetric top.
 Rotational symmetry number  1.
 Rotational temperature (Kelvin)      1.34096
 Rotational constant (GHZ):          27.941142
    2 imaginary frequencies ignored.
 Zero-point vibrational energy       9879.9 (Joules/Mol)
                                    2.36136 (Kcal/Mol)
 Vibrational temperatures:   1188.28  1188.28
          (Kelvin)

 Zero-point correction=                           0.003763 (Hartree/Particle)
 Thermal correction to Energy=                    0.006266
 Thermal correction to Enthalpy=                  0.007210
 Thermal correction to Gibbs Free Energy=        -0.016331
 Sum of electronic and zero-point Energies=           -100.824343
 Sum of electronic and thermal Energies=              -100.821841
 Sum of electronic and thermal Enthalpies=            -100.820896
 Sum of electronic and thermal Free Energies=         -100.844437

                     E (Thermal)             CV                S
                      KCal/Mol        Cal/Mol-Kelvin    Cal/Mol-Kelvin
 Total                    3.932              6.186             49.546
 Electronic               0.000              0.000              1.377
 Translational            0.889              2.981             35.068
 Rotational               0.592              1.987             12.726
 Vibrational              2.451              1.218              0.374

 Normal termination of Gaussian 16 at Fri Aug 22 16:34:43 2025.
