 Gaussian 16, Revision C.01,
 Gaussian 16:  ES64L-G16RevC.01  3-Jul-2019

 -----------------------------------------
 # sp b3lyp/6-311g** Force nosymm scf=(qc)
 -----------------------------------------

 -------------------
 Title Card Required
 -------------------
 Symbolic Z-matrix:
 Charge =  0 Multiplicity = 2

                          Input orientation:
 ---------------------------------------------------------------------
 Center     Atomic      Atomic             Coordinates (Angstroms)
 Number     Number       Type             X           Y           Z
 ---------------------------------------------------------------------
      1          1           0        0.000000    0.000000    0.000000
      2          1           0       -1.600000    0.000000    0.000000
      3          9           0        1.100000    0.000000    0.000000
 ---------------------------------------------------------------------

 SCF Done:  E(UB3LYP) =  -100.951553506     a.u. after    6 cycles

 Alpha  occ. eigenvalues --  -24.63472  -1.13435  -0.50570  -0.37481  -0.37481
 Alpha  occ. eigenvalues --   -0.37291
 Alpha virt. eigenvalues --    0.03511   0.21511   0.30999   0.93987   0.93987
 Alpha virt. eigenvalues --    1.00061   1.11139   1.17091   1.17091   1.39160
 Alpha virt. eigenvalues --    1.39160   1.52633   1.89062   2.29186   2.35603

  Beta  occ. eigenvalues --  -24.63166  -1.12670  -0.48651  -0.37206  -0.37206
  Beta virt. eigenvalues --   -0.16488   0.06488   0.26893   0.34244   0.94094
  Beta virt. eigenvalues --    0.94094   1.00783   1.19824   1.28425   1.28425
  Beta virt. eigenvalues --    1.43823   1.43823   1.55588   1.98171   2.33334

 Mulliken charges and spin densities:
               1          2
     1  H    0.308275  -0.011333
     2  H    0.039264   0.925010
     3  F   -0.347539   0.086323
 Sum of Mulliken charges =   0.00000   1.00000

 Dipole moment (field-independent basis, Debye):
    X=             -2.5076    Y=              0.0000    Z=             -0.0000  Tot=              2.5076
 Quadrupole moment (field-independent basis, Debye-Ang):
   XX=             -7.8415   YY=             -6.9377   ZZ=             -6.9377
   XY=              0.0000   XZ=             -0.0000   YZ=             -0.0000

  Exact polarizability:      15.311      -0.000       2.468      -0.000      -0.000       2.468
 Approx polarizability:      17.693       0.000       2.450       0.000      -0.000       2.450

 ******    1 imaginary frequencies (negative Signs) ******

                      1                      2                      3
                      A                      A                      A
 Frequencies --   -467.9209              1093.9574              1093.9574
 Red. masses --      1.0317                 1.0231                 1.0231
 Frc consts  --      0.1331                 0.7214                 0.7214
 IR Inten    --     15.7601                93.2337                93.2337

                      4
                      A
 Frequencies --   1590.5499
 Red. masses --      1.0810
 Frc consts  --      1.6112
 IR Inten    --    191.1315

 - Thermochemistry -
 -------------------
 Temperature   298.150 Kelvin.  Pressure   1.00000 Atm.
 Atom     1 has atomic number  1 and mass   1.00783

 Molecular mass:    21.01405 amu.
 Principal axes and moments of inertia in atomic units:
                           1         2         3
     Eigenvalues --     0.00000  28.09913  28.09913
           X            1.00000  -0.00000   0.00000
           Y            0.00000   1.00000   0.00000
           Z            0.00000   0.00000   1.00000
 This molecule is a prolate symmetric top.
 Rotational symmetry number  1.
 Rotational temperature (Kelvin)      3.08244
 Rotational constant (GHZ):          64.227657
    1 imaginary frequencies ignored.
 Zero-point vibrational energy      22600.2 (Joules/Mol)
                                    5.40159 (Kcal/Mol)
 Vibrational temperatures:   1573.96  1573.96  2288.45
          (Kelvin)

 Zero-point correction=                           0.008608 (Hartree/Particle)
 Thermal correction to Energy=                    0.011023
 Thermal correction to Enthalpy=                  0.011967
 Thermal correction to Gibbs Free Energy=        -0.010675
 Sum of electronic and zero-point Energies=           -100.942946
 Sum of electronic and thermal Energies=              -100.940531
 Sum of electronic and thermal Enthalpies=            -100.939586
 Sum of electronic and thermal Free Energies=         -100.962228

                     E (Thermal)             CV                S
                      KCal/Mol        Cal/Mol-Kelvin    Cal/Mol-Kelvin
 Total                    6.917              5.593             47.654
 Electronic               0.000              0.000              1.377
 Translational            0.889              2.981             35.068
 Rotational               0.592              1.987             11.072
 Vibrational              5.436              0.625              0.136

 Normal termination of Gaussian 16 at Fri Aug 22 16:05:03 2025.
