 Gaussian 16, Revision C.01,
 Gaussian 16:  ES64L-G16RevC.01  3-Jul-2019

 -----------------------------------------
 # sp b3lyp/6-311g** Force nosymm scf=(qc)
 -----------------------------------------

 -------------------
 Title Card Required
 -------------------
 Symbolic Z-matrix:
 Charge =  0 Multiplicity = 2

                          Input orientation:
 ---------------------------------------------------------------------
 Center     Atomic      Atomic             Coordinates (Angstroms)
 Number     Number       Type             X           Y           Z
 ---------------------------------------------------------------------
      1          1           0        0.000000    0.000000    0.000000
      2          1           0       -2.000000    0.000000    0.000000
      3          9           0        3.350000    0.000000    0.000000
 ---------------------------------------------------------------------

 SCF Done:  E(UB3LYP) =  -100.774894841     a.u. after   32 cycles

 Alpha  occ. eigenvalues --  -24.75330  -1.21297  -0.54452  -0.45723  -0.45723
 Alpha  occ. eigenvalues --   -0.33237
 Alpha virt. eigenvalues --   -0.11180   0.25784   0.32074   0.88150   0.91503
 Alpha virt. eigenvalues --    0.91503   1.02191   1.16981   1.24736   1.24736
 Alpha virt. eigenvalues --    1.37611   1.37611   1.50993   2.12989   2.36642

  Beta  occ. eigenvalues --  -24.72226  -1.12378  -0.42611  -0.42611  -0.33328
  Beta virt. eigenvalues --   -0.25509  -0.10850   0.25765   0.32597   0.92989
  Beta virt. eigenvalues --    0.92989   0.97225   1.06204   1.16950   1.24608
  Beta virt. eigenvalues --    1.24608   1.38083   1.38083   1.51350   2.13757

 Mulliken charges and spin densities:
               1          2
     1  H    0.005572  -0.842800
     2  H    0.008006   0.858452
     3  F   -0.013578   0.984348
 Sum of Mulliken charges =   0.00000   1.00000

 Dipole moment (field-independent basis, Debye):
    X=             -0.3091    Y=              0.0000    Z=             -0.0000  Tot=              0.3091
 Quadrupole moment (field-independent basis, Debye-Ang):
   XX=             -6.7828   YY=             -7.7236   ZZ=             -7.7236
   XY=             -0.0000   XZ=             -0.0000   YZ=              0.0000

  Exact polarizability:      48.953      -0.000       2.014      -0.000      -0.000       2.014
 Approx polarizability:      42.503      -0.000       1.936      -0.000       0.000       1.936

 ******    2 imaginary frequencies (negative Signs) ******

                      1                      2                      3
                      A                      A                      A
 Frequencies --  -1358.1679              -162.0309               551.2841
 Red. masses --      1.0079                 1.1085                 1.0129
 Frc consts  --      1.0954                 0.0171                 0.1814
 IR Inten    --     17.1048                11.6573                 0.0044

                      4
                      A
 Frequencies --    551.2841
 Red. masses --      1.0129
 Frc consts  --      0.1814
 IR Inten    --      0.0044

 - Thermochemistry -
 -------------------
 Temperature   298.150 Kelvin.  Pressure   1.00000 Atm.
 Atom     1 has atomic number  1 and mass   1.00783

 Molecular mass:    21.01405 amu.
 Principal axes and moments of inertia in atomic units:
                           1         2         3
     Eigenvalues --     0.00000 130.33788 130.33788
           X            1.00000  -0.00000   0.00000
           Y            0.00000   1.00000   0.00000
           Z            0.00000   0.00000   1.00000
 This molecule is a prolate symmetric top.
 Rotational symmetry number  1.
 Rotational temperature (Kelvin)      0.66453
 Rotational constant (GHZ):          13.846636
    2 imaginary frequencies ignored.
 Zero-point vibrational energy       6594.8 (Joules/Mol)
                                    1.57620 (Kcal/Mol)
 Warning -- explicit consideration of   2 degrees of freedom as
           vibrations may cause significant error
 Vibrational temperatures:    793.17   793.17
          (Kelvin)

 Zero-point correction=                           0.002512 (Hartree/Particle)
 Thermal correction to Energy=                    0.005250
 Thermal correction to Enthalpy=                  0.006194
 Thermal correction to Gibbs Free Energy=        -0.018346
 Sum of electronic and zero-point Energies=           -100.772383
 Sum of electronic and thermal Energies=              -100.769645
 Sum of electronic and thermal Enthalpies=            -100.768701
 Sum of electronic and thermal Free Energies=         -100.793241

                     E (Thermal)             CV                S
                      KCal/Mol        Cal/Mol-Kelvin    Cal/Mol-Kelvin
 Total                    3.294              7.242             51.650
 Electronic               0.000              0.000              1.377
 Translational            0.889              2.981             35.068
 Rotational               0.592              1.987             14.122
 Vibrational              1.813              2.274              1.083
 Vibration     1          0.907              1.137              0.542
 Vibration     2          0.907              1.137              0.542

 Normal termination of Gaussian 16 at Fri Aug 22 21:01:13 2025.
