 Gaussian 16, Revision C.01,
 Gaussian 16:  ES64L-G16RevC.01  3-Jul-2019

 -----------------------------------------
 # sp b3lyp/6-311g** Force nosymm scf=(qc)
 -----------------------------------------

 -------------------
 Title Card Required
 -------------------
 Symbolic Z-matrix:
 Charge =  0 Multiplicity = 2

                          Input orientation:
 ---------------------------------------------------------------------
 Center     Atomic      Atomic             Coordinates (Angstroms)
 Number     Number       Type             X           Y           Z
 ---------------------------------------------------------------------
      1          1           0        0.000000    0.000000    0.000000
      2          1           0       -1.250000    0.000000    0.000000
      3          9           0        2.800000    0.000000    0.000000
 ---------------------------------------------------------------------

 SCF Done:  E(UB3LYP) =  -100.863387603     a.u. after   91 cycles

 Alpha  occ. eigenvalues --  -24.76874  -1.22674  -0.55855  -0.47155  -0.47003
 Alpha  occ. eigenvalues --   -0.35547
 Alpha virt. eigenvalues --   -0.04768   0.23512   0.34156   0.85628   0.90499
 Alpha virt. eigenvalues --    0.93269   1.05574   1.14309   1.14318   1.19141
 Alpha virt. eigenvalues --    1.52064   1.52074   2.04018   2.30961   2.55156

  Beta  occ. eigenvalues --  -24.73711  -1.13584  -0.44002  -0.43832  -0.35524
  Beta virt. eigenvalues --   -0.26472  -0.04743   0.23537   0.34248   0.91997
  Beta virt. eigenvalues --    0.95034   0.95082   1.09334   1.14308   1.14316
  Beta virt. eigenvalues --    1.19155   1.52062   1.52072   2.04025   2.30962

 Mulliken charges and spin densities:
               1          2
     1  H   -0.001394   0.000100
     2  H   -0.009042  -0.001567
     3  F    0.010435   1.001467
 Sum of Mulliken charges =   0.00000   1.00000

 Dipole moment (field-independent basis, Debye):
    X=              0.1444    Y=              0.0000    Z=             -0.0000  Tot=              0.1444
 Quadrupole moment (field-independent basis, Debye-Ang):
   XX=             -6.1170   YY=             -6.7098   ZZ=             -7.5362
   XY=              0.0000   XZ=             -0.0000   YZ=             -0.1249

  Exact polarizability:      17.848      -0.000       2.542       0.000      -0.068       2.094
 Approx polarizability:      27.325       0.000       2.673      -0.000      -0.083       2.120

 ******    1 imaginary frequencies (negative Signs) ******

                      1                      2                      3
                      A                      A                      A
 Frequencies --   -789.9262                61.0342              1407.3664
 Red. masses --      1.0078                 1.1085                 1.0111
 Frc consts  --      0.3705                 0.0024                 1.1799
 IR Inten    --      2.4496                 1.0854                 0.0582

                      4
                      A
 Frequencies --   1431.1242
 Red. masses --      1.0111
 Frc consts  --      1.2201
 IR Inten    --      0.0069

 - Thermochemistry -
 -------------------
 Temperature   298.150 Kelvin.  Pressure   1.00000 Atm.
 Atom     1 has atomic number  1 and mass   1.00783

 Molecular mass:    21.01405 amu.
 Principal axes and moments of inertia in atomic units:
                           1         2         3
     Eigenvalues --     0.00000  79.14982  79.14982
           X            1.00000  -0.00000   0.00000
           Y            0.00000   1.00000   0.00000
           Z            0.00000   0.00000   1.00000
 This molecule is a prolate symmetric top.
 Rotational symmetry number  1.
 Rotational temperature (Kelvin)      1.09430
 Rotational constant (GHZ):          22.801584
    1 imaginary frequencies ignored.
 Zero-point vibrational energy      17343.0 (Joules/Mol)
                                    4.14508 (Kcal/Mol)
 Warning -- explicit consideration of   1 degrees of freedom as
           vibrations may cause significant error
 Vibrational temperatures:     87.81  2024.89  2059.07
          (Kelvin)

 Zero-point correction=                           0.006606 (Hartree/Particle)
 Thermal correction to Energy=                    0.009792
 Thermal correction to Enthalpy=                  0.010736
 Thermal correction to Gibbs Free Energy=        -0.014937
 Sum of electronic and zero-point Energies=           -100.856782
 Sum of electronic and thermal Energies=              -100.853596
 Sum of electronic and thermal Enthalpies=            -100.852652
 Sum of electronic and thermal Free Energies=         -100.878324

                     E (Thermal)             CV                S
                      KCal/Mol        Cal/Mol-Kelvin    Cal/Mol-Kelvin
 Total                    6.144              7.139             54.032
 Electronic               0.000              0.000              1.377
 Translational            0.889              2.981             35.068
 Rotational               0.592              1.987             13.130
 Vibrational              4.663              2.171              4.457
 Vibration     1          0.597              1.973              4.423

 Normal termination of Gaussian 16 at Fri Aug 22 18:41:00 2025.
