 Gaussian 16, Revision C.01,
 Gaussian 16:  ES64L-G16RevC.01  3-Jul-2019

 -----------------------------------------
 # sp b3lyp/6-311g** Force nosymm scf=(qc)
 -----------------------------------------

 -------------------
 Title Card Required
 -------------------
 Symbolic Z-matrix:
 Charge =  0 Multiplicity = 2

                          Input orientation:
 ---------------------------------------------------------------------
 Center     Atomic      Atomic             Coordinates (Angstroms)
 Number     Number       Type             X           Y           Z
 ---------------------------------------------------------------------
      1          1           0        0.000000    0.000000    0.000000
      2          1           0       -0.650000    0.000000    0.000000
      3          9           0        1.850000    0.000000    0.000000
 ---------------------------------------------------------------------

 SCF Done:  E(UB3LYP) =  -100.926977489     a.u. after    6 cycles

 Alpha  occ. eigenvalues --  -24.74486  -1.20702  -0.55453  -0.46138  -0.45139
 Alpha  occ. eigenvalues --   -0.45139
 Alpha virt. eigenvalues --    0.09611   0.20072   0.47052   0.90087   0.90087
 Alpha virt. eigenvalues --    0.94294   1.08666   1.08666   1.18639   1.67846
 Alpha virt. eigenvalues --    1.83975   1.88263   1.88263   2.43942   3.68783

  Beta  occ. eigenvalues --  -24.71478  -1.12173  -0.47423  -0.42150  -0.42150
  Beta virt. eigenvalues --   -0.25217   0.10348   0.20710   0.47940   0.91405
  Beta virt. eigenvalues --    0.91405   1.01812   1.09521   1.09521   1.22191
  Beta virt. eigenvalues --    1.69372   1.84600   1.88655   1.88655   2.44905

 Mulliken charges and spin densities:
               1          2
     1  H    0.022015  -0.026823
     2  H    0.024343   0.088812
     3  F   -0.046357   0.938012
 Sum of Mulliken charges =   0.00000   1.00000

 Dipole moment (field-independent basis, Debye):
    X=             -0.4744    Y=             -0.0000    Z=              0.0000  Tot=              0.4744
 Quadrupole moment (field-independent basis, Debye-Ang):
   XX=             -6.1020   YY=             -6.7584   ZZ=             -6.7584
   XY=              0.0000   XZ=             -0.0000   YZ=              0.0000

  Exact polarizability:      15.406      -0.000       2.096       0.000       0.000       2.096
 Approx polarizability:      17.017      -0.000       2.161      -0.000       0.000       2.161

 ******    2 imaginary frequencies (negative Signs) ******

                      1                      2                      3
                      A                      A                      A
 Frequencies --  -2048.2988             -2048.2988               157.8066
 Red. masses --      1.0100                 1.0100                 1.1085
 Frc consts  --      2.4967                 2.4967                 0.0163
 IR Inten    --      0.2302                 0.2302                31.7882

                      4
                      A
 Frequencies --   5901.5365
 Red. masses --      1.0078
 Frc consts  --     20.6808
 IR Inten    --    277.2917

 - Thermochemistry -
 -------------------
 Temperature   298.150 Kelvin.  Pressure   1.00000 Atm.
 Atom     1 has atomic number  1 and mass   1.00783

 Molecular mass:    21.01405 amu.
 Principal axes and moments of inertia in atomic units:
                           1         2         3
     Eigenvalues --     0.00000  31.54526  31.54526
           X            1.00000  -0.00000   0.00000
           Y            0.00000   1.00000   0.00000
           Z            0.00000   0.00000   1.00000
 This molecule is a prolate symmetric top.
 Rotational symmetry number  1.
 Rotational temperature (Kelvin)      2.74570
 Rotational constant (GHZ):          57.211177
    2 imaginary frequencies ignored.
 Zero-point vibrational energy      36242.9 (Joules/Mol)
                                    8.66227 (Kcal/Mol)
 Warning -- explicit consideration of   1 degrees of freedom as
           vibrations may cause significant error
 Vibrational temperatures:    227.05  8490.99
          (Kelvin)

 Zero-point correction=                           0.013804 (Hartree/Particle)
 Thermal correction to Energy=                    0.016795
 Thermal correction to Enthalpy=                  0.017739
 Thermal correction to Gibbs Free Energy=        -0.006172
 Sum of electronic and zero-point Energies=           -100.913173
 Sum of electronic and thermal Energies=              -100.910183
 Sum of electronic and thermal Enthalpies=            -100.909239
 Sum of electronic and thermal Free Energies=         -100.933149

                     E (Thermal)             CV                S
                      KCal/Mol        Cal/Mol-Kelvin    Cal/Mol-Kelvin
 Total                   10.539              6.862             50.324
 Electronic               0.000              0.000              1.377
 Translational            0.889              2.981             35.068
 Rotational               0.592              1.987             11.302
 Vibrational              9.058              1.894              2.576
 Vibration     1          0.621              1.894              2.576

 Normal termination of Gaussian 16 at Fri Aug 22 16:45:30 2025.
