 Gaussian 16, Revision C.01,
 Gaussian 16:  ES64L-G16RevC.01  3-Jul-2019

 -----------------------------------------
 # sp b3lyp/6-311g** Force nosymm scf=(qc)
 -----------------------------------------

 -------------------
 Title Card Required
 -------------------
 Symbolic Z-matrix:
 Charge =  0 Multiplicity = 2

                          Input orientation:
 ---------------------------------------------------------------------
 Center     Atomic      Atomic             Coordinates (Angstroms)
 Number     Number       Type             X           Y           Z
 ---------------------------------------------------------------------
      1          1           0        0.000000    0.000000    0.000000
      2          1           0       -0.800000    0.000000    0.000000
      3          9           0        2.000000    0.000000    0.000000
 ---------------------------------------------------------------------

 SCF Done:  E(UB3LYP) =  -100.933452140     a.u. after    7 cycles

 Alpha  occ. eigenvalues --  -24.74636  -1.20746  -0.54566  -0.45211  -0.45211
 Alpha  occ. eigenvalues --   -0.43641
 Alpha virt. eigenvalues --    0.05952   0.20499   0.43321   0.90768   0.90768
 Alpha virt. eigenvalues --    0.91571   1.07009   1.07009   1.13905   1.60278
 Alpha virt. eigenvalues --    1.77530   1.77530   2.03271   2.38778   3.05865

  Beta  occ. eigenvalues --  -24.71625  -1.12172  -0.43922  -0.42211  -0.42211
  Beta virt. eigenvalues --   -0.25555   0.06829   0.21078   0.43833   0.92121
  Beta virt. eigenvalues --    0.92121   0.99432   1.07730   1.07730   1.17323
  Beta virt. eigenvalues --    1.61790   1.77932   1.77932   2.03905   2.39545

 Mulliken charges and spin densities:
               1          2
     1  H    0.009302  -0.029495
     2  H    0.030690   0.085266
     3  F   -0.039993   0.944229
 Sum of Mulliken charges =   0.00000   1.00000

 Dipole moment (field-independent basis, Debye):
    X=             -0.4967    Y=              0.0000    Z=              0.0000  Tot=              0.4967
 Quadrupole moment (field-independent basis, Debye-Ang):
   XX=             -6.1234   YY=             -6.9746   ZZ=             -6.9746
   XY=             -0.0000   XZ=             -0.0000   YZ=              0.0000

  Exact polarizability:      20.060       0.000       2.109       0.000       0.000       2.109
 Approx polarizability:      22.890       0.000       2.164       0.000       0.000       2.164

 ******    1 imaginary frequencies (negative Signs) ******

                      1                      2                      3
                      A                      A                      A
 Frequencies --   -236.1801               924.0171               924.0171
 Red. masses --      1.1085                 1.0106                 1.0106
 Frc consts  --      0.0364                 0.5084                 0.5084
 IR Inten    --     35.9625                 0.1657                 0.1657

                      4
                      A
 Frequencies --   3596.5482
 Red. masses --      1.0079
 Frc consts  --      7.6811
 IR Inten    --    306.8832

 - Thermochemistry -
 -------------------
 Temperature   298.150 Kelvin.  Pressure   1.00000 Atm.
 Atom     1 has atomic number  1 and mass   1.00783

 Molecular mass:    21.01405 amu.
 Principal axes and moments of inertia in atomic units:
                           1         2         3
     Eigenvalues --     0.00000  38.63540  38.63540
           X            1.00000  -0.00000   0.00000
           Y            0.00000   1.00000   0.00000
           Z            0.00000   0.00000   1.00000
 This molecule is a prolate symmetric top.
 Rotational symmetry number  1.
 Rotational temperature (Kelvin)      2.24183
 Rotational constant (GHZ):          46.712117
    1 imaginary frequencies ignored.
 Zero-point vibrational energy      32565.8 (Joules/Mol)
                                    7.78342 (Kcal/Mol)
 Vibrational temperatures:   1329.45  1329.45  5174.63
          (Kelvin)

 Zero-point correction=                           0.012404 (Hartree/Particle)
 Thermal correction to Energy=                    0.014863
 Thermal correction to Enthalpy=                  0.015807
 Thermal correction to Gibbs Free Energy=        -0.007192
 Sum of electronic and zero-point Energies=           -100.921048
 Sum of electronic and thermal Energies=              -100.918589
 Sum of electronic and thermal Enthalpies=            -100.917645
 Sum of electronic and thermal Free Energies=         -100.940644

                     E (Thermal)             CV                S
                      KCal/Mol        Cal/Mol-Kelvin    Cal/Mol-Kelvin
 Total                    9.327              5.904             48.404
 Electronic               0.000              0.000              1.377
 Translational            0.889              2.981             35.068
 Rotational               0.592              1.987             11.705
 Vibrational              7.845              0.936              0.254

 Normal termination of Gaussian 16 at Fri Aug 22 16:55:24 2025.
