 Gaussian 16, Revision C.01,
 Gaussian 16:  ES64L-G16RevC.01  3-Jul-2019

 -----------------------------------------
 # sp b3lyp/6-311g** Force nosymm scf=(qc)
 -----------------------------------------

 -------------------
 Title Card Required
 -------------------
 Symbolic Z-matrix:
 Charge =  0 Multiplicity = 2

                          Input orientation:
 ---------------------------------------------------------------------
 Center     Atomic      Atomic             Coordinates (Angstroms)
 Number     Number       Type             X           Y           Z
 ---------------------------------------------------------------------
      1          1           0        0.000000    0.000000    0.000000
      2          1           0       -3.650000    0.000000    0.000000
      3          9           0        2.850000    0.000000    0.000000
 ---------------------------------------------------------------------

 SCF Done:  E(UB3LYP) =  -100.762191846     a.u. after   19 cycles

 Alpha  occ. eigenvalues --  -24.73493  -1.19596  -0.52611  -0.44179  -0.44179
 Alpha  occ. eigenvalues --   -0.32593
 Alpha virt. eigenvalues --   -0.08548   0.23811   0.35992   0.89768   0.92628
 Alpha virt. eigenvalues --    0.92628   1.04756   1.24910   1.24910   1.25000
 Alpha virt. eigenvalues --    1.43354   1.43354   1.44073   2.14547   2.39537

  Beta  occ. eigenvalues --  -24.70508  -1.11054  -0.41194  -0.41194  -0.34134
  Beta virt. eigenvalues --   -0.24430  -0.06377   0.23874   0.38018   0.94074
  Beta virt. eigenvalues --    0.94074   0.98143   1.08253   1.23180   1.23180
  Beta virt. eigenvalues --    1.24321   1.46080   1.46316   1.46316   2.14313

 Mulliken charges and spin densities:
               1          2
     1  H    0.049247  -0.943955
     2  H    0.000381   0.998581
     3  F   -0.049629   0.945374
 Sum of Mulliken charges =  -0.00000   1.00000

 Dipole moment (field-independent basis, Debye):
    X=             -0.7321    Y=             -0.0000    Z=              0.0000  Tot=              0.7321
 Quadrupole moment (field-independent basis, Debye-Ang):
   XX=             -8.6313   YY=             -7.5996   ZZ=             -7.5996
   XY=             -0.0000   XZ=              0.0000   YZ=             -0.0000

  Exact polarizability:      31.877       0.000       2.025       0.000       0.000       2.025
 Approx polarizability:      35.089       0.000       1.924       0.000       0.000       1.924

 ******    2 imaginary frequencies (negative Signs) ******

                      1                      2                      3
                      A                      A                      A
 Frequencies --   -431.5424              -101.8299               155.6606
 Red. masses --      1.0521                 1.0595                 1.0212
 Frc consts  --      0.1154                 0.0065                 0.0146
 IR Inten    --     50.8574                 0.2563                 2.3145

                      4
                      A
 Frequencies --    155.6606
 Red. masses --      1.0212
 Frc consts  --      0.0146
 IR Inten    --      2.3145

 - Thermochemistry -
 -------------------
 Temperature   298.150 Kelvin.  Pressure   1.00000 Atm.
 Atom     1 has atomic number  1 and mass   1.00783

 Molecular mass:    21.01405 amu.
 Principal axes and moments of inertia in atomic units:
                           1         2         3
     Eigenvalues --     0.00000 166.20133 166.20133
           X            1.00000  -0.00000   0.00000
           Y            0.00000   1.00000   0.00000
           Z            0.00000   0.00000   1.00000
 This molecule is a prolate symmetric top.
 Rotational symmetry number  1.
 Rotational temperature (Kelvin)      0.52114
 Rotational constant (GHZ):          10.858765
    2 imaginary frequencies ignored.
 Zero-point vibrational energy       1862.1 (Joules/Mol)
                                    0.44506 (Kcal/Mol)
 Warning -- explicit consideration of   2 degrees of freedom as
           vibrations may cause significant error
 Vibrational temperatures:    223.96   223.96
          (Kelvin)

 Zero-point correction=                           0.000709 (Hartree/Particle)
 Thermal correction to Energy=                    0.004337
 Thermal correction to Enthalpy=                  0.005281
 Thermal correction to Gibbs Free Energy=        -0.021447
 Sum of electronic and zero-point Energies=           -100.761483
 Sum of electronic and thermal Energies=              -100.757855
 Sum of electronic and thermal Enthalpies=            -100.756911
 Sum of electronic and thermal Free Energies=         -100.783639

                     E (Thermal)             CV                S
                      KCal/Mol        Cal/Mol-Kelvin    Cal/Mol-Kelvin
 Total                    2.721              8.761             56.254
 Electronic               0.000              0.000              1.377
 Translational            0.889              2.981             35.068
 Rotational               0.592              1.987             14.605
 Vibrational              1.240              3.793              5.204
 Vibration     1          0.620              1.896              2.602
 Vibration     2          0.620              1.896              2.602

 Normal termination of Gaussian 16 at Fri Aug 22 18:55:05 2025.
