 Gaussian 16, Revision C.01,
 Gaussian 16:  ES64L-G16RevC.01  3-Jul-2019

 -----------------------------------------
 # sp b3lyp/6-311g** Force nosymm scf=(qc)
 -----------------------------------------

 -------------------
 Title Card Required
 -------------------
 Symbolic Z-matrix:
 Charge =  0 Multiplicity = 2

                          Input orientation:
 ---------------------------------------------------------------------
 Center     Atomic      Atomic             Coordinates (Angstroms)
 Number     Number       Type             X           Y           Z
 ---------------------------------------------------------------------
      1          1           0        0.000000    0.000000    0.000000
      2          1           0       -1.450000    0.000000    0.000000
      3          9           0        3.250000    0.000000    0.000000
 ---------------------------------------------------------------------

 SCF Done:  E(UB3LYP) =  -100.828523886     a.u. after  155 cycles

 Alpha  occ. eigenvalues --  -24.76531  -1.22384  -0.55579  -0.46795  -0.46732
 Alpha  occ. eigenvalues --   -0.33881
 Alpha virt. eigenvalues --   -0.08943   0.24667   0.30887   0.85843   0.90718
 Alpha virt. eigenvalues --    0.92618   1.01976   1.08960   1.19226   1.19230
 Alpha virt. eigenvalues --    1.43238   1.43243   1.86304   2.24181   2.48674

  Beta  occ. eigenvalues --  -24.73373  -1.13304  -0.43631  -0.43565  -0.33877
  Beta virt. eigenvalues --   -0.26214  -0.08937   0.24681   0.30933   0.92218
  Beta virt. eigenvalues --    0.94164   0.95305   1.06008   1.08977   1.19225
  Beta virt. eigenvalues --    1.19229   1.43238   1.43242   1.86312   2.24182

 Mulliken charges and spin densities:
               1          2
     1  H   -0.000006   0.001997
     2  H   -0.004681  -0.002593
     3  F    0.004686   1.000596
 Sum of Mulliken charges =   0.00000   1.00000

 Dipole moment (field-independent basis, Debye):
    X=              0.0764    Y=              0.0000    Z=             -0.0000  Tot=              0.0764
 Quadrupole moment (field-independent basis, Debye-Ang):
   XX=             -6.1982   YY=             -7.0368   ZZ=             -7.5557
   XY=              0.0000   XZ=             -0.0000   YZ=             -0.3454

  Exact polarizability:      21.910       0.000       2.421      -0.000      -0.186       2.143
 Approx polarizability:      40.035       0.000       2.517      -0.000      -0.232       2.168

 ******    2 imaginary frequencies (negative Signs) ******

                      1                      2                      3
                      A                      A                      A
 Frequencies --  -1222.0048               -25.9152              1265.5387
 Red. masses --      1.0078                 1.1085                 1.0111
 Frc consts  --      0.8867                 0.0004                 0.9541
 IR Inten    --      0.5209                 0.3677                 0.0041

                      4
                      A
 Frequencies --   1266.9275
 Red. masses --      1.0111
 Frc consts  --      0.9562
 IR Inten    --      0.0034

 - Thermochemistry -
 -------------------
 Temperature   298.150 Kelvin.  Pressure   1.00000 Atm.
 Atom     1 has atomic number  1 and mass   1.00783

 Molecular mass:    21.01405 amu.
 Principal axes and moments of inertia in atomic units:
                           1         2         3
     Eigenvalues --     0.00000 106.60744 106.60744
           X            1.00000  -0.00000   0.00000
           Y            0.00000   1.00000   0.00000
           Z            0.00000   0.00000   1.00000
 This molecule is a prolate symmetric top.
 Rotational symmetry number  1.
 Rotational temperature (Kelvin)      0.81246
 Rotational constant (GHZ):          16.928849
    2 imaginary frequencies ignored.
 Zero-point vibrational energy      15147.5 (Joules/Mol)
                                    3.62034 (Kcal/Mol)
 Vibrational temperatures:   1820.83  1822.83
          (Kelvin)

 Zero-point correction=                           0.005769 (Hartree/Particle)
 Thermal correction to Energy=                    0.008156
 Thermal correction to Enthalpy=                  0.009100
 Thermal correction to Gibbs Free Energy=        -0.014766
 Sum of electronic and zero-point Energies=           -100.822755
 Sum of electronic and thermal Energies=              -100.820368
 Sum of electronic and thermal Enthalpies=            -100.819424
 Sum of electronic and thermal Free Energies=         -100.843290

                     E (Thermal)             CV                S
                      KCal/Mol        Cal/Mol-Kelvin    Cal/Mol-Kelvin
 Total                    5.118              5.299             50.231
 Electronic               0.000              0.000              1.377
 Translational            0.889              2.981             35.068
 Rotational               0.592              1.987             13.722
 Vibrational              3.636              0.331              0.063

 Normal termination of Gaussian 16 at Fri Aug 22 20:32:13 2025.
