 Gaussian 16, Revision C.01,
 Gaussian 16:  ES64L-G16RevC.01  3-Jul-2019

 -----------------------------------------
 # sp b3lyp/6-311g** Force nosymm scf=(qc)
 -----------------------------------------

 -------------------
 Title Card Required
 -------------------
 Symbolic Z-matrix:
 Charge =  0 Multiplicity = 2

                          Input orientation:
 ---------------------------------------------------------------------
 Center     Atomic      Atomic             Coordinates (Angstroms)
 Number     Number       Type             X           Y           Z
 ---------------------------------------------------------------------
      1          1           0        0.000000    0.000000    0.000000
      2          1           0       -3.350000    0.000000    0.000000
      3          9           0        3.450000    0.000000    0.000000
 ---------------------------------------------------------------------

 SCF Done:  E(UB3LYP) =  -100.759398812     a.u. after   33 cycles

 Alpha  occ. eigenvalues --  -24.75300  -1.21270  -0.54423  -0.45694  -0.45694
 Alpha  occ. eigenvalues --   -0.32380
 Alpha virt. eigenvalues --   -0.07349   0.24424   0.36687   0.87765   0.91534
 Alpha virt. eigenvalues --    0.91534   1.01953   1.25131   1.25131   1.25387
 Alpha virt. eigenvalues --    1.44743   1.44831   1.44831   2.15217   2.40723

  Beta  occ. eigenvalues --  -24.72192  -1.12340  -0.42579  -0.42579  -0.32901
  Beta virt. eigenvalues --   -0.25439  -0.06747   0.24197   0.37679   0.93022
  Beta virt. eigenvalues --    0.93022   0.96869   1.05944   1.24530   1.24530
  Beta virt. eigenvalues --    1.24763   1.45559   1.45798   1.45798   2.15477

 Mulliken charges and spin densities:
               1          2
     1  H    0.012864  -0.982456
     2  H    0.000297   0.996935
     3  F   -0.013161   0.985522
 Sum of Mulliken charges =  -0.00000   1.00000

 Dipole moment (field-independent basis, Debye):
    X=             -0.2383    Y=              0.0000    Z=              0.0000  Tot=              0.2383
 Quadrupole moment (field-independent basis, Debye-Ang):
   XX=             -7.4541   YY=             -7.6238   ZZ=             -7.6238
   XY=              0.0000   XZ=              0.0000   YZ=             -0.0000

  Exact polarizability:      25.456       0.000       2.032       0.000      -0.000       2.032
 Approx polarizability:      20.484       0.000       1.932       0.000      -0.000       1.932

 ******    2 imaginary frequencies (negative Signs) ******

                      1                      2                      3
                      A                      A                      A
 Frequencies --   -274.4204              -116.7835                89.5928
 Red. masses --      1.0225                 1.0912                 1.0176
 Frc consts  --      0.0454                 0.0088                 0.0048
 IR Inten    --     11.5260                 2.1249                 0.1456

                      4
                      A
 Frequencies --     89.5928
 Red. masses --      1.0176
 Frc consts  --      0.0048
 IR Inten    --      0.1456

 - Thermochemistry -
 -------------------
 Temperature   298.150 Kelvin.  Pressure   1.00000 Atm.
 Atom     1 has atomic number  1 and mass   1.00783

 Molecular mass:    21.01405 amu.
 Principal axes and moments of inertia in atomic units:
                           1         2         3
     Eigenvalues --     0.00000 191.12084 191.12084
           X            1.00000  -0.00000   0.00000
           Y            0.00000   1.00000   0.00000
           Z            0.00000   0.00000   1.00000
 This molecule is a prolate symmetric top.
 Rotational symmetry number  1.
 Rotational temperature (Kelvin)      0.45319
 Rotational constant (GHZ):           9.442933
    2 imaginary frequencies ignored.
 Zero-point vibrational energy       1071.8 (Joules/Mol)
                                    0.25616 (Kcal/Mol)
 Warning -- explicit consideration of   2 degrees of freedom as
           vibrations may cause significant error
 Vibrational temperatures:    128.90   128.90
          (Kelvin)

 Zero-point correction=                           0.000408 (Hartree/Particle)
 Thermal correction to Energy=                    0.004278
 Thermal correction to Enthalpy=                  0.005222
 Thermal correction to Gibbs Free Energy=        -0.022652
 Sum of electronic and zero-point Energies=           -100.758991
 Sum of electronic and thermal Energies=              -100.755121
 Sum of electronic and thermal Enthalpies=            -100.754176
 Sum of electronic and thermal Free Energies=         -100.782050

                     E (Thermal)             CV                S
                      KCal/Mol        Cal/Mol-Kelvin    Cal/Mol-Kelvin
 Total                    2.685              8.881             58.666
 Electronic               0.000              0.000              1.377
 Translational            0.889              2.981             35.068
 Rotational               0.592              1.987             14.882
 Vibrational              1.203              3.913              7.338
 Vibration     1          0.602              1.957              3.669
 Vibration     2          0.602              1.957              3.669

 Normal termination of Gaussian 16 at Fri Aug 22 21:43:05 2025.
