 Gaussian 16, Revision C.01,
 Gaussian 16:  ES64L-G16RevC.01  3-Jul-2019

 -----------------------------------------
 # sp b3lyp/6-311g** Force nosymm scf=(qc)
 -----------------------------------------

 -------------------
 Title Card Required
 -------------------
 Symbolic Z-matrix:
 Charge =  0 Multiplicity = 2

                          Input orientation:
 ---------------------------------------------------------------------
 Center     Atomic      Atomic             Coordinates (Angstroms)
 Number     Number       Type             X           Y           Z
 ---------------------------------------------------------------------
      1          1           0        0.000000    0.000000    0.000000
      2          1           0       -2.550000    0.000000    0.000000
      3          9           0        0.750000    0.000000    0.000000
 ---------------------------------------------------------------------

 SCF Done:  E(UB3LYP) =  -100.922146011     a.u. after    6 cycles

 Alpha  occ. eigenvalues --  -24.63399  -1.25420  -0.57363  -0.41139  -0.41139
 Alpha  occ. eigenvalues --   -0.34483
 Alpha virt. eigenvalues --    0.07101   0.25477   0.49190   0.93975   0.93975
 Alpha virt. eigenvalues --    0.96415   1.18600   1.23065   1.23065   1.41069
 Alpha virt. eigenvalues --    1.41760   1.41760   2.00452   2.14321   2.67804

  Beta  occ. eigenvalues --  -24.63390  -1.25395  -0.57330  -0.41132  -0.41132
  Beta virt. eigenvalues --   -0.08361   0.08518   0.37946   0.49242   0.93974
  Beta virt. eigenvalues --    0.93974   0.96521   1.28960   1.41747   1.41747
  Beta virt. eigenvalues --    1.46024   1.46024   1.54894   2.00347   2.42699

 Mulliken charges and spin densities:
               1          2
     1  H    0.263604   0.003252
     2  H    0.004458   0.993495
     3  F   -0.268062   0.003253
 Sum of Mulliken charges =   0.00000   1.00000

 Dipole moment (field-independent basis, Debye):
    X=             -1.7152    Y=              0.0000    Z=              0.0000  Tot=              1.7152
 Quadrupole moment (field-independent basis, Debye-Ang):
   XX=             -7.2743   YY=             -6.7108   ZZ=             -6.7108
   XY=              0.0000   XZ=              0.0000   YZ=             -0.0000

  Exact polarizability:       5.772       0.000       2.472      -0.000       0.000       2.472
 Approx polarizability:       6.003      -0.000       2.457      -0.000      -0.000       2.457

 ******    2 imaginary frequencies (negative Signs) ******

                      1                      2                      3
                      A                      A                      A
 Frequencies --  -2682.2037             -2682.2037                80.3421
 Red. masses --      1.0365                 1.0365                 1.0532
 Frc consts  --      4.3935                 4.3935                 0.0040
 IR Inten    --    191.3352               191.3352                 0.2763

                      4
                      A
 Frequencies --   7585.0835
 Red. masses --      1.0583
 Frc consts  --     35.8748
 IR Inten    --    123.5560

 - Thermochemistry -
 -------------------
 Temperature   298.150 Kelvin.  Pressure   1.00000 Atm.
 Atom     1 has atomic number  1 and mass   1.00783

 Molecular mass:    21.01405 amu.
 Principal axes and moments of inertia in atomic units:
                           1         2         3
     Eigenvalues --     0.00000  38.38646  38.38646
           X            1.00000  -0.00000   0.00000
           Y            0.00000   1.00000   0.00000
           Z            0.00000   0.00000   1.00000
 This molecule is a prolate symmetric top.
 Rotational symmetry number  1.
 Rotational temperature (Kelvin)      2.25637
 Rotational constant (GHZ):          47.015046
    2 imaginary frequencies ignored.
 Zero-point vibrational energy      45849.4 (Joules/Mol)
                                   10.95828 (Kcal/Mol)
 Warning -- explicit consideration of   1 degrees of freedom as
           vibrations may cause significant error
 Vibrational temperatures:    115.59 10913.24
          (Kelvin)

 Zero-point correction=                           0.017463 (Hartree/Particle)
 Thermal correction to Energy=                    0.020597
 Thermal correction to Enthalpy=                  0.021541
 Thermal correction to Gibbs Free Energy=        -0.003176
 Sum of electronic and zero-point Energies=           -100.904683
 Sum of electronic and thermal Energies=              -100.901549
 Sum of electronic and thermal Enthalpies=            -100.900605
 Sum of electronic and thermal Free Energies=         -100.925322

                     E (Thermal)             CV                S
                      KCal/Mol        Cal/Mol-Kelvin    Cal/Mol-Kelvin
 Total                   12.925              6.931             52.020
 Electronic               0.000              0.000              1.377
 Translational            0.889              2.981             35.068
 Rotational               0.592              1.987             11.692
 Vibrational             11.443              1.962              3.882
 Vibration     1          0.600              1.962              3.882

 Normal termination of Gaussian 16 at Fri Aug 22 15:49:07 2025.
