 Gaussian 16, Revision C.01,
 Gaussian 16:  ES64L-G16RevC.01  3-Jul-2019

 -----------------------------------------
 # sp b3lyp/6-311g** Force nosymm scf=(qc)
 -----------------------------------------

 -------------------
 Title Card Required
 -------------------
 Symbolic Z-matrix:
 Charge =  0 Multiplicity = 2

                          Input orientation:
 ---------------------------------------------------------------------
 Center     Atomic      Atomic             Coordinates (Angstroms)
 Number     Number       Type             X           Y           Z
 ---------------------------------------------------------------------
      1          1           0        0.000000    0.000000    0.000000
      2          1           0       -0.950000    0.000000    0.000000
      3          9           0        2.850000    0.000000    0.000000
 ---------------------------------------------------------------------

 SCF Done:  E(UB3LYP) =  -100.914704871     a.u. after    7 cycles

 Alpha  occ. eigenvalues --  -24.76119  -1.22019  -0.55259  -0.46391  -0.46391
 Alpha  occ. eigenvalues --   -0.40111
 Alpha virt. eigenvalues --    0.01273   0.20911   0.40134   0.89871   0.90976
 Alpha virt. eigenvalues --    0.90976   1.06431   1.08202   1.08202   1.41039
 Alpha virt. eigenvalues --    1.68517   1.68517   2.22418   2.37312   2.64200

  Beta  occ. eigenvalues --  -24.72984  -1.13006  -0.43249  -0.43249  -0.40073
  Beta virt. eigenvalues --   -0.26172   0.01514   0.21080   0.40538   0.92463
  Beta virt. eigenvalues --    0.92463   0.98469   1.08271   1.08271   1.10807
  Beta virt. eigenvalues --    1.41115   1.68569   1.68569   2.22547   2.37397

 Mulliken charges and spin densities:
               1          2
     1  H   -0.010817  -0.006024
     2  H    0.011977   0.013225
     3  F   -0.001160   0.992799
 Sum of Mulliken charges =   0.00000   1.00000

 Dipole moment (field-independent basis, Debye):
    X=             -0.0807    Y=              0.0000    Z=              0.0000  Tot=              0.0807
 Quadrupole moment (field-independent basis, Debye-Ang):
   XX=             -5.5619   YY=             -7.2094   ZZ=             -7.2094
   XY=              0.0000   XZ=              0.0000   YZ=             -0.0000

  Exact polarizability:      15.500       0.000       2.050      -0.000      -0.000       2.050
 Approx polarizability:      18.177       0.000       2.109      -0.000      -0.000       2.109

 ******    1 imaginary frequencies (negative Signs) ******

                      1                      2                      3
                      A                      A                      A
 Frequencies --    -99.8810              1504.6788              1504.6788
 Red. masses --      1.1085                 1.0098                 1.0098
 Frc consts  --      0.0065                 1.3471                 1.3471
 IR Inten    --      1.3533                 0.1339                 0.1339

                      4
                      A
 Frequencies --   2182.8609
 Red. masses --      1.0078
 Frc consts  --      2.8294
 IR Inten    --     15.4595

 - Thermochemistry -
 -------------------
 Temperature   298.150 Kelvin.  Pressure   1.00000 Atm.
 Atom     1 has atomic number  1 and mass   1.00783

 Molecular mass:    21.01405 amu.
 Principal axes and moments of inertia in atomic units:
                           1         2         3
     Eigenvalues --     0.00000  73.56952  73.56952
           X            1.00000  -0.00000   0.00000
           Y            0.00000   1.00000   0.00000
           Z            0.00000   0.00000   1.00000
 This molecule is a prolate symmetric top.
 Rotational symmetry number  1.
 Rotational temperature (Kelvin)      1.17731
 Rotational constant (GHZ):          24.531099
    1 imaginary frequencies ignored.
 Zero-point vibrational energy      31056.4 (Joules/Mol)
                                    7.42265 (Kcal/Mol)
 Vibrational temperatures:   2164.90  2164.90  3140.65
          (Kelvin)

 Zero-point correction=                           0.011829 (Hartree/Particle)
 Thermal correction to Energy=                    0.014199
 Thermal correction to Enthalpy=                  0.015143
 Thermal correction to Gibbs Free Energy=        -0.008354
 Sum of electronic and zero-point Energies=           -100.902876
 Sum of electronic and thermal Energies=              -100.900506
 Sum of electronic and thermal Enthalpies=            -100.899562
 Sum of electronic and thermal Free Energies=         -100.923059

                     E (Thermal)             CV                S
                      KCal/Mol        Cal/Mol-Kelvin    Cal/Mol-Kelvin
 Total                    8.910              5.121             49.454
 Electronic               0.000              0.000              1.377
 Translational            0.889              2.981             35.068
 Rotational               0.592              1.987             12.985
 Vibrational              7.429              0.153              0.024

 Normal termination of Gaussian 16 at Fri Aug 22 18:47:41 2025.
