 Gaussian 16, Revision C.01,
 Gaussian 16:  ES64L-G16RevC.01  3-Jul-2019

 -----------------------------------------
 # sp b3lyp/6-311g** Force nosymm scf=(qc)
 -----------------------------------------

 -------------------
 Title Card Required
 -------------------
 Symbolic Z-matrix:
 Charge =  0 Multiplicity = 2

                          Input orientation:
 ---------------------------------------------------------------------
 Center     Atomic      Atomic             Coordinates (Angstroms)
 Number     Number       Type             X           Y           Z
 ---------------------------------------------------------------------
      1          1           0        0.000000    0.000000    0.000000
      2          1           0       -1.200000    0.000000    0.000000
      3          9           0        2.550000    0.000000    0.000000
 ---------------------------------------------------------------------

 SCF Done:  E(UB3LYP) =  -100.872665086     a.u. after   33 cycles

 Alpha  occ. eigenvalues --  -24.75806  -1.21719  -0.54904  -0.46235  -0.46127
 Alpha  occ. eigenvalues --   -0.36979
 Alpha virt. eigenvalues --   -0.04229   0.22798   0.34994   0.87788   0.91103
 Alpha virt. eigenvalues --    0.92283   1.08115   1.12188   1.12195   1.22958
 Alpha virt. eigenvalues --    1.53703   1.53709   2.07311   2.31364   2.55171

  Beta  occ. eigenvalues --  -24.72710  -1.12838  -0.43173  -0.43027  -0.36774
  Beta virt. eigenvalues --   -0.26098  -0.03862   0.23022   0.35360   0.92569
  Beta virt. eigenvalues --    0.93153   0.97137   1.11814   1.12406   1.12408
  Beta virt. eigenvalues --    1.23682   1.53885   1.53890   2.07583   2.31644

 Mulliken charges and spin densities:
               1          2
     1  H   -0.001798  -0.024834
     2  H    0.012098   0.045547
     3  F   -0.010300   0.979287
 Sum of Mulliken charges =  -0.00000   1.00000

 Dipole moment (field-independent basis, Debye):
    X=             -0.2237    Y=             -0.0025    Z=              0.0018  Tot=              0.2237
 Quadrupole moment (field-independent basis, Debye-Ang):
   XX=             -6.1037   YY=             -7.2771   ZZ=             -7.3771
   XY=             -0.3295   XZ=              0.2355   YZ=             -0.1461

  Exact polarizability:     667.461      15.689       2.646      27.839       0.693       3.478
 Approx polarizability:      39.731      -0.061       2.256       0.044      -0.097       2.190

 ******    2 imaginary frequencies (negative Signs) ******

                      1                      2                      3
                      A                      A                      A
 Frequencies --  -2955.3512              -151.5970               920.9764
 Red. masses --      1.0170                 1.0922                 1.0161
 Frc consts  --      5.2333                 0.0148                 0.5078
 IR Inten    -- 219857.4977                15.5086              1993.9004

                      4
                      A
 Frequencies --   1450.0409
 Red. masses --      1.0114
 Frc consts  --      1.2529
 IR Inten    --      4.1003

 - Thermochemistry -
 -------------------
 Temperature   298.150 Kelvin.  Pressure   1.00000 Atm.
 Atom     1 has atomic number  1 and mass   1.00783

 Molecular mass:    21.01405 amu.
 Principal axes and moments of inertia in atomic units:
                           1         2         3
     Eigenvalues --     0.00000  67.16284  67.16284
           X            1.00000  -0.00000   0.00000
           Y            0.00000   1.00000   0.00000
           Z            0.00000   0.00000   1.00000
 This molecule is a prolate symmetric top.
 Rotational symmetry number  1.
 Rotational temperature (Kelvin)      1.28961
 Rotational constant (GHZ):          26.871126
    2 imaginary frequencies ignored.
 Zero-point vibrational energy      14181.8 (Joules/Mol)
                                    3.38954 (Kcal/Mol)
 Vibrational temperatures:   1325.08  2086.29
          (Kelvin)

 Zero-point correction=                           0.005402 (Hartree/Particle)
 Thermal correction to Energy=                    0.007818
 Thermal correction to Enthalpy=                  0.008762
 Thermal correction to Gibbs Free Energy=        -0.014706
 Sum of electronic and zero-point Energies=           -100.867264
 Sum of electronic and thermal Energies=              -100.864847
 Sum of electronic and thermal Enthalpies=            -100.863903
 Sum of electronic and thermal Free Energies=         -100.887371

                     E (Thermal)             CV                S
                      KCal/Mol        Cal/Mol-Kelvin    Cal/Mol-Kelvin
 Total                    4.906              5.529             49.392
 Electronic               0.000              0.000              1.377
 Translational            0.889              2.981             35.068
 Rotational               0.592              1.987             12.804
 Vibrational              3.425              0.561              0.143

 Normal termination of Gaussian 16 at Fri Aug 22 17:52:40 2025.
