 Gaussian 16, Revision C.01,
 Gaussian 16:  ES64L-G16RevC.01  3-Jul-2019

 -----------------------------------------
 # sp b3lyp/6-311g** Force nosymm scf=(qc)
 -----------------------------------------

 -------------------
 Title Card Required
 -------------------
 Symbolic Z-matrix:
 Charge =  0 Multiplicity = 2

                          Input orientation:
 ---------------------------------------------------------------------
 Center     Atomic      Atomic             Coordinates (Angstroms)
 Number     Number       Type             X           Y           Z
 ---------------------------------------------------------------------
      1          1           0        0.000000    0.000000    0.000000
      2          1           0       -3.700000    0.000000    0.000000
      3          9           0        2.100000    0.000000    0.000000
 ---------------------------------------------------------------------

 SCF Done:  E(UB3LYP) =  -100.781208401     a.u. after   19 cycles

 Alpha  occ. eigenvalues --  -24.69027  -1.15350  -0.48053  -0.40439  -0.40439
 Alpha  occ. eigenvalues --   -0.33198
 Alpha virt. eigenvalues --   -0.12998   0.22623   0.32662   0.88299   0.94710
 Alpha virt. eigenvalues --    0.94710   1.05764   1.24310   1.24310   1.24348
 Alpha virt. eigenvalues --    1.36485   1.36485   1.55816   2.13889   2.31121

  Beta  occ. eigenvalues --  -24.66511  -1.08283  -0.37952  -0.37952  -0.37334
  Beta virt. eigenvalues --   -0.21384  -0.06597   0.22821   0.38028   0.90352
  Beta virt. eigenvalues --    0.95601   0.95601   1.08128   1.21597   1.21597
  Beta virt. eigenvalues --    1.45694   1.46244   1.46244   1.47729   2.11554

 Mulliken charges and spin densities:
               1          2
     1  H    0.166544  -0.790148
     2  H    0.000871   0.998629
     3  F   -0.167415   0.791519
 Sum of Mulliken charges =  -0.00000   1.00000

 Dipole moment (field-independent basis, Debye):
    X=             -1.7646    Y=              0.0000    Z=             -0.0000  Tot=              1.7646
 Quadrupole moment (field-independent basis, Debye-Ang):
   XX=             -9.9554   YY=             -7.5078   ZZ=             -7.5078
   XY=              0.0000   XZ=             -0.0000   YZ=              0.0000

  Exact polarizability:      26.469       0.000       2.049      -0.000       0.000       2.049
 Approx polarizability:      37.570       0.000       1.936      -0.000      -0.000       1.936

 ******    2 imaginary frequencies (negative Signs) ******

                      1                      2                      3
                      A                      A                      A
 Frequencies --   -983.2017               -95.6133               415.3703
 Red. masses --      1.0573                 1.0543                 1.0260
 Frc consts  --      0.6022                 0.0057                 0.1043
 IR Inten    --    113.9492                 0.1067                26.4136

                      4
                      A
 Frequencies --    415.3703
 Red. masses --      1.0260
 Frc consts  --      0.1043
 IR Inten    --     26.4136

 - Thermochemistry -
 -------------------
 Temperature   298.150 Kelvin.  Pressure   1.00000 Atm.
 Atom     1 has atomic number  1 and mass   1.00783

 Molecular mass:    21.01405 amu.
 Principal axes and moments of inertia in atomic units:
                           1         2         3
     Eigenvalues --     0.00000 126.16988 126.16988
           X            1.00000  -0.00000   0.00000
           Y            0.00000   1.00000   0.00000
           Z            0.00000   0.00000   1.00000
 This molecule is a prolate symmetric top.
 Rotational symmetry number  1.
 Rotational temperature (Kelvin)      0.68649
 Rotational constant (GHZ):          14.304058
    2 imaginary frequencies ignored.
 Zero-point vibrational energy       4968.9 (Joules/Mol)
                                    1.18760 (Kcal/Mol)
 Warning -- explicit consideration of   2 degrees of freedom as
           vibrations may cause significant error
 Vibrational temperatures:    597.63   597.63
          (Kelvin)

 Zero-point correction=                           0.001893 (Hartree/Particle)
 Thermal correction to Energy=                    0.004842
 Thermal correction to Enthalpy=                  0.005787
 Thermal correction to Gibbs Free Energy=        -0.019071
 Sum of electronic and zero-point Energies=           -100.779316
 Sum of electronic and thermal Energies=              -100.776366
 Sum of electronic and thermal Enthalpies=            -100.775422
 Sum of electronic and thermal Free Energies=         -100.800280

                     E (Thermal)             CV                S
                      KCal/Mol        Cal/Mol-Kelvin    Cal/Mol-Kelvin
 Total                    3.039              7.842             52.318
 Electronic               0.000              0.000              1.377
 Translational            0.889              2.981             35.068
 Rotational               0.592              1.987             14.057
 Vibrational              1.557              2.874              1.816
 Vibration     1          0.779              1.437              0.908
 Vibration     2          0.779              1.437              0.908

 Normal termination of Gaussian 16 at Fri Aug 22 17:05:27 2025.
