 Gaussian 16, Revision C.01,
 Gaussian 16:  ES64L-G16RevC.01  3-Jul-2019

 -----------------------------------------
 # sp b3lyp/6-311g** Force nosymm scf=(qc)
 -----------------------------------------

 -------------------
 Title Card Required
 -------------------
 Symbolic Z-matrix:
 Charge =  0 Multiplicity = 2

                          Input orientation:
 ---------------------------------------------------------------------
 Center     Atomic      Atomic             Coordinates (Angstroms)
 Number     Number       Type             X           Y           Z
 ---------------------------------------------------------------------
      1          1           0        0.000000    0.000000    0.000000
      2          1           0       -0.700000    0.000000    0.000000
      3          9           0        0.650000    0.000000    0.000000
 ---------------------------------------------------------------------

 SCF Done:  E(UB3LYP) =  -100.667359896     a.u. after    7 cycles

 Alpha  occ. eigenvalues --  -24.67765  -1.39718  -0.70288  -0.46986  -0.46986
 Alpha  occ. eigenvalues --   -0.29411
 Alpha virt. eigenvalues --    0.16901   0.18695   0.82413   0.85239   0.85239
 Alpha virt. eigenvalues --    0.93591   1.10283   1.10283   1.41871   1.63002
 Alpha virt. eigenvalues --    1.89856   1.89856   2.11836   2.94960   3.73960

  Beta  occ. eigenvalues --  -24.66973  -1.37203  -0.66726  -0.46321  -0.46321
  Beta virt. eigenvalues --   -0.10454   0.17482   0.24289   0.85173   0.86957
  Beta virt. eigenvalues --    0.86957   0.97312   1.15985   1.15985   1.44387
  Beta virt. eigenvalues --    1.68443   1.95505   1.95505   2.19170   3.02792

 Mulliken charges and spin densities:
               1          2
     1  H    0.272439  -0.055058
     2  H   -0.109038   0.948597
     3  F   -0.163401   0.106461
 Sum of Mulliken charges =   0.00000   1.00000

 Dipole moment (field-independent basis, Debye):
    X=             -0.6008    Y=              0.0000    Z=              0.0000  Tot=              0.6008
 Quadrupole moment (field-independent basis, Debye-Ang):
   XX=             -7.5194   YY=             -6.4365   ZZ=             -6.4365
   XY=              0.0000   XZ=              0.0000   YZ=              0.0000

  Exact polarizability:       8.081      -0.000       2.476      -0.000      -0.000       2.476
 Approx polarizability:       7.979      -0.000       2.569      -0.000      -0.000       2.569

 ******    2 imaginary frequencies (negative Signs) ******

                      1                      2                      3
                      A                      A                      A
 Frequencies --  -5107.9376             -5107.9376              4005.1966
 Red. masses --      1.0189                 1.0189                 1.0637
 Frc consts  --     15.6624                15.6624                10.0538
 IR Inten    --    132.8701               132.8701               272.4707

                      4
                      A
 Frequencies --  11159.9876
 Red. masses --      1.0479
 Frc consts  --     76.8975
 IR Inten    --     35.0366

 - Thermochemistry -
 -------------------
 Temperature   298.150 Kelvin.  Pressure   1.00000 Atm.
 Atom     1 has atomic number  1 and mass   1.00783

 Molecular mass:    21.01405 amu.
 Principal axes and moments of inertia in atomic units:
                           1         2         3
     Eigenvalues --     0.00000   7.38935   7.38935
           X            1.00000  -0.00000   0.00000
           Y            0.00000   1.00000   0.00000
           Z            0.00000   0.00000   1.00000
 This molecule is a prolate symmetric top.
 Rotational symmetry number  1.
 Rotational temperature (Kelvin)     11.72146
 Rotational constant (GHZ):         244.235563
    2 imaginary frequencies ignored.
 Zero-point vibrational energy      90707.9 (Joules/Mol)
                                   21.67972 (Kcal/Mol)
 Vibrational temperatures:   5762.58 16056.73
          (Kelvin)

 Zero-point correction=                           0.034549 (Hartree/Particle)
 Thermal correction to Energy=                    0.036909
 Thermal correction to Enthalpy=                  0.037853
 Thermal correction to Gibbs Free Energy=         0.016537
 Sum of electronic and zero-point Energies=           -100.632811
 Sum of electronic and thermal Energies=              -100.630451
 Sum of electronic and thermal Enthalpies=            -100.629506
 Sum of electronic and thermal Free Energies=         -100.650823

                     E (Thermal)             CV                S
                      KCal/Mol        Cal/Mol-Kelvin    Cal/Mol-Kelvin
 Total                   23.161              4.968             44.864
 Electronic               0.000              0.000              1.377
 Translational            0.889              2.981             35.068
 Rotational               0.592              1.987              8.418
 Vibrational             21.680              0.000              0.000

 Normal termination of Gaussian 16 at Fri Aug 22 15:43:10 2025.
