 Gaussian 16, Revision C.01,
 Gaussian 16:  ES64L-G16RevC.01  3-Jul-2019

 -----------------------------------------
 # sp b3lyp/6-311g** Force nosymm scf=(qc)
 -----------------------------------------

 -------------------
 Title Card Required
 -------------------
 Symbolic Z-matrix:
 Charge =  0 Multiplicity = 2

                          Input orientation:
 ---------------------------------------------------------------------
 Center     Atomic      Atomic             Coordinates (Angstroms)
 Number     Number       Type             X           Y           Z
 ---------------------------------------------------------------------
      1          1           0        0.000000    0.000000    0.000000
      2          1           0       -3.750000    0.000000    0.000000
      3          9           0        2.550000    0.000000    0.000000
 ---------------------------------------------------------------------

 SCF Done:  E(UB3LYP) =  -100.766321873     a.u. after   25 cycles

 Alpha  occ. eigenvalues --  -24.72019  -1.18219  -0.51125  -0.42946  -0.42946
 Alpha  occ. eigenvalues --   -0.32768
 Alpha virt. eigenvalues --   -0.09898   0.23475   0.35412   0.89751   0.93464
 Alpha virt. eigenvalues --    0.93464   1.06105   1.24735   1.24735   1.24790
 Alpha virt. eigenvalues --    1.40944   1.40944   1.44489   2.14250   2.37597

  Beta  occ. eigenvalues --  -24.69152  -1.10052  -0.40086  -0.40086  -0.35156
  Beta virt. eigenvalues --   -0.23520  -0.06330   0.23780   0.38075   0.94847
  Beta virt. eigenvalues --    0.94847   0.96497   1.08584   1.22245   1.22245
  Beta virt. eigenvalues --    1.28362   1.46192   1.46416   1.46416   2.12741

 Mulliken charges and spin densities:
               1          2
     1  H    0.083093  -0.905172
     2  H    0.000441   0.998886
     3  F   -0.083534   0.906286
 Sum of Mulliken charges =  -0.00000   1.00000

 Dipole moment (field-independent basis, Debye):
    X=             -1.0931    Y=             -0.0000    Z=             -0.0000  Tot=              1.0931
 Quadrupole moment (field-independent basis, Debye-Ang):
   XX=             -9.2431   YY=             -7.5738   ZZ=             -7.5738
   XY=             -0.0000   XZ=             -0.0000   YZ=             -0.0000

  Exact polarizability:      30.562      -0.000       2.026      -0.000      -0.000       2.026
 Approx polarizability:      38.256      -0.000       1.921      -0.000       0.000       1.921

 ******    2 imaginary frequencies (negative Signs) ******

                      1                      2                      3
                      A                      A                      A
 Frequencies --   -582.6542               -91.2100               225.6193
 Red. masses --      1.0557                 1.0558                 1.0232
 Frc consts  --      0.2112                 0.0052                 0.0307
 IR Inten    --     76.2058                 0.1010                 6.6878

                      4
                      A
 Frequencies --    225.6193
 Red. masses --      1.0232
 Frc consts  --      0.0307
 IR Inten    --      6.6878

 - Thermochemistry -
 -------------------
 Temperature   298.150 Kelvin.  Pressure   1.00000 Atm.
 Atom     1 has atomic number  1 and mass   1.00783

 Molecular mass:    21.01405 amu.
 Principal axes and moments of inertia in atomic units:
                           1         2         3
     Eigenvalues --     0.00000 152.72820 152.72820
           X            1.00000  -0.00000   0.00000
           Y            0.00000   1.00000   0.00000
           Z            0.00000   0.00000   1.00000
 This molecule is a prolate symmetric top.
 Rotational symmetry number  1.
 Rotational temperature (Kelvin)      0.56711
 Rotational constant (GHZ):          11.816686
    2 imaginary frequencies ignored.
 Zero-point vibrational energy       2699.0 (Joules/Mol)
                                    0.64508 (Kcal/Mol)
 Warning -- explicit consideration of   2 degrees of freedom as
           vibrations may cause significant error
 Vibrational temperatures:    324.62   324.62
          (Kelvin)

 Zero-point correction=                           0.001028 (Hartree/Particle)
 Thermal correction to Energy=                    0.004432
 Thermal correction to Enthalpy=                  0.005376
 Thermal correction to Gibbs Free Energy=        -0.020618
 Sum of electronic and zero-point Energies=           -100.765294
 Sum of electronic and thermal Energies=              -100.761890
 Sum of electronic and thermal Enthalpies=            -100.760946
 Sum of electronic and thermal Free Energies=         -100.786940

                     E (Thermal)             CV                S
                      KCal/Mol        Cal/Mol-Kelvin    Cal/Mol-Kelvin
 Total                    2.781              8.572             54.709
 Electronic               0.000              0.000              1.377
 Translational            0.889              2.981             35.068
 Rotational               0.592              1.987             14.437
 Vibrational              1.300              3.604              3.827
 Vibration     1          0.650              1.802              1.914
 Vibration     2          0.650              1.802              1.914

 Normal termination of Gaussian 16 at Fri Aug 22 17:55:33 2025.
