 Gaussian 16, Revision C.01,
 Gaussian 16:  ES64L-G16RevC.01  3-Jul-2019

 -----------------------------------------
 # sp b3lyp/6-311g** Force nosymm scf=(qc)
 -----------------------------------------

 -------------------
 Title Card Required
 -------------------
 Symbolic Z-matrix:
 Charge =  0 Multiplicity = 2

                          Input orientation:
 ---------------------------------------------------------------------
 Center     Atomic      Atomic             Coordinates (Angstroms)
 Number     Number       Type             X           Y           Z
 ---------------------------------------------------------------------
      1          1           0        0.000000    0.000000    0.000000
      2          1           0       -3.500000    0.000000    0.000000
      3          9           0        2.750000    0.000000    0.000000
 ---------------------------------------------------------------------

 SCF Done:  E(UB3LYP) =  -100.763393161     a.u. after   19 cycles

 Alpha  occ. eigenvalues --  -24.73051  -1.19185  -0.52166  -0.43809  -0.43809
 Alpha  occ. eigenvalues --   -0.32701
 Alpha virt. eigenvalues --   -0.09092   0.23800   0.35766   0.89939   0.92886
 Alpha virt. eigenvalues --    0.92886   1.05342   1.24807   1.24807   1.24975
 Alpha virt. eigenvalues --    1.42630   1.42630   1.43694   2.14665   2.38520

  Beta  occ. eigenvalues --  -24.70100  -1.10748  -0.40859  -0.40859  -0.34445
  Beta virt. eigenvalues --   -0.24166  -0.06651   0.24001   0.37868   0.94318
  Beta virt. eigenvalues --    0.94318   0.97986   1.08597   1.22878   1.22878
  Beta virt. eigenvalues --    1.25029   1.45765   1.46032   1.46032   2.14144

 Mulliken charges and spin densities:
               1          2
     1  H    0.058706  -0.932291
     2  H    0.000646   0.997944
     3  F   -0.059352   0.934346
 Sum of Mulliken charges =  -0.00000   1.00000

 Dipole moment (field-independent basis, Debye):
    X=             -0.8467    Y=              0.0000    Z=             -0.0000  Tot=              0.8467
 Quadrupole moment (field-independent basis, Debye-Ang):
   XX=             -8.8154   YY=             -7.5948   ZZ=             -7.5948
   XY=              0.0000   XZ=             -0.0000   YZ=              0.0000

  Exact polarizability:      32.240       0.000       2.024      -0.000       0.000       2.024
 Approx polarizability:      36.891       0.000       1.922      -0.000      -0.000       1.922

 ******    2 imaginary frequencies (negative Signs) ******

                      1                      2                      3
                      A                      A                      A
 Frequencies --   -482.8193              -120.0913               178.1132
 Red. masses --      1.0513                 1.0603                 1.0211
 Frc consts  --      0.1444                 0.0090                 0.0191
 IR Inten    --     58.6491                 0.4230                 3.2705

                      4
                      A
 Frequencies --    178.1132
 Red. masses --      1.0211
 Frc consts  --      0.0191
 IR Inten    --      3.2705

 - Thermochemistry -
 -------------------
 Temperature   298.150 Kelvin.  Pressure   1.00000 Atm.
 Atom     1 has atomic number  1 and mass   1.00783

 Molecular mass:    21.01405 amu.
 Principal axes and moments of inertia in atomic units:
                           1         2         3
     Eigenvalues --     0.00000 153.82261 153.82261
           X            1.00000  -0.00000   0.00000
           Y            0.00000   1.00000   0.00000
           Z            0.00000   0.00000   1.00000
 This molecule is a prolate symmetric top.
 Rotational symmetry number  1.
 Rotational temperature (Kelvin)      0.56308
 Rotational constant (GHZ):          11.732613
    2 imaginary frequencies ignored.
 Zero-point vibrational energy       2130.7 (Joules/Mol)
                                    0.50925 (Kcal/Mol)
 Warning -- explicit consideration of   2 degrees of freedom as
           vibrations may cause significant error
 Vibrational temperatures:    256.27   256.27
          (Kelvin)

 Zero-point correction=                           0.000812 (Hartree/Particle)
 Thermal correction to Energy=                    0.004364
 Thermal correction to Enthalpy=                  0.005308
 Thermal correction to Gibbs Free Energy=        -0.021106
 Sum of electronic and zero-point Energies=           -100.762582
 Sum of electronic and thermal Energies=              -100.759029
 Sum of electronic and thermal Enthalpies=            -100.758085
 Sum of electronic and thermal Free Energies=         -100.784499

                     E (Thermal)             CV                S
                      KCal/Mol        Cal/Mol-Kelvin    Cal/Mol-Kelvin
 Total                    2.738              8.707             55.592
 Electronic               0.000              0.000              1.377
 Translational            0.889              2.981             35.068
 Rotational               0.592              1.987             14.451
 Vibrational              1.257              3.739              4.696
 Vibration     1          0.629              1.869              2.348
 Vibration     2          0.629              1.869              2.348

 Normal termination of Gaussian 16 at Fri Aug 22 18:35:10 2025.
