 Gaussian 16, Revision C.01,
 Gaussian 16:  ES64L-G16RevC.01  3-Jul-2019

 -----------------------------------------
 # sp b3lyp/6-311g** Force nosymm scf=(qc)
 -----------------------------------------

 -------------------
 Title Card Required
 -------------------
 Symbolic Z-matrix:
 Charge =  0 Multiplicity = 2

                          Input orientation:
 ---------------------------------------------------------------------
 Center     Atomic      Atomic             Coordinates (Angstroms)
 Number     Number       Type             X           Y           Z
 ---------------------------------------------------------------------
      1          1           0        0.000000    0.000000    0.000000
      2          1           0       -3.000000    0.000000    0.000000
      3          9           0        1.000000    0.000000    0.000000
 ---------------------------------------------------------------------

 SCF Done:  E(UB3LYP) =  -100.966267072     a.u. after    6 cycles

 Alpha  occ. eigenvalues --  -24.64153  -1.16031  -0.51636  -0.38775  -0.38775
 Alpha  occ. eigenvalues --   -0.34212
 Alpha virt. eigenvalues --    0.00860   0.24774   0.34256   0.94066   0.94066
 Alpha virt. eigenvalues --    0.98596   1.22768   1.23318   1.23318   1.31656
 Alpha virt. eigenvalues --    1.35958   1.35958   1.90560   2.14422   2.34177

  Beta  occ. eigenvalues --  -24.64146  -1.16014  -0.51614  -0.38769  -0.38769
  Beta virt. eigenvalues --   -0.07568   0.02091   0.34082   0.38397   0.94066
  Beta virt. eigenvalues --    0.94066   0.98597   1.30143   1.35951   1.35951
  Beta virt. eigenvalues --    1.48030   1.48030   1.49260   1.90705   2.34137

 Mulliken charges and spin densities:
               1          2
     1  H    0.318407   0.001309
     2  H    0.002726   0.996517
     3  F   -0.321132   0.002174
 Sum of Mulliken charges =   0.00000   1.00000

 Dipole moment (field-independent basis, Debye):
    X=             -2.0637    Y=              0.0000    Z=             -0.0000  Tot=              2.0637
 Quadrupole moment (field-independent basis, Debye-Ang):
   XX=             -8.1257   YY=             -6.9611   ZZ=             -6.9611
   XY=             -0.0000   XZ=             -0.0000   YZ=              0.0000

  Exact polarizability:       7.513      -0.000       2.408       0.000      -0.000       2.408
 Approx polarizability:       8.921       0.000       2.382      -0.000      -0.000       2.382

 ******    1 imaginary frequencies (negative Signs) ******

                      1                      2                      3
                      A                      A                      A
 Frequencies --    -73.7174               976.5249               976.5249
 Red. masses --      1.0531                 1.0346                 1.0346
 Frc consts  --      0.0034                 0.5813                 0.5813
 IR Inten    --      0.2560               163.8789               163.8789

                      4
                      A
 Frequencies --   3023.6643
 Red. masses --      1.0584
 Frc consts  --      5.7014
 IR Inten    --     99.9577

 - Thermochemistry -
 -------------------
 Temperature   298.150 Kelvin.  Pressure   1.00000 Atm.
 Atom     1 has atomic number  1 and mass   1.00783

 Molecular mass:    21.01405 amu.
 Principal axes and moments of inertia in atomic units:
                           1         2         3
     Eigenvalues --     0.00000  56.86797  56.86797
           X            1.00000  -0.00000   0.00000
           Y            0.00000   1.00000   0.00000
           Z            0.00000   0.00000   1.00000
 This molecule is a prolate symmetric top.
 Rotational symmetry number  1.
 Rotational temperature (Kelvin)      1.52307
 Rotational constant (GHZ):          31.735635
    1 imaginary frequencies ignored.
 Zero-point vibrational energy      29767.4 (Joules/Mol)
                                    7.11457 (Kcal/Mol)
 Vibrational temperatures:   1405.00  1405.00  4350.38
          (Kelvin)

 Zero-point correction=                           0.011338 (Hartree/Particle)
 Thermal correction to Energy=                    0.013779
 Thermal correction to Enthalpy=                  0.014723
 Thermal correction to Gibbs Free Energy=        -0.008618
 Sum of electronic and zero-point Energies=           -100.954929
 Sum of electronic and thermal Energies=              -100.952488
 Sum of electronic and thermal Enthalpies=            -100.951544
 Sum of electronic and thermal Free Energies=         -100.974885

                     E (Thermal)             CV                S
                      KCal/Mol        Cal/Mol-Kelvin    Cal/Mol-Kelvin
 Total                    8.646              5.775             49.125
 Electronic               0.000              0.000              1.377
 Translational            0.889              2.981             35.068
 Rotational               0.592              1.987             12.473
 Vibrational              7.165              0.807              0.206

 Normal termination of Gaussian 16 at Fri Aug 22 16:01:13 2025.
