 Gaussian 16, Revision C.01,
 Gaussian 16:  ES64L-G16RevC.01  3-Jul-2019

 -----------------------------------------
 # sp b3lyp/6-311g** Force nosymm scf=(qc)
 -----------------------------------------

 -------------------
 Title Card Required
 -------------------
 Symbolic Z-matrix:
 Charge =  0 Multiplicity = 2

                          Input orientation:
 ---------------------------------------------------------------------
 Center     Atomic      Atomic             Coordinates (Angstroms)
 Number     Number       Type             X           Y           Z
 ---------------------------------------------------------------------
      1          1           0        0.000000    0.000000    0.000000
      2          1           0       -1.400000    0.000000    0.000000
      3          9           0        3.650000    0.000000    0.000000
 ---------------------------------------------------------------------

 SCF Done:  E(UB3LYP) =  -100.836529428     a.u. after   20 cycles

 Alpha  occ. eigenvalues --  -24.76321  -1.22207  -0.55408  -0.46595  -0.46563
 Alpha  occ. eigenvalues --   -0.34361
 Alpha virt. eigenvalues --   -0.08110   0.24259   0.31354   0.85976   0.90853
 Alpha virt. eigenvalues --    0.91715   1.01063   1.10738   1.17930   1.17932
 Alpha virt. eigenvalues --    1.45126   1.45129   1.89995   2.25515   2.49806

  Beta  occ. eigenvalues --  -24.73165  -1.13132  -0.43431  -0.43399  -0.34360
  Beta virt. eigenvalues --   -0.26054  -0.08108   0.24265   0.31374   0.92353
  Beta virt. eigenvalues --    0.93209   0.95442   1.05189   1.10749   1.17929
  Beta virt. eigenvalues --    1.17932   1.45126   1.45129   1.89999   2.25517

 Mulliken charges and spin densities:
               1          2
     1  H    0.000748   0.000121
     2  H   -0.002670  -0.000344
     3  F    0.001922   1.000223
 Sum of Mulliken charges =   0.00000   1.00000

 Dipole moment (field-independent basis, Debye):
    X=              0.0379    Y=              0.0000    Z=             -0.0000  Tot=              0.0379
 Quadrupole moment (field-independent basis, Debye-Ang):
   XX=             -6.2796   YY=             -7.6828   ZZ=             -6.8183
   XY=              0.0000   XZ=             -0.0000   YZ=              0.0011

  Exact polarizability:      20.367       0.000       2.058      -0.000       0.001       2.524
 Approx polarizability:      35.969      -0.000       2.063      -0.000       0.001       2.645

 ******    2 imaginary frequencies (negative Signs) ******

                      1                      2                      3
                      A                      A                      A
 Frequencies --  -1168.0457               -56.7782              1310.9373
 Red. masses --      1.0078                 1.1085                 1.0104
 Frc consts  --      0.8101                 0.0021                 1.0231
 IR Inten    --      0.1302                 0.1100                 0.0025

                      4
                      A
 Frequencies --   1311.9601
 Red. masses --      1.0104
 Frc consts  --      1.0247
 IR Inten    --      0.0018

 - Thermochemistry -
 -------------------
 Temperature   298.150 Kelvin.  Pressure   1.00000 Atm.
 Atom     1 has atomic number  1 and mass   1.00783

 Molecular mass:    21.01405 amu.
 Principal axes and moments of inertia in atomic units:
                           1         2         3
     Eigenvalues --     0.00000 126.66689 126.66689
           X            1.00000  -0.00000   0.00000
           Y            0.00000   1.00000   0.00000
           Z            0.00000   0.00000   1.00000
 This molecule is a prolate symmetric top.
 Rotational symmetry number  1.
 Rotational temperature (Kelvin)      0.68379
 Rotational constant (GHZ):          14.247932
    2 imaginary frequencies ignored.
 Zero-point vibrational energy      15688.4 (Joules/Mol)
                                    3.74962 (Kcal/Mol)
 Vibrational temperatures:   1886.15  1887.62
          (Kelvin)

 Zero-point correction=                           0.005975 (Hartree/Particle)
 Thermal correction to Energy=                    0.008357
 Thermal correction to Enthalpy=                  0.009301
 Thermal correction to Gibbs Free Energy=        -0.014722
 Sum of electronic and zero-point Energies=           -100.830554
 Sum of electronic and thermal Energies=              -100.828172
 Sum of electronic and thermal Enthalpies=            -100.827228
 Sum of electronic and thermal Free Energies=         -100.851252

                     E (Thermal)             CV                S
                      KCal/Mol        Cal/Mol-Kelvin    Cal/Mol-Kelvin
 Total                    5.244              5.253             50.562
 Electronic               0.000              0.000              1.377
 Translational            0.889              2.981             35.068
 Rotational               0.592              1.987             14.065
 Vibrational              3.763              0.285              0.052

 Normal termination of Gaussian 16 at Fri Aug 22 23:26:21 2025.
