 Gaussian 16, Revision C.01,
 Gaussian 16:  ES64L-G16RevC.01  3-Jul-2019

 -----------------------------------------
 # sp b3lyp/6-311g** Force nosymm scf=(qc)
 -----------------------------------------

 -------------------
 Title Card Required
 -------------------
 Symbolic Z-matrix:
 Charge =  0 Multiplicity = 2

                          Input orientation:
 ---------------------------------------------------------------------
 Center     Atomic      Atomic             Coordinates (Angstroms)
 Number     Number       Type             X           Y           Z
 ---------------------------------------------------------------------
      1          1           0        0.000000    0.000000    0.000000
      2          1           0       -2.300000    0.000000    0.000000
      3          9           0        3.550000    0.000000    0.000000
 ---------------------------------------------------------------------

 SCF Done:  E(UB3LYP) =  -100.765738023     a.u. after   32 cycles

 Alpha  occ. eigenvalues --  -24.75562  -1.21511  -0.54684  -0.45916  -0.45916
 Alpha  occ. eigenvalues --   -0.32796
 Alpha virt. eigenvalues --   -0.10146   0.25857   0.33694   0.87445   0.91365
 Alpha virt. eigenvalues --    0.91365   1.01638   1.24969   1.24969   1.25295
 Alpha virt. eigenvalues --    1.40008   1.40008   1.43923   2.14790   2.35663

  Beta  occ. eigenvalues --  -24.72439  -1.12537  -0.42786  -0.42786  -0.32995
  Beta virt. eigenvalues --   -0.25595  -0.09774   0.25692   0.34257   0.92857
  Beta virt. eigenvalues --    0.92857   0.96651   1.05698   1.24728   1.24728
  Beta virt. eigenvalues --    1.25046   1.40566   1.40566   1.44432   2.15307

 Mulliken charges and spin densities:
               1          2
     1  H    0.005494  -0.935156
     2  H    0.003230   0.945063
     3  F   -0.008724   0.990092
 Sum of Mulliken charges =  -0.00000   1.00000

 Dipole moment (field-independent basis, Debye):
    X=             -0.1942    Y=             -0.0000    Z=              0.0000  Tot=              0.1942
 Quadrupole moment (field-independent basis, Debye-Ang):
   XX=             -6.8941   YY=             -7.6862   ZZ=             -7.6862
   XY=              0.0000   XZ=              0.0000   YZ=              0.0000

  Exact polarizability:      35.845      -0.000       1.929      -0.000       0.000       1.929
 Approx polarizability:      27.331       0.000       1.929       0.000      -0.000       1.929

 ******    2 imaginary frequencies (negative Signs) ******

                      1                      2                      3
                      A                      A                      A
 Frequencies --   -887.7291              -132.7302               340.8461
 Red. masses --      1.0079                 1.1084                 1.0135
 Frc consts  --      0.4680                 0.0115                 0.0694
 IR Inten    --      5.2857                 5.5072                 0.0494

                      4
                      A
 Frequencies --    340.8468
 Red. masses --      1.0135
 Frc consts  --      0.0694
 IR Inten    --      0.0494

 - Thermochemistry -
 -------------------
 Temperature   298.150 Kelvin.  Pressure   1.00000 Atm.
 Atom     1 has atomic number  1 and mass   1.00783

 Molecular mass:    21.01405 amu.
 Principal axes and moments of inertia in atomic units:
                           1         2         3
     Eigenvalues --     0.00000 153.27203 153.27203
           X            1.00000  -0.00000   0.00000
           Y            0.00000   1.00000   0.00000
           Z            0.00000   0.00000   1.00000
 This molecule is a prolate symmetric top.
 Rotational symmetry number  1.
 Rotational temperature (Kelvin)      0.56510
 Rotational constant (GHZ):          11.774759
    2 imaginary frequencies ignored.
 Zero-point vibrational energy       4077.4 (Joules/Mol)
                                    0.97453 (Kcal/Mol)
 Warning -- explicit consideration of   2 degrees of freedom as
           vibrations may cause significant error
 Vibrational temperatures:    490.40   490.40
          (Kelvin)

 Zero-point correction=                           0.001553 (Hartree/Particle)
 Thermal correction to Energy=                    0.004657
 Thermal correction to Enthalpy=                  0.005601
 Thermal correction to Gibbs Free Energy=        -0.019726
 Sum of electronic and zero-point Energies=           -100.764185
 Sum of electronic and thermal Energies=              -100.761081
 Sum of electronic and thermal Enthalpies=            -100.760137
 Sum of electronic and thermal Free Energies=         -100.785464

                     E (Thermal)             CV                S
                      KCal/Mol        Cal/Mol-Kelvin    Cal/Mol-Kelvin
 Total                    2.922              8.156             53.305
 Electronic               0.000              0.000              1.377
 Translational            0.889              2.981             35.068
 Rotational               0.592              1.987             14.444
 Vibrational              1.441              3.188              2.416
 Vibration     1          0.720              1.594              1.208
 Vibration     2          0.720              1.594              1.208

 Normal termination of Gaussian 16 at Fri Aug 22 22:39:29 2025.
