 Gaussian 16, Revision C.01,
 Gaussian 16:  ES64L-G16RevC.01  3-Jul-2019

 -----------------------------------------
 # sp b3lyp/6-311g** Force nosymm scf=(qc)
 -----------------------------------------

 -------------------
 Title Card Required
 -------------------
 Symbolic Z-matrix:
 Charge =  0 Multiplicity = 2

                          Input orientation:
 ---------------------------------------------------------------------
 Center     Atomic      Atomic             Coordinates (Angstroms)
 Number     Number       Type             X           Y           Z
 ---------------------------------------------------------------------
      1          1           0        0.000000    0.000000    0.000000
      2          1           0       -1.300000    0.000000    0.000000
      3          9           0        3.850000    0.000000    0.000000
 ---------------------------------------------------------------------

 SCF Done:  E(UB3LYP) =  -100.853687318     a.u. after  231 cycles

 Alpha  occ. eigenvalues --  -24.76245  -1.22142  -0.55345  -0.46523  -0.46501
 Alpha  occ. eigenvalues --   -0.35296
 Alpha virt. eigenvalues --   -0.06182   0.23551   0.32671   0.86027   0.90904
 Alpha virt. eigenvalues --    0.91435   1.00925   1.15360   1.15362   1.15693
 Alpha virt. eigenvalues --    1.49459   1.49461   1.98354   2.28633   2.52586

  Beta  occ. eigenvalues --  -24.73089  -1.13068  -0.43360  -0.43337  -0.35295
  Beta virt. eigenvalues --   -0.25994  -0.06180   0.23555   0.32684   0.92404
  Beta virt. eigenvalues --    0.92928   0.95493   1.05070   1.15360   1.15362
  Beta virt. eigenvalues --    1.15697   1.49459   1.49461   1.98356   2.28634

 Mulliken charges and spin densities:
               1          2
     1  H    0.000951  -0.000037
     2  H   -0.002115  -0.000093
     3  F    0.001165   1.000130
 Sum of Mulliken charges =   0.00000   1.00000

 Dipole moment (field-independent basis, Debye):
    X=              0.0258    Y=              0.0000    Z=              0.0000  Tot=              0.0258
 Quadrupole moment (field-independent basis, Debye-Ang):
   XX=             -6.3198   YY=             -6.7376   ZZ=             -7.5814
   XY=             -0.0000   XZ=              0.0000   YZ=             -0.0942

  Exact polarizability:      17.954      -0.000       2.535      -0.000      -0.051       2.078
 Approx polarizability:      29.337      -0.000       2.662       0.000      -0.063       2.094

 ******    2 imaginary frequencies (negative Signs) ******

                      1                      2                      3
                      A                      A                      A
 Frequencies --   -970.8007               -51.9458              1395.2760
 Red. masses --      1.0078                 1.1085                 1.0099
 Frc consts  --      0.5596                 0.0018                 1.1584
 IR Inten    --      0.0704                 0.0511                 0.0029

                      4
                      A
 Frequencies --   1396.7801
 Red. masses --      1.0099
 Frc consts  --      1.1609
 IR Inten    --      0.0014

 - Thermochemistry -
 -------------------
 Temperature   298.150 Kelvin.  Pressure   1.00000 Atm.
 Atom     1 has atomic number  1 and mass   1.00783

 Molecular mass:    21.01405 amu.
 Principal axes and moments of inertia in atomic units:
                           1         2         3
     Eigenvalues --     0.00000 134.81985 134.81985
           X            1.00000  -0.00000   0.00000
           Y            0.00000   1.00000   0.00000
           Z            0.00000   0.00000   1.00000
 This molecule is a prolate symmetric top.
 Rotational symmetry number  1.
 Rotational temperature (Kelvin)      0.64244
 Rotational constant (GHZ):          13.386317
    2 imaginary frequencies ignored.
 Zero-point vibrational energy      16700.2 (Joules/Mol)
                                    3.99144 (Kcal/Mol)
 Vibrational temperatures:   2007.49  2009.66
          (Kelvin)

 Zero-point correction=                           0.006361 (Hartree/Particle)
 Thermal correction to Energy=                    0.008736
 Thermal correction to Enthalpy=                  0.009681
 Thermal correction to Gibbs Free Energy=        -0.014395
 Sum of electronic and zero-point Energies=           -100.847327
 Sum of electronic and thermal Energies=              -100.844951
 Sum of electronic and thermal Enthalpies=            -100.844007
 Sum of electronic and thermal Free Energies=         -100.868082

                     E (Thermal)             CV                S
                      KCal/Mol        Cal/Mol-Kelvin    Cal/Mol-Kelvin
 Total                    5.482              5.183             50.671
 Electronic               0.000              0.000              1.377
 Translational            0.889              2.981             35.068
 Rotational               0.592              1.987             14.189
 Vibrational              4.001              0.215              0.037

 Normal termination of Gaussian 16 at Sat Aug 23 00:59:40 2025.
