 Gaussian 16, Revision C.01,
 Gaussian 16:  ES64L-G16RevC.01  3-Jul-2019

 -----------------------------------------
 # sp b3lyp/6-311g** Force nosymm scf=(qc)
 -----------------------------------------

 -------------------
 Title Card Required
 -------------------
 Symbolic Z-matrix:
 Charge =  0 Multiplicity = 2

                          Input orientation:
 ---------------------------------------------------------------------
 Center     Atomic      Atomic             Coordinates (Angstroms)
 Number     Number       Type             X           Y           Z
 ---------------------------------------------------------------------
      1          1           0        0.000000    0.000000    0.000000
      2          1           0       -2.400000    0.000000    0.000000
      3          9           0        2.800000    0.000000    0.000000
 ---------------------------------------------------------------------

 SCF Done:  E(UB3LYP) =  -100.767733666     a.u. after   21 cycles

 Alpha  occ. eigenvalues --  -24.73350  -1.19457  -0.52463  -0.44053  -0.44053
 Alpha  occ. eigenvalues --   -0.33451
 Alpha virt. eigenvalues --   -0.11262   0.25250   0.33167   0.90159   0.92720
 Alpha virt. eigenvalues --    0.92720   1.05223   1.24249   1.24249   1.26287
 Alpha virt. eigenvalues --    1.38586   1.38586   1.41584   2.14656   2.35235

  Beta  occ. eigenvalues --  -24.70378  -1.10954  -0.41081  -0.41081  -0.34307
  Beta virt. eigenvalues --   -0.24372  -0.09780   0.25814   0.34361   0.94161
  Beta virt. eigenvalues --    0.94161   0.98579   1.09003   1.23242   1.23242
  Beta virt. eigenvalues --    1.25584   1.41002   1.41002   1.43560   2.15499

 Mulliken charges and spin densities:
               1          2
     1  H    0.042904  -0.901874
     2  H    0.009478   0.960650
     3  F   -0.052382   0.941224
 Sum of Mulliken charges =  -0.00000   1.00000

 Dipole moment (field-independent basis, Debye):
    X=             -0.8599    Y=             -0.0000    Z=              0.0000  Tot=              0.8599
 Quadrupole moment (field-independent basis, Debye-Ang):
   XX=             -8.2134   YY=             -7.6491   ZZ=             -7.6491
   XY=              0.0000   XZ=             -0.0000   YZ=             -0.0000

  Exact polarizability:      47.777       0.000       2.011      -0.000       0.000       2.011
 Approx polarizability:      45.702       0.000       1.919      -0.000      -0.000       1.919

 ******    2 imaginary frequencies (negative Signs) ******

                      1                      2                      3
                      A                      A                      A
 Frequencies --   -822.1959              -286.8555               314.1242
 Red. masses --      1.0107                 1.1051                 1.0162
 Frc consts  --      0.4025                 0.0536                 0.0591
 IR Inten    --     31.1619                27.6027                 1.3863

                      4
                      A
 Frequencies --    314.1242
 Red. masses --      1.0162
 Frc consts  --      0.0591
 IR Inten    --      1.3863

 - Thermochemistry -
 -------------------
 Temperature   298.150 Kelvin.  Pressure   1.00000 Atm.
 Atom     1 has atomic number  1 and mass   1.00783

 Molecular mass:    21.01405 amu.
 Principal axes and moments of inertia in atomic units:
                           1         2         3
     Eigenvalues --     0.00000 114.48658 114.48658
           X            1.00000  -0.00000   0.00000
           Y            0.00000   1.00000   0.00000
           Z            0.00000   0.00000   1.00000
 This molecule is a prolate symmetric top.
 Rotational symmetry number  1.
 Rotational temperature (Kelvin)      0.75654
 Rotational constant (GHZ):          15.763780
    2 imaginary frequencies ignored.
 Zero-point vibrational energy       3757.8 (Joules/Mol)
                                    0.89813 (Kcal/Mol)
 Warning -- explicit consideration of   2 degrees of freedom as
           vibrations may cause significant error
 Vibrational temperatures:    451.95   451.95
          (Kelvin)

 Zero-point correction=                           0.001431 (Hartree/Particle)
 Thermal correction to Energy=                    0.004597
 Thermal correction to Enthalpy=                  0.005541
 Thermal correction to Gibbs Free Energy=        -0.019636
 Sum of electronic and zero-point Energies=           -100.766302
 Sum of electronic and thermal Energies=              -100.763136
 Sum of electronic and thermal Enthalpies=            -100.762192
 Sum of electronic and thermal Free Energies=         -100.787370

                     E (Thermal)             CV                S
                      KCal/Mol        Cal/Mol-Kelvin    Cal/Mol-Kelvin
 Total                    2.885              8.261             52.990
 Electronic               0.000              0.000              1.377
 Translational            0.889              2.981             35.068
 Rotational               0.592              1.987             13.864
 Vibrational              1.404              3.293              2.681
 Vibration     1          0.702              1.647              1.341
 Vibration     2          0.702              1.647              1.341

 Normal termination of Gaussian 16 at Fri Aug 22 18:43:28 2025.
