 Gaussian 16, Revision C.01,
 Gaussian 16:  ES64L-G16RevC.01  3-Jul-2019

 -----------------------------------------
 # sp b3lyp/6-311g** Force nosymm scf=(qc)
 -----------------------------------------

 -------------------
 Title Card Required
 -------------------
 Symbolic Z-matrix:
 Charge =  0 Multiplicity = 2

                          Input orientation:
 ---------------------------------------------------------------------
 Center     Atomic      Atomic             Coordinates (Angstroms)
 Number     Number       Type             X           Y           Z
 ---------------------------------------------------------------------
      1          1           0        0.000000    0.000000    0.000000
      2          1           0       -2.250000    0.000000    0.000000
      3          9           0        2.900000    0.000000    0.000000
 ---------------------------------------------------------------------

 SCF Done:  E(UB3LYP) =  -100.769353054     a.u. after   22 cycles

 Alpha  occ. eigenvalues --  -24.73823  -1.19896  -0.52938  -0.44449  -0.44449
 Alpha  occ. eigenvalues --   -0.33512
 Alpha virt. eigenvalues --   -0.11419   0.25418   0.32801   0.89935   0.92439
 Alpha virt. eigenvalues --    0.92439   1.04597   1.24286   1.24286   1.24468
 Alpha virt. eigenvalues --    1.38007   1.38007   1.43099   2.13710   2.35205

  Beta  occ. eigenvalues --  -24.70817  -1.11287  -0.41442  -0.41442  -0.34045
  Beta virt. eigenvalues --   -0.24659  -0.10322   0.25906   0.33732   0.93892
  Beta virt. eigenvalues --    0.93892   0.98561   1.08492   1.23621   1.23621
  Beta virt. eigenvalues --    1.23880   1.39793   1.39793   1.44645   2.14859

 Mulliken charges and spin densities:
               1          2
     1  H    0.031135  -0.889919
     2  H    0.011340   0.937681
     3  F   -0.042475   0.952238
 Sum of Mulliken charges =  -0.00000   1.00000

 Dipole moment (field-independent basis, Debye):
    X=             -0.7533    Y=             -0.0000    Z=              0.0000  Tot=              0.7533
 Quadrupole moment (field-independent basis, Debye-Ang):
   XX=             -7.8678   YY=             -7.6718   ZZ=             -7.6718
   XY=              0.0000   XZ=             -0.0000   YZ=              0.0000

  Exact polarizability:      52.310       0.000       2.008      -0.000       0.000       2.008
 Approx polarizability:      47.521       0.000       1.922      -0.000      -0.000       1.922

 ******    2 imaginary frequencies (negative Signs) ******

                      1                      2                      3
                      A                      A                      A
 Frequencies --   -981.4017              -267.1743               377.0502
 Red. masses --      1.0087                 1.1075                 1.0152
 Frc consts  --      0.5724                 0.0466                 0.0850
 IR Inten    --     27.5746                29.0780                 0.6300

                      4
                      A
 Frequencies --    377.0503
 Red. masses --      1.0152
 Frc consts  --      0.0850
 IR Inten    --      0.6300

 - Thermochemistry -
 -------------------
 Temperature   298.150 Kelvin.  Pressure   1.00000 Atm.
 Atom     1 has atomic number  1 and mass   1.00783

 Molecular mass:    21.01405 amu.
 Principal axes and moments of inertia in atomic units:
                           1         2         3
     Eigenvalues --     0.00000 114.53701 114.53701
           X            1.00000  -0.00000   0.00000
           Y            0.00000   1.00000   0.00000
           Z            0.00000   0.00000   1.00000
 This molecule is a prolate symmetric top.
 Rotational symmetry number  1.
 Rotational temperature (Kelvin)      0.75621
 Rotational constant (GHZ):          15.756839
    2 imaginary frequencies ignored.
 Zero-point vibrational energy       4510.5 (Joules/Mol)
                                    1.07804 (Kcal/Mol)
 Warning -- explicit consideration of   2 degrees of freedom as
           vibrations may cause significant error
 Vibrational temperatures:    542.49   542.49
          (Kelvin)

 Zero-point correction=                           0.001718 (Hartree/Particle)
 Thermal correction to Energy=                    0.004743
 Thermal correction to Enthalpy=                  0.005687
 Thermal correction to Gibbs Free Energy=        -0.019215
 Sum of electronic and zero-point Energies=           -100.767635
 Sum of electronic and thermal Energies=              -100.764610
 Sum of electronic and thermal Enthalpies=            -100.763666
 Sum of electronic and thermal Free Energies=         -100.788568

                     E (Thermal)             CV                S
                      KCal/Mol        Cal/Mol-Kelvin    Cal/Mol-Kelvin
 Total                    2.976              8.006             52.412
 Electronic               0.000              0.000              1.377
 Translational            0.889              2.981             35.068
 Rotational               0.592              1.987             13.865
 Vibrational              1.495              3.038              2.102
 Vibration     1          0.748              1.519              1.051
 Vibration     2          0.748              1.519              1.051

 Normal termination of Gaussian 16 at Fri Aug 22 19:03:25 2025.
