 Gaussian 16, Revision C.01,
 Gaussian 16:  ES64L-G16RevC.01  3-Jul-2019

 -----------------------------------------
 # sp b3lyp/6-311g** Force nosymm scf=(qc)
 -----------------------------------------

 -------------------
 Title Card Required
 -------------------
 Symbolic Z-matrix:
 Charge =  0 Multiplicity = 2

                          Input orientation:
 ---------------------------------------------------------------------
 Center     Atomic      Atomic             Coordinates (Angstroms)
 Number     Number       Type             X           Y           Z
 ---------------------------------------------------------------------
      1          1           0        0.000000    0.000000    0.000000
      2          1           0       -3.600000    0.000000    0.000000
      3          9           0        2.450000    0.000000    0.000000
 ---------------------------------------------------------------------

 SCF Done:  E(UB3LYP) =  -100.768555232     a.u. after   19 cycles

 Alpha  occ. eigenvalues --  -24.71436  -1.17670  -0.50535  -0.42458  -0.42458
 Alpha  occ. eigenvalues --   -0.32904
 Alpha virt. eigenvalues --   -0.10541   0.23358   0.35055   0.89452   0.93770
 Alpha virt. eigenvalues --    0.93770   1.06282   1.24603   1.24603   1.24709
 Alpha virt. eigenvalues --    1.40058   1.40058   1.45435   2.14321   2.36158

  Beta  occ. eigenvalues --  -24.68623  -1.09673  -0.39656  -0.39656  -0.35569
  Beta virt. eigenvalues --   -0.23139  -0.06601   0.23767   0.37988   0.95107
  Beta virt. eigenvalues --    0.95107   0.95250   1.08480   1.21950   1.21950
  Beta virt. eigenvalues --    1.31254   1.45894   1.46156   1.46156   2.12449

 Mulliken charges and spin densities:
               1          2
     1  H    0.097363  -0.886894
     2  H    0.000737   0.998369
     3  F   -0.098100   0.888525
 Sum of Mulliken charges =  -0.00000   1.00000

 Dipole moment (field-independent basis, Debye):
    X=             -1.2328    Y=             -0.0000    Z=             -0.0000  Tot=              1.2328
 Quadrupole moment (field-independent basis, Debye-Ang):
   XX=             -9.4076   YY=             -7.5639   ZZ=             -7.5639
   XY=             -0.0000   XZ=             -0.0000   YZ=              0.0000

  Exact polarizability:      30.219      -0.000       2.027      -0.000       0.000       2.027
 Approx polarizability:      38.859      -0.000       1.921      -0.000       0.000       1.921

 ******    2 imaginary frequencies (negative Signs) ******

                      1                      2                      3
                      A                      A                      A
 Frequencies --   -649.3386              -107.8828               257.4402
 Red. masses --      1.0554                 1.0562                 1.0232
 Frc consts  --      0.2622                 0.0072                 0.0400
 IR Inten    --     84.8400                 0.1796                 9.1019

                      4
                      A
 Frequencies --    257.4402
 Red. masses --      1.0232
 Frc consts  --      0.0400
 IR Inten    --      9.1019

 - Thermochemistry -
 -------------------
 Temperature   298.150 Kelvin.  Pressure   1.00000 Atm.
 Atom     1 has atomic number  1 and mass   1.00783

 Molecular mass:    21.01405 amu.
 Principal axes and moments of inertia in atomic units:
                           1         2         3
     Eigenvalues --     0.00000 140.86491 140.86491
           X            1.00000  -0.00000   0.00000
           Y            0.00000   1.00000   0.00000
           Z            0.00000   0.00000   1.00000
 This molecule is a prolate symmetric top.
 Rotational symmetry number  1.
 Rotational temperature (Kelvin)      0.61487
 Rotational constant (GHZ):          12.811858
    2 imaginary frequencies ignored.
 Zero-point vibrational energy       3079.7 (Joules/Mol)
                                    0.73606 (Kcal/Mol)
 Warning -- explicit consideration of   2 degrees of freedom as
           vibrations may cause significant error
 Vibrational temperatures:    370.40   370.40
          (Kelvin)

 Zero-point correction=                           0.001173 (Hartree/Particle)
 Thermal correction to Energy=                    0.004486
 Thermal correction to Enthalpy=                  0.005430
 Thermal correction to Gibbs Free Energy=        -0.020265
 Sum of electronic and zero-point Energies=           -100.767382
 Sum of electronic and thermal Energies=              -100.764070
 Sum of electronic and thermal Enthalpies=            -100.763125
 Sum of electronic and thermal Free Energies=         -100.788820

                     E (Thermal)             CV                S
                      KCal/Mol        Cal/Mol-Kelvin    Cal/Mol-Kelvin
 Total                    2.815              8.468             54.080
 Electronic               0.000              0.000              1.377
 Translational            0.889              2.981             35.068
 Rotational               0.592              1.987             14.276
 Vibrational              1.334              3.500              3.358
 Vibration     1          0.667              1.750              1.679
 Vibration     2          0.667              1.750              1.679

 Normal termination of Gaussian 16 at Fri Aug 22 17:39:50 2025.
