 Gaussian 16, Revision C.01,
 Gaussian 16:  ES64L-G16RevC.01  3-Jul-2019

 -----------------------------------------
 # sp b3lyp/6-311g** Force nosymm scf=(qc)
 -----------------------------------------

 -------------------
 Title Card Required
 -------------------
 Symbolic Z-matrix:
 Charge =  0 Multiplicity = 2

                          Input orientation:
 ---------------------------------------------------------------------
 Center     Atomic      Atomic             Coordinates (Angstroms)
 Number     Number       Type             X           Y           Z
 ---------------------------------------------------------------------
      1          1           0        0.000000    0.000000    0.000000
      2          1           0       -3.300000    0.000000    0.000000
      3          9           0        2.950000    0.000000    0.000000
 ---------------------------------------------------------------------

 SCF Done:  E(UB3LYP) =  -100.761663473     a.u. after   21 cycles

 Alpha  occ. eigenvalues --  -24.73905  -1.19978  -0.53023  -0.44523  -0.44523
 Alpha  occ. eigenvalues --   -0.32631
 Alpha virt. eigenvalues --   -0.08609   0.24186   0.35745   0.89566   0.92384
 Alpha virt. eigenvalues --    0.92384   1.04208   1.24885   1.24885   1.25213
 Alpha virt. eigenvalues --    1.43292   1.43292   1.43667   2.15066   2.39376

  Beta  occ. eigenvalues --  -24.70890  -1.11343  -0.41507  -0.41507  -0.33869
  Beta virt. eigenvalues --   -0.24672  -0.06959   0.24206   0.37526   0.93841
  Beta virt. eigenvalues --    0.93841   0.98183   1.07905   1.23467   1.23467
  Beta virt. eigenvalues --    1.24216   1.45366   1.45614   1.45614   2.15237

 Mulliken charges and spin densities:
               1          2
     1  H    0.040057  -0.951636
     2  H    0.000812   0.996597
     3  F   -0.040869   0.955039
 Sum of Mulliken charges =  -0.00000   1.00000

 Dipole moment (field-independent basis, Debye):
    X=             -0.6318    Y=             -0.0000    Z=             -0.0000  Tot=              0.6318
 Quadrupole moment (field-independent basis, Debye-Ang):
   XX=             -8.3732   YY=             -7.6108   ZZ=             -7.6108
   XY=             -0.0000   XZ=             -0.0000   YZ=             -0.0000

  Exact polarizability:      33.018      -0.000       2.024      -0.000      -0.000       2.024
 Approx polarizability:      34.022      -0.000       1.925      -0.000       0.000       1.925

 ******    2 imaginary frequencies (negative Signs) ******

                      1                      2                      3
                      A                      A                      A
 Frequencies --   -411.3481              -145.5923               148.2951
 Red. masses --      1.0415                 1.0705                 1.0194
 Frc consts  --      0.1038                 0.0134                 0.0132
 IR Inten    --     41.9987                 1.5251                 1.4824

                      4
                      A
 Frequencies --    148.2951
 Red. masses --      1.0194
 Frc consts  --      0.0132
 IR Inten    --      1.4824

 - Thermochemistry -
 -------------------
 Temperature   298.150 Kelvin.  Pressure   1.00000 Atm.
 Atom     1 has atomic number  1 and mass   1.00783

 Molecular mass:    21.01405 amu.
 Principal axes and moments of inertia in atomic units:
                           1         2         3
     Eigenvalues --     0.00000 157.29719 157.29719
           X            1.00000  -0.00000   0.00000
           Y            0.00000   1.00000   0.00000
           Z            0.00000   0.00000   1.00000
 This molecule is a prolate symmetric top.
 Rotational symmetry number  1.
 Rotational temperature (Kelvin)      0.55064
 Rotational constant (GHZ):          11.473448
    2 imaginary frequencies ignored.
 Zero-point vibrational energy       1774.0 (Joules/Mol)
                                    0.42400 (Kcal/Mol)
 Warning -- explicit consideration of   2 degrees of freedom as
           vibrations may cause significant error
 Vibrational temperatures:    213.36   213.36
          (Kelvin)

 Zero-point correction=                           0.000676 (Hartree/Particle)
 Thermal correction to Energy=                    0.004329
 Thermal correction to Enthalpy=                  0.005273
 Thermal correction to Gibbs Free Energy=        -0.021491
 Sum of electronic and zero-point Energies=           -100.760988
 Sum of electronic and thermal Energies=              -100.757335
 Sum of electronic and thermal Enthalpies=            -100.756391
 Sum of electronic and thermal Free Energies=         -100.783154

                     E (Thermal)             CV                S
                      KCal/Mol        Cal/Mol-Kelvin    Cal/Mol-Kelvin
 Total                    2.716              8.777             56.329
 Electronic               0.000              0.000              1.377
 Translational            0.889              2.981             35.068
 Rotational               0.592              1.987             14.495
 Vibrational              1.235              3.809              5.388
 Vibration     1          0.618              1.905              2.694
 Vibration     2          0.618              1.905              2.694

 Normal termination of Gaussian 16 at Fri Aug 22 19:18:46 2025.
