 Gaussian 16, Revision C.01,
 Gaussian 16:  ES64L-G16RevC.01  3-Jul-2019

 -----------------------------------------
 # sp b3lyp/6-311g** Force nosymm scf=(qc)
 -----------------------------------------

 -------------------
 Title Card Required
 -------------------
 Symbolic Z-matrix:
 Charge =  0 Multiplicity = 2

                          Input orientation:
 ---------------------------------------------------------------------
 Center     Atomic      Atomic             Coordinates (Angstroms)
 Number     Number       Type             X           Y           Z
 ---------------------------------------------------------------------
      1          1           0        0.000000    0.000000    0.000000
      2          1           0       -2.800000    0.000000    0.000000
      3          9           0        3.000000    0.000000    0.000000
 ---------------------------------------------------------------------

 SCF Done:  E(UB3LYP) =  -100.762670199     a.u. after   22 cycles

 Alpha  occ. eigenvalues --  -24.74120  -1.20176  -0.53238  -0.44702  -0.44702
 Alpha  occ. eigenvalues --   -0.32829
 Alpha virt. eigenvalues --   -0.09557   0.24983   0.34476   0.89482   0.92256
 Alpha virt. eigenvalues --    0.92256   1.03944   1.24738   1.24738   1.26034
 Alpha virt. eigenvalues --    1.41606   1.41606   1.42304   2.15653   2.38172

  Beta  occ. eigenvalues --  -24.71091  -1.11496  -0.41671  -0.41671  -0.33776
  Beta virt. eigenvalues --   -0.24802  -0.08213   0.25033   0.35987   0.93717
  Beta virt. eigenvalues --    0.93717   0.98223   1.07781   1.23629   1.23629
  Beta virt. eigenvalues --    1.24948   1.43742   1.43742   1.44098   2.16288

 Mulliken charges and spin densities:
               1          2
     1  H    0.033724  -0.947095
     2  H    0.002682   0.987379
     3  F   -0.036407   0.959717
 Sum of Mulliken charges =  -0.00000   1.00000

 Dipole moment (field-independent basis, Debye):
    X=             -0.5966    Y=             -0.0000    Z=             -0.0000  Tot=              0.5966
 Quadrupole moment (field-independent basis, Debye-Ang):
   XX=             -8.1173   YY=             -7.6311   ZZ=             -7.6311
   XY=             -0.0000   XZ=             -0.0000   YZ=             -0.0000

  Exact polarizability:      37.615      -0.000       2.020      -0.000      -0.000       2.020
 Approx polarizability:      35.701      -0.000       1.923      -0.000       0.000       1.923

 ******    2 imaginary frequencies (negative Signs) ******

                      1                      2                      3
                      A                      A                      A
 Frequencies --   -513.2329              -211.9891               190.8452
 Red. masses --      1.0168                 1.0979                 1.0171
 Frc consts  --      0.1578                 0.0291                 0.0218
 IR Inten    --     29.6616                10.8323                 0.9752

                      4
                      A
 Frequencies --    190.8452
 Red. masses --      1.0171
 Frc consts  --      0.0218
 IR Inten    --      0.9752

 - Thermochemistry -
 -------------------
 Temperature   298.150 Kelvin.  Pressure   1.00000 Atm.
 Atom     1 has atomic number  1 and mass   1.00783

 Molecular mass:    21.01405 amu.
 Principal axes and moments of inertia in atomic units:
                           1         2         3
     Eigenvalues --     0.00000 140.09504 140.09504
           X            1.00000  -0.00000   0.00000
           Y            0.00000   1.00000   0.00000
           Z            0.00000   0.00000   1.00000
 This molecule is a prolate symmetric top.
 Rotational symmetry number  1.
 Rotational temperature (Kelvin)      0.61825
 Rotational constant (GHZ):          12.882263
    2 imaginary frequencies ignored.
 Zero-point vibrational energy       2283.0 (Joules/Mol)
                                    0.54565 (Kcal/Mol)
 Warning -- explicit consideration of   2 degrees of freedom as
           vibrations may cause significant error
 Vibrational temperatures:    274.58   274.58
          (Kelvin)

 Zero-point correction=                           0.000870 (Hartree/Particle)
 Thermal correction to Energy=                    0.004380
 Thermal correction to Enthalpy=                  0.005325
 Thermal correction to Gibbs Free Energy=        -0.020879
 Sum of electronic and zero-point Energies=           -100.761801
 Sum of electronic and thermal Energies=              -100.758290
 Sum of electronic and thermal Enthalpies=            -100.757346
 Sum of electronic and thermal Free Energies=         -100.783549

                     E (Thermal)             CV                S
                      KCal/Mol        Cal/Mol-Kelvin    Cal/Mol-Kelvin
 Total                    2.749              8.673             55.150
 Electronic               0.000              0.000              1.377
 Translational            0.889              2.981             35.068
 Rotational               0.592              1.987             14.265
 Vibrational              1.268              3.705              4.439
 Vibration     1          0.634              1.853              2.220
 Vibration     2          0.634              1.853              2.220

 Normal termination of Gaussian 16 at Fri Aug 22 19:32:24 2025.
