 Gaussian 16, Revision C.01,
 Gaussian 16:  ES64L-G16RevC.01  3-Jul-2019

 -----------------------------------------
 # sp b3lyp/6-311g** Force nosymm scf=(qc)
 -----------------------------------------

 -------------------
 Title Card Required
 -------------------
 Symbolic Z-matrix:
 Charge =  0 Multiplicity = 2

                          Input orientation:
 ---------------------------------------------------------------------
 Center     Atomic      Atomic             Coordinates (Angstroms)
 Number     Number       Type             X           Y           Z
 ---------------------------------------------------------------------
      1          1           0        0.000000    0.000000    0.000000
      2          1           0       -3.350000    0.000000    0.000000
      3          9           0        2.200000    0.000000    0.000000
 ---------------------------------------------------------------------

 SCF Done:  E(UB3LYP) =  -100.776038030     a.u. after   16 cycles

 Alpha  occ. eigenvalues --  -24.67036  -1.08586  -0.38370  -0.38370  -0.36825
 Alpha  occ. eigenvalues --   -0.33157
 Alpha virt. eigenvalues --   -0.21891   0.20746   0.28001   0.91536   0.95648
 Alpha virt. eigenvalues --    0.95648   1.08299   1.21513   1.21513   1.24249
 Alpha virt. eigenvalues --    1.24249   1.24392   1.42120   2.11550   2.15118

  Beta  occ. eigenvalues --  -24.69653  -1.15968  -0.48707  -0.40964  -0.40964
  Beta virt. eigenvalues --   -0.12658  -0.04674   0.31291   0.40051   0.88587
  Beta virt. eigenvalues --    0.94569   0.94569   1.06196   1.37578   1.37578
  Beta virt. eigenvalues --    1.47733   1.47733   1.47869   1.52040   2.32686

 Mulliken charges and spin densities:
               1          2
     1  H    0.144655   0.825837
     2  H    0.001728   0.998311
     3  F   -0.146383  -0.824149
 Sum of Mulliken charges =   0.00000   1.00000

 Dipole moment (field-independent basis, Debye):
    X=             -1.6411    Y=              0.0000    Z=             -0.0000  Tot=              1.6411
 Quadrupole moment (field-independent basis, Debye-Ang):
   XX=             -9.8561   YY=             -7.5160   ZZ=             -7.5160
   XY=              0.0000   XZ=             -0.0000   YZ=             -0.0000

  Exact polarizability:      29.694       0.000       2.041      -0.000      -0.000       2.041
 Approx polarizability:      40.912      -0.000       1.930       0.000       0.000       1.930

 ******    1 imaginary frequencies (negative Signs) ******

                      1                      2                      3
                      A                      A                      A
 Frequencies --   -850.6614                89.1608               354.8082
 Red. masses --      1.0600                 1.0516                 1.0238
 Frc consts  --      0.4519                 0.0049                 0.0759
 IR Inten    --     94.4302                 0.4010                19.6166

                      4
                      A
 Frequencies --    354.8082
 Red. masses --      1.0238
 Frc consts  --      0.0759
 IR Inten    --     19.6166

 - Thermochemistry -
 -------------------
 Temperature   298.150 Kelvin.  Pressure   1.00000 Atm.
 Atom     1 has atomic number  1 and mass   1.00783

 Molecular mass:    21.01405 amu.
 Principal axes and moments of inertia in atomic units:
                           1         2         3
     Eigenvalues --     0.00000 117.91046 117.91046
           X            1.00000  -0.00000   0.00000
           Y            0.00000   1.00000   0.00000
           Z            0.00000   0.00000   1.00000
 This molecule is a prolate symmetric top.
 Rotational symmetry number  1.
 Rotational temperature (Kelvin)      0.73457
 Rotational constant (GHZ):          15.306032
    1 imaginary frequencies ignored.
 Zero-point vibrational energy       4777.7 (Joules/Mol)
                                    1.14191 (Kcal/Mol)
 Warning -- explicit consideration of   3 degrees of freedom as
           vibrations may cause significant error
 Vibrational temperatures:    128.28   510.49   510.49
          (Kelvin)

 Zero-point correction=                           0.001820 (Hartree/Particle)
 Thermal correction to Energy=                    0.005648
 Thermal correction to Enthalpy=                  0.006592
 Thermal correction to Gibbs Free Energy=        -0.020175
 Sum of electronic and zero-point Energies=           -100.774218
 Sum of electronic and thermal Energies=              -100.770390
 Sum of electronic and thermal Enthalpies=            -100.769446
 Sum of electronic and thermal Free Energies=         -100.796213

                     E (Thermal)             CV                S
                      KCal/Mol        Cal/Mol-Kelvin    Cal/Mol-Kelvin
 Total                    3.544             10.056             56.336
 Electronic               0.000              0.000              1.377
 Translational            0.889              2.981             35.068
 Rotational               0.592              1.987             13.922
 Vibrational              2.063              5.088              5.968
 Vibration     1          0.602              1.957              3.678
 Vibration     2          0.731              1.565              1.145
 Vibration     3          0.731              1.565              1.145

 Normal termination of Gaussian 16 at Fri Aug 22 17:12:56 2025.
