 Gaussian 16, Revision C.01,
 Gaussian 16:  ES64L-G16RevC.01  3-Jul-2019

 -----------------------------------------
 # sp b3lyp/6-311g** Force nosymm scf=(qc)
 -----------------------------------------

 -------------------
 Title Card Required
 -------------------
 Symbolic Z-matrix:
 Charge =  0 Multiplicity = 2

                          Input orientation:
 ---------------------------------------------------------------------
 Center     Atomic      Atomic             Coordinates (Angstroms)
 Number     Number       Type             X           Y           Z
 ---------------------------------------------------------------------
      1          1           0        0.000000    0.000000    0.000000
      2          1           0       -1.450000    0.000000    0.000000
      3          9           0        3.000000    0.000000    0.000000
 ---------------------------------------------------------------------

 SCF Done:  E(UB3LYP) =  -100.828725650     a.u. after  287 cycles

 Alpha  occ. eigenvalues --  -24.76716  -1.22543  -0.55731  -0.46983  -0.46881
 Alpha  occ. eigenvalues --   -0.33809
 Alpha virt. eigenvalues --   -0.08841   0.24777   0.31146   0.85723   0.90596
 Alpha virt. eigenvalues --    0.93053   1.03322   1.09082   1.19284   1.19290
 Alpha virt. eigenvalues --    1.43297   1.43304   1.86560   2.24354   2.49190

  Beta  occ. eigenvalues --  -24.73555  -1.13458  -0.43820  -0.43712  -0.33800
  Beta virt. eigenvalues --   -0.26357  -0.08828   0.24794   0.31215   0.92095
  Beta virt. eigenvalues --    0.94690   0.95181   1.07235   1.09101   1.19283
  Beta virt. eigenvalues --    1.19289   1.43296   1.43302   1.86567   2.24352

 Mulliken charges and spin densities:
               1          2
     1  H   -0.000392   0.004097
     2  H   -0.006963  -0.005102
     3  F    0.007356   1.001005
 Sum of Mulliken charges =   0.00000   1.00000

 Dipole moment (field-independent basis, Debye):
    X=              0.1143    Y=              0.0000    Z=              0.0000  Tot=              0.1143
 Quadrupole moment (field-independent basis, Debye-Ang):
   XX=             -6.1518   YY=             -7.5353   ZZ=             -7.0637
   XY=              0.0000   XZ=              0.0000   YZ=              0.3618

  Exact polarizability:      22.216       0.000       2.160      -0.000       0.198       2.418
 Approx polarizability:      40.304       0.000       2.186       0.000       0.243       2.503

 ******    1 imaginary frequencies (negative Signs) ******

                      1                      2                      3
                      A                      A                      A
 Frequencies --  -1222.6786                16.6465              1255.3245
 Red. masses --      1.0078                 1.1085                 1.0115
 Frc consts  --      0.8877                 0.0002                 0.9392
 IR Inten    --      1.3431                 0.7600                 0.0329

                      4
                      A
 Frequencies --   1265.2139
 Red. masses --      1.0115
 Frc consts  --      0.9540
 IR Inten    --      0.0070

 - Thermochemistry -
 -------------------
 Temperature   298.150 Kelvin.  Pressure   1.00000 Atm.
 Atom     1 has atomic number  1 and mass   1.00783

 Molecular mass:    21.01405 amu.
 Principal axes and moments of inertia in atomic units:
                           1         2         3
     Eigenvalues --     0.00000  94.08033  94.08033
           X            1.00000  -0.00000   0.00000
           Y            0.00000   1.00000   0.00000
           Z            0.00000   0.00000   1.00000
 This molecule is a prolate symmetric top.
 Rotational symmetry number  1.
 Rotational temperature (Kelvin)      0.92064
 Rotational constant (GHZ):          19.182982
    1 imaginary frequencies ignored.
 Zero-point vibrational energy      15175.7 (Joules/Mol)
                                    3.62709 (Kcal/Mol)
 Warning -- explicit consideration of   1 degrees of freedom as
           vibrations may cause significant error
 Vibrational temperatures:     23.95  1806.13  1820.36
          (Kelvin)

 Zero-point correction=                           0.005780 (Hartree/Particle)
 Thermal correction to Energy=                    0.009074
 Thermal correction to Enthalpy=                  0.010018
 Thermal correction to Gibbs Free Energy=        -0.017056
 Sum of electronic and zero-point Energies=           -100.822946
 Sum of electronic and thermal Energies=              -100.819652
 Sum of electronic and thermal Enthalpies=            -100.818708
 Sum of electronic and thermal Free Energies=         -100.845782

                     E (Thermal)             CV                S
                      KCal/Mol        Cal/Mol-Kelvin    Cal/Mol-Kelvin
 Total                    5.694              7.292             56.982
 Electronic               0.000              0.000              1.377
 Translational            0.889              2.981             35.068
 Rotational               0.592              1.987             13.474
 Vibrational              4.213              2.324              7.063
 Vibration     1          0.593              1.986              6.999

 Normal termination of Gaussian 16 at Fri Aug 22 19:30:07 2025.
