 Gaussian 16, Revision C.01,
 Gaussian 16:  ES64L-G16RevC.01  3-Jul-2019

 -----------------------------------------
 # sp b3lyp/6-311g** Force nosymm scf=(qc)
 -----------------------------------------

 -------------------
 Title Card Required
 -------------------
 Symbolic Z-matrix:
 Charge =  0 Multiplicity = 2

                          Input orientation:
 ---------------------------------------------------------------------
 Center     Atomic      Atomic             Coordinates (Angstroms)
 Number     Number       Type             X           Y           Z
 ---------------------------------------------------------------------
      1          1           0        0.000000    0.000000    0.000000
      2          1           0       -3.550000    0.000000    0.000000
      3          9           0        2.200000    0.000000    0.000000
 ---------------------------------------------------------------------

 SCF Done:  E(UB3LYP) =  -100.776114393     a.u. after   14 cycles

 Alpha  occ. eigenvalues --  -24.67079  -1.08620  -0.38406  -0.38406  -0.36794
 Alpha  occ. eigenvalues --   -0.33085
 Alpha virt. eigenvalues --   -0.21916   0.20589   0.27885   0.91392   0.95619
 Alpha virt. eigenvalues --    0.95619   1.08221   1.21509   1.21509   1.24364
 Alpha virt. eigenvalues --    1.24364   1.24414   1.42079   2.10799   2.15542

  Beta  occ. eigenvalues --  -24.69699  -1.16011  -0.48754  -0.41004  -0.41004
  Beta virt. eigenvalues --   -0.12565  -0.04622   0.31007   0.40166   0.88458
  Beta virt. eigenvalues --    0.94538   0.94538   1.06064   1.37583   1.37583
  Beta virt. eigenvalues --    1.47877   1.47877   1.47995   1.51941   2.32356

 Mulliken charges and spin densities:
               1          2
     1  H    0.144628   0.826093
     2  H    0.001010   0.999012
     3  F   -0.145638  -0.825105
 Sum of Mulliken charges =   0.00000   1.00000

 Dipole moment (field-independent basis, Debye):
    X=             -1.6222    Y=              0.0000    Z=              0.0000  Tot=              1.6222
 Quadrupole moment (field-independent basis, Debye-Ang):
   XX=             -9.8652   YY=             -7.5172   ZZ=             -7.5172
   XY=             -0.0000   XZ=             -0.0000   YZ=              0.0000

  Exact polarizability:      28.459      -0.000       2.041      -0.000      -0.000       2.041
 Approx polarizability:      39.538      -0.000       1.929      -0.000       0.000       1.929

 ******    1 imaginary frequencies (negative Signs) ******

                      1                      2                      3
                      A                      A                      A
 Frequencies --   -853.7428                69.1968               356.9707
 Red. masses --      1.0593                 1.0522                 1.0246
 Frc consts  --      0.4549                 0.0030                 0.0769
 IR Inten    --     99.4351                 0.1493                19.8729

                      4
                      A
 Frequencies --    356.9707
 Red. masses --      1.0246
 Frc consts  --      0.0769
 IR Inten    --     19.8729

 - Thermochemistry -
 -------------------
 Temperature   298.150 Kelvin.  Pressure   1.00000 Atm.
 Atom     1 has atomic number  1 and mass   1.00783

 Molecular mass:    21.01405 amu.
 Principal axes and moments of inertia in atomic units:
                           1         2         3
     Eigenvalues --     0.00000 125.50223 125.50223
           X            1.00000  -0.00000   0.00000
           Y            0.00000   1.00000   0.00000
           Z            0.00000   0.00000   1.00000
 This molecule is a prolate symmetric top.
 Rotational symmetry number  1.
 Rotational temperature (Kelvin)      0.69014
 Rotational constant (GHZ):          14.380152
    1 imaginary frequencies ignored.
 Zero-point vibrational energy       4684.2 (Joules/Mol)
                                    1.11955 (Kcal/Mol)
 Warning -- explicit consideration of   3 degrees of freedom as
           vibrations may cause significant error
 Vibrational temperatures:     99.56   513.60   513.60
          (Kelvin)

 Zero-point correction=                           0.001784 (Hartree/Particle)
 Thermal correction to Energy=                    0.005647
 Thermal correction to Enthalpy=                  0.006591
 Thermal correction to Gibbs Free Energy=        -0.020462
 Sum of electronic and zero-point Energies=           -100.774330
 Sum of electronic and thermal Energies=              -100.770467
 Sum of electronic and thermal Enthalpies=            -100.769523
 Sum of electronic and thermal Free Energies=         -100.796576

                     E (Thermal)             CV                S
                      KCal/Mol        Cal/Mol-Kelvin    Cal/Mol-Kelvin
 Total                    3.544             10.059             56.939
 Electronic               0.000              0.000              1.377
 Translational            0.889              2.981             35.068
 Rotational               0.592              1.987             14.046
 Vibrational              2.062              5.091              6.447
 Vibration     1          0.598              1.969              4.176
 Vibration     2          0.732              1.561              1.135
 Vibration     3          0.732              1.561              1.135

 Normal termination of Gaussian 16 at Fri Aug 22 17:13:07 2025.
