 Gaussian 16, Revision C.01,
 Gaussian 16:  ES64L-G16RevC.01  3-Jul-2019

 -----------------------------------------
 # sp b3lyp/6-311g** Force nosymm scf=(qc)
 -----------------------------------------

 -------------------
 Title Card Required
 -------------------
 Symbolic Z-matrix:
 Charge =  0 Multiplicity = 2

                          Input orientation:
 ---------------------------------------------------------------------
 Center     Atomic      Atomic             Coordinates (Angstroms)
 Number     Number       Type             X           Y           Z
 ---------------------------------------------------------------------
      1          1           0        0.000000    0.000000    0.000000
      2          1           0       -1.900000    0.000000    0.000000
      3          9           0        2.900000    0.000000    0.000000
 ---------------------------------------------------------------------

 SCF Done:  E(UB3LYP) =  -100.781848062     a.u. after   22 cycles

 Alpha  occ. eigenvalues --  -24.74064  -1.20121  -0.53184  -0.44655  -0.44655
 Alpha  occ. eigenvalues --   -0.34043
 Alpha virt. eigenvalues --   -0.11965   0.25291   0.31357   0.89959   0.92282
 Alpha virt. eigenvalues --    0.92282   1.04501   1.13219   1.23847   1.23847
 Alpha virt. eigenvalues --    1.36201   1.36201   1.54622   2.12586   2.37817

  Beta  occ. eigenvalues --  -24.71046  -1.11474  -0.41635  -0.41635  -0.34081
  Beta virt. eigenvalues --   -0.24868  -0.11412   0.26036   0.31634   0.93738
  Beta virt. eigenvalues --    0.93738   0.98488   1.08177   1.13707   1.23781
  Beta virt. eigenvalues --    1.23781   1.37003   1.37003   1.55265   2.13733

 Mulliken charges and spin densities:
               1          2
     1  H    0.018811  -0.765739
     2  H    0.019559   0.809703
     3  F   -0.038370   0.956036
 Sum of Mulliken charges =   0.00000   1.00000

 Dipole moment (field-independent basis, Debye):
    X=             -0.7472    Y=              0.0000    Z=              0.0000  Tot=              0.7472
 Quadrupole moment (field-independent basis, Debye-Ang):
   XX=             -7.3133   YY=             -7.7169   ZZ=             -7.7169
   XY=             -0.0000   XZ=             -0.0000   YZ=             -0.0000

  Exact polarizability:      61.547      -0.000       2.005      -0.000       0.000       2.005
 Approx polarizability:      61.327      -0.000       1.939      -0.000       0.000       1.939

 ******    2 imaginary frequencies (negative Signs) ******

                      1                      2                      3
                      A                      A                      A
 Frequencies --  -1553.7221              -262.1140               648.2725
 Red. masses --      1.0080                 1.1083                 1.0136
 Frc consts  --      1.4337                 0.0449                 0.2510
 IR Inten    --     65.0247                33.8198                 0.0995

                      4
                      A
 Frequencies --    648.2725
 Red. masses --      1.0136
 Frc consts  --      0.2510
 IR Inten    --      0.0995

 - Thermochemistry -
 -------------------
 Temperature   298.150 Kelvin.  Pressure   1.00000 Atm.
 Atom     1 has atomic number  1 and mass   1.00783

 Molecular mass:    21.01405 amu.
 Principal axes and moments of inertia in atomic units:
                           1         2         3
     Eigenvalues --     0.00000 102.95495 102.95495
           X            1.00000  -0.00000   0.00000
           Y            0.00000   1.00000   0.00000
           Z            0.00000   0.00000   1.00000
 This molecule is a prolate symmetric top.
 Rotational symmetry number  1.
 Rotational temperature (Kelvin)      0.84128
 Rotational constant (GHZ):          17.529425
    2 imaginary frequencies ignored.
 Zero-point vibrational energy       7755.1 (Joules/Mol)
                                    1.85350 (Kcal/Mol)
 Vibrational temperatures:    932.72   932.72
          (Kelvin)

 Zero-point correction=                           0.002954 (Hartree/Particle)
 Thermal correction to Energy=                    0.005585
 Thermal correction to Enthalpy=                  0.006529
 Thermal correction to Gibbs Free Energy=        -0.017630
 Sum of electronic and zero-point Energies=           -100.778894
 Sum of electronic and thermal Energies=              -100.776263
 Sum of electronic and thermal Enthalpies=            -100.775319
 Sum of electronic and thermal Free Energies=         -100.799478

                     E (Thermal)             CV                S
                      KCal/Mol        Cal/Mol-Kelvin    Cal/Mol-Kelvin
 Total                    3.504              6.831             50.846
 Electronic               0.000              0.000              1.377
 Translational            0.889              2.981             35.068
 Rotational               0.592              1.987             13.653
 Vibrational              2.023              1.863              0.747

 Normal termination of Gaussian 16 at Fri Aug 22 19:03:00 2025.
