 Gaussian 16, Revision C.01,
 Gaussian 16:  ES64L-G16RevC.01  3-Jul-2019

 -----------------------------------------
 # sp b3lyp/6-311g** Force nosymm scf=(qc)
 -----------------------------------------

 -------------------
 Title Card Required
 -------------------
 Symbolic Z-matrix:
 Charge =  0 Multiplicity = 2

                          Input orientation:
 ---------------------------------------------------------------------
 Center     Atomic      Atomic             Coordinates (Angstroms)
 Number     Number       Type             X           Y           Z
 ---------------------------------------------------------------------
      1          1           0        0.000000    0.000000    0.000000
      2          1           0       -3.550000    0.000000    0.000000
      3          9           0        2.550000    0.000000    0.000000
 ---------------------------------------------------------------------

 SCF Done:  E(UB3LYP) =  -100.766442858     a.u. after   21 cycles

 Alpha  occ. eigenvalues --  -24.72022  -1.18222  -0.51128  -0.42948  -0.42948
 Alpha  occ. eigenvalues --   -0.32838
 Alpha virt. eigenvalues --   -0.09986   0.23529   0.35411   0.89789   0.93463
 Alpha virt. eigenvalues --    0.93463   1.06152   1.24670   1.24670   1.24807
 Alpha virt. eigenvalues --    1.41015   1.41015   1.44375   2.14460   2.37166

  Beta  occ. eigenvalues --  -24.69155  -1.10054  -0.40088  -0.40088  -0.35158
  Beta virt. eigenvalues --   -0.23523  -0.06642   0.23904   0.37936   0.94846
  Beta virt. eigenvalues --    0.94846   0.96570   1.08648   1.22248   1.22248
  Beta virt. eigenvalues --    1.28361   1.45819   1.46087   1.46087   2.13034

 Mulliken charges and spin densities:
               1          2
     1  H    0.082694  -0.904503
     2  H    0.000738   0.998172
     3  F   -0.083432   0.906332
 Sum of Mulliken charges =  -0.00000   1.00000

 Dipole moment (field-independent basis, Debye):
    X=             -1.0966    Y=              0.0000    Z=             -0.0000  Tot=              1.0966
 Quadrupole moment (field-independent basis, Debye-Ang):
   XX=             -9.2159   YY=             -7.5760   ZZ=             -7.5760
   XY=              0.0000   XZ=             -0.0000   YZ=              0.0000

  Exact polarizability:      31.118       0.000       2.025      -0.000       0.000       2.025
 Approx polarizability:      38.618       0.000       1.921      -0.000      -0.000       1.921

 ******    2 imaginary frequencies (negative Signs) ******

                      1                      2                      3
                      A                      A                      A
 Frequencies --   -587.0220              -114.0273               226.8577
 Red. masses --      1.0542                 1.0573                 1.0224
 Frc consts  --      0.2140                 0.0081                 0.0310
 IR Inten    --     75.9443                 0.2497                 6.5452

                      4
                      A
 Frequencies --    226.8577
 Red. masses --      1.0224
 Frc consts  --      0.0310
 IR Inten    --      6.5452

 - Thermochemistry -
 -------------------
 Temperature   298.150 Kelvin.  Pressure   1.00000 Atm.
 Atom     1 has atomic number  1 and mass   1.00783

 Molecular mass:    21.01405 amu.
 Principal axes and moments of inertia in atomic units:
                           1         2         3
     Eigenvalues --     0.00000 144.40678 144.40678
           X            1.00000  -0.00000   0.00000
           Y            0.00000   1.00000   0.00000
           Z            0.00000   0.00000   1.00000
 This molecule is a prolate symmetric top.
 Rotational symmetry number  1.
 Rotational temperature (Kelvin)      0.59979
 Rotational constant (GHZ):          12.497621
    2 imaginary frequencies ignored.
 Zero-point vibrational energy       2713.8 (Joules/Mol)
                                    0.64862 (Kcal/Mol)
 Warning -- explicit consideration of   2 degrees of freedom as
           vibrations may cause significant error
 Vibrational temperatures:    326.40   326.40
          (Kelvin)

 Zero-point correction=                           0.001034 (Hartree/Particle)
 Thermal correction to Energy=                    0.004434
 Thermal correction to Enthalpy=                  0.005378
 Thermal correction to Gibbs Free Energy=        -0.020554
 Sum of electronic and zero-point Energies=           -100.765409
 Sum of electronic and thermal Energies=              -100.762009
 Sum of electronic and thermal Enthalpies=            -100.761065
 Sum of electronic and thermal Free Energies=         -100.786997

                     E (Thermal)             CV                S
                      KCal/Mol        Cal/Mol-Kelvin    Cal/Mol-Kelvin
 Total                    2.782              8.568             54.578
 Electronic               0.000              0.000              1.377
 Translational            0.889              2.981             35.068
 Rotational               0.592              1.987             14.325
 Vibrational              1.301              3.600              3.807
 Vibration     1          0.651              1.800              1.904
 Vibration     2          0.651              1.800              1.904

 Normal termination of Gaussian 16 at Fri Aug 22 17:55:21 2025.
