 Gaussian 16, Revision C.01,
 Gaussian 16:  ES64L-G16RevC.01  3-Jul-2019

 -----------------------------------------
 # sp b3lyp/6-311g** Force nosymm scf=(qc)
 -----------------------------------------

 -------------------
 Title Card Required
 -------------------
 Symbolic Z-matrix:
 Charge =  0 Multiplicity = 2

                          Input orientation:
 ---------------------------------------------------------------------
 Center     Atomic      Atomic             Coordinates (Angstroms)
 Number     Number       Type             X           Y           Z
 ---------------------------------------------------------------------
      1          1           0        0.000000    0.000000    0.000000
      2          1           0       -3.200000    0.000000    0.000000
      3          9           0        0.550000    0.000000    0.000000
 ---------------------------------------------------------------------

 SCF Done:  E(UB3LYP) =  -100.519264052     a.u. after    6 cycles

 Alpha  occ. eigenvalues --  -24.62691  -1.38428  -0.62257  -0.43630  -0.43630
 Alpha  occ. eigenvalues --   -0.33501
 Alpha virt. eigenvalues --    0.07887   0.25406   0.60366   0.91196   0.91219
 Alpha virt. eigenvalues --    0.91219   1.23321   1.24016   1.24016   1.37441
 Alpha virt. eigenvalues --    1.54139   1.54139   1.96840   2.15222   3.65608

  Beta  occ. eigenvalues --  -24.62690  -1.38425  -0.62256  -0.43630  -0.43630
  Beta virt. eigenvalues --   -0.05503   0.08641   0.39476   0.60444   0.91198
  Beta virt. eigenvalues --    0.91216   0.91216   1.35275   1.50467   1.50467
  Beta virt. eigenvalues --    1.52180   1.54141   1.54141   1.96740   2.45164

 Mulliken charges and spin densities:
               1          2
     1  H    0.199214   0.000811
     2  H    0.001300   0.998409
     3  F   -0.200515   0.000780
 Sum of Mulliken charges =   0.00000   1.00000

 Dipole moment (field-independent basis, Debye):
    X=             -1.3775    Y=              0.0000    Z=              0.0000  Tot=              1.3775
 Quadrupole moment (field-independent basis, Debye-Ang):
   XX=             -6.7710   YY=             -6.4954   ZZ=             -6.4954
   XY=              0.0000   XZ=              0.0000   YZ=             -0.0000

  Exact polarizability:       3.507      -0.000       2.433       0.000       0.000       2.433
 Approx polarizability:       3.659      -0.000       2.411      -0.000       0.000       2.411

 ******    3 imaginary frequencies (negative Signs) ******

                      1                      2                      3
                      A                      A                      A
 Frequencies --  -7498.4183             -7498.4183               -25.4046
 Red. masses --      1.0438                 1.0438                 1.0532
 Frc consts  --     34.5799                34.5799                 0.0004
 IR Inten    --    256.0481               256.0481                 0.0503

                      4
                      A
 Frequencies --  15777.8736
 Red. masses --      1.0583
 Frc consts  --    155.2246
 IR Inten    --     90.6077

 - Thermochemistry -
 -------------------
 Temperature   298.150 Kelvin.  Pressure   1.00000 Atm.
 Atom     1 has atomic number  1 and mass   1.00783

 Molecular mass:    21.01405 amu.
 Principal axes and moments of inertia in atomic units:
                           1         2         3
     Eigenvalues --     0.00000  48.50826  48.50826
           X            1.00000  -0.00000   0.00000
           Y            0.00000   1.00000   0.00000
           Z            0.00000   0.00000   1.00000
 This molecule is a prolate symmetric top.
 Rotational symmetry number  1.
 Rotational temperature (Kelvin)      1.78555
 Rotational constant (GHZ):          37.204826
    3 imaginary frequencies ignored.
 Zero-point vibrational energy      94372.6 (Joules/Mol)
                                   22.55560 (Kcal/Mol)
 Vibrational temperatures:  22700.84
          (Kelvin)

 Zero-point correction=                           0.035945 (Hartree/Particle)
 Thermal correction to Energy=                    0.038305
 Thermal correction to Enthalpy=                  0.039249
 Thermal correction to Gibbs Free Energy=         0.016156
 Sum of electronic and zero-point Energies=           -100.483319
 Sum of electronic and thermal Energies=              -100.480959
 Sum of electronic and thermal Enthalpies=            -100.480015
 Sum of electronic and thermal Free Energies=         -100.503108

                     E (Thermal)             CV                S
                      KCal/Mol        Cal/Mol-Kelvin    Cal/Mol-Kelvin
 Total                   24.037              4.968             48.603
 Electronic               0.000              0.000              1.377
 Translational            0.889              2.981             35.068
 Rotational               0.592              1.987             12.157
 Vibrational             22.556              0.000              0.000

 Normal termination of Gaussian 16 at Fri Aug 22 15:40:07 2025.
