 Gaussian 16, Revision C.01,
 Gaussian 16:  ES64L-G16RevC.01  3-Jul-2019

 -----------------------------------------
 # sp b3lyp/6-311g** Force nosymm scf=(qc)
 -----------------------------------------

 -------------------
 Title Card Required
 -------------------
 Symbolic Z-matrix:
 Charge =  0 Multiplicity = 2

                          Input orientation:
 ---------------------------------------------------------------------
 Center     Atomic      Atomic             Coordinates (Angstroms)
 Number     Number       Type             X           Y           Z
 ---------------------------------------------------------------------
      1          1           0        0.000000    0.000000    0.000000
      2          1           0       -2.900000    0.000000    0.000000
      3          9           0        0.750000    0.000000    0.000000
 ---------------------------------------------------------------------

 SCF Done:  E(UB3LYP) =  -100.922063966     a.u. after    6 cycles

 Alpha  occ. eigenvalues --  -24.63432  -1.25451  -0.57371  -0.41170  -0.41170
 Alpha  occ. eigenvalues --   -0.34018
 Alpha virt. eigenvalues --    0.06318   0.25466   0.49160   0.93946   0.93946
 Alpha virt. eigenvalues --    0.96503   1.21761   1.23514   1.23514   1.35066
 Alpha virt. eigenvalues --    1.41732   1.41732   2.00801   2.14742   2.67719

  Beta  occ. eigenvalues --  -24.63429  -1.25441  -0.57360  -0.41167  -0.41167
  Beta virt. eigenvalues --   -0.06764   0.07460   0.38942   0.49390   0.93946
  Beta virt. eigenvalues --    0.93946   0.96503   1.30747   1.41732   1.41732
  Beta virt. eigenvalues --    1.50032   1.50032   1.51529   2.00787   2.44049

 Mulliken charges and spin densities:
               1          2
     1  H    0.266003   0.001679
     2  H    0.002393   0.996670
     3  F   -0.268396   0.001651
 Sum of Mulliken charges =   0.00000   1.00000

 Dipole moment (field-independent basis, Debye):
    X=             -1.6914    Y=             -0.0000    Z=             -0.0000  Tot=              1.6914
 Quadrupole moment (field-independent basis, Debye-Ang):
   XX=             -7.3482   YY=             -6.7153   ZZ=             -6.7153
   XY=             -0.0000   XZ=             -0.0000   YZ=              0.0000

  Exact polarizability:       5.097      -0.000       2.460      -0.000      -0.000       2.460
 Approx polarizability:       5.432      -0.000       2.443      -0.000      -0.000       2.443

 ******    3 imaginary frequencies (negative Signs) ******

                      1                      2                      3
                      A                      A                      A
 Frequencies --  -2693.1059             -2693.1059               -28.0770
 Red. masses --      1.0384                 1.0384                 1.0532
 Frc consts  --      4.4375                 4.4375                 0.0005
 IR Inten    --    198.2288               198.2288                 0.1439

                      4
                      A
 Frequencies --   7586.2175
 Red. masses --      1.0583
 Frc consts  --     35.8854
 IR Inten    --    114.6012

 - Thermochemistry -
 -------------------
 Temperature   298.150 Kelvin.  Pressure   1.00000 Atm.
 Atom     1 has atomic number  1 and mass   1.00783

 Molecular mass:    21.01405 amu.
 Principal axes and moments of inertia in atomic units:
                           1         2         3
     Eigenvalues --     0.00000  46.63056  46.63056
           X            1.00000  -0.00000   0.00000
           Y            0.00000   1.00000   0.00000
           Z            0.00000   0.00000   1.00000
 This molecule is a prolate symmetric top.
 Rotational symmetry number  1.
 Rotational temperature (Kelvin)      1.85745
 Rotational constant (GHZ):          38.702968
    3 imaginary frequencies ignored.
 Zero-point vibrational energy      45375.7 (Joules/Mol)
                                   10.84504 (Kcal/Mol)
 Vibrational temperatures:  10914.87
          (Kelvin)

 Zero-point correction=                           0.017283 (Hartree/Particle)
 Thermal correction to Energy=                    0.019643
 Thermal correction to Enthalpy=                  0.020587
 Thermal correction to Gibbs Free Energy=        -0.002468
 Sum of electronic and zero-point Energies=           -100.904781
 Sum of electronic and thermal Energies=              -100.902421
 Sum of electronic and thermal Enthalpies=            -100.901477
 Sum of electronic and thermal Free Energies=         -100.924532

                     E (Thermal)             CV                S
                      KCal/Mol        Cal/Mol-Kelvin    Cal/Mol-Kelvin
 Total                   12.326              4.968             48.524
 Electronic               0.000              0.000              1.377
 Translational            0.889              2.981             35.068
 Rotational               0.592              1.987             12.079
 Vibrational             10.845              0.000              0.000

 Normal termination of Gaussian 16 at Fri Aug 22 15:49:20 2025.
