 Gaussian 16, Revision C.01,
 Gaussian 16:  ES64L-G16RevC.01  3-Jul-2019

 -----------------------------------------
 # sp b3lyp/6-311g** Force nosymm scf=(qc)
 -----------------------------------------

 -------------------
 Title Card Required
 -------------------
 Symbolic Z-matrix:
 Charge =  0 Multiplicity = 2

                          Input orientation:
 ---------------------------------------------------------------------
 Center     Atomic      Atomic             Coordinates (Angstroms)
 Number     Number       Type             X           Y           Z
 ---------------------------------------------------------------------
      1          1           0        0.000000    0.000000    0.000000
      2          1           0       -1.750000    0.000000    0.000000
      3          9           0        0.950000    0.000000    0.000000
 ---------------------------------------------------------------------

 SCF Done:  E(UB3LYP) =  -100.971520457     a.u. after    6 cycles

 Alpha  occ. eigenvalues --  -24.63611  -1.17125  -0.53054  -0.38824  -0.38824
 Alpha  occ. eigenvalues --   -0.36567
 Alpha virt. eigenvalues --    0.07085   0.22781   0.35636   0.94514   0.94514
 Alpha virt. eigenvalues --    0.98501   1.14709   1.19619   1.19619   1.38123
 Alpha virt. eigenvalues --    1.38123   1.52529   1.94025   2.27731   2.37465

  Beta  occ. eigenvalues --  -24.63481  -1.16797  -0.52249  -0.38711  -0.38711
  Beta virt. eigenvalues --   -0.13651   0.09348   0.30702   0.37765   0.94558
  Beta virt. eigenvalues --    0.94558   0.98893   1.24135   1.33062   1.33062
  Beta virt. eigenvalues --    1.42902   1.42902   1.57689   2.02996   2.33103

 Mulliken charges and spin densities:
               1          2
     1  H    0.287848   0.006201
     2  H    0.022775   0.960239
     3  F   -0.310623   0.033560
 Sum of Mulliken charges =   0.00000   1.00000

 Dipole moment (field-independent basis, Debye):
    X=             -2.1731    Y=             -0.0000    Z=              0.0000  Tot=              2.1731
 Quadrupole moment (field-independent basis, Debye-Ang):
   XX=             -7.5818   YY=             -6.8420   ZZ=             -6.8420
   XY=             -0.0000   XZ=              0.0000   YZ=              0.0000

  Exact polarizability:      10.708      -0.000       2.497      -0.000      -0.000       2.497
 Approx polarizability:      11.387      -0.000       2.487       0.000      -0.000       2.487

                      1                      2                      3
                      A                      A                      A
 Frequencies --    293.7688               587.3096               587.3096
 Red. masses --      1.0518                 1.0267                 1.0267
 Frc consts  --      0.0535                 0.2087                 0.2087
 IR Inten    --      1.5580               126.0761               126.0761

                      4
                      A
 Frequencies --   3599.5996
 Red. masses --      1.0598
 Frc consts  --      8.0905
 IR Inten    --    209.7388

 - Thermochemistry -
 -------------------
 Temperature   298.150 Kelvin.  Pressure   1.00000 Atm.
 Atom     1 has atomic number  1 and mass   1.00783

 Molecular mass:    21.01405 amu.
 Principal axes and moments of inertia in atomic units:
                           1         2         3
     Eigenvalues --     0.00000  27.18532  27.18532
           X            1.00000  -0.00000   0.00000
           Y            0.00000   1.00000   0.00000
           Z            0.00000   0.00000   1.00000
 This molecule is a prolate symmetric top.
 Rotational symmetry number  1.
 Rotational temperature (Kelvin)      3.18605
 Rotational constant (GHZ):          66.386604
 Zero-point vibrational energy      30313.3 (Joules/Mol)
                                    7.24505 (Kcal/Mol)
 Warning -- explicit consideration of   3 degrees of freedom as
           vibrations may cause significant error
 Vibrational temperatures:    422.67   845.01   845.01  5179.02
          (Kelvin)

 Zero-point correction=                           0.011546 (Hartree/Particle)
 Thermal correction to Energy=                    0.014668
 Thermal correction to Enthalpy=                  0.015613
 Thermal correction to Gibbs Free Energy=        -0.008072
 Sum of electronic and zero-point Energies=           -100.959975
 Sum of electronic and thermal Energies=              -100.956852
 Sum of electronic and thermal Enthalpies=            -100.955908
 Sum of electronic and thermal Free Energies=         -100.979592

                     E (Thermal)             CV                S
                      KCal/Mol        Cal/Mol-Kelvin    Cal/Mol-Kelvin
 Total                    9.205              8.771             49.848
 Electronic               0.000              0.000              1.377
 Translational            0.889              2.981             35.068
 Rotational               0.592              1.987             11.007
 Vibrational              7.723              3.803              2.396
 Vibration     1          0.689              1.685              1.452
 Vibration     2          0.944              1.059              0.472
 Vibration     3          0.944              1.059              0.472

 Normal termination of Gaussian 16 at Fri Aug 22 15:57:59 2025.
