 Gaussian 16, Revision C.01,
 Gaussian 16:  ES64L-G16RevC.01  3-Jul-2019

 -----------------------------------------
 # sp b3lyp/6-311g** Force nosymm scf=(qc)
 -----------------------------------------

 -------------------
 Title Card Required
 -------------------
 Symbolic Z-matrix:
 Charge =  0 Multiplicity = 2

                          Input orientation:
 ---------------------------------------------------------------------
 Center     Atomic      Atomic             Coordinates (Angstroms)
 Number     Number       Type             X           Y           Z
 ---------------------------------------------------------------------
      1          1           0        0.000000    0.000000    0.000000
      2          1           0       -3.900000    0.000000    0.000000
      3          9           0        1.950000    0.000000    0.000000
 ---------------------------------------------------------------------

 SCF Done:  E(UB3LYP) =  -100.790648392     a.u. after   17 cycles

 Alpha  occ. eigenvalues --  -24.67849  -1.14152  -0.46793  -0.39438  -0.39438
 Alpha  occ. eigenvalues --   -0.33250
 Alpha virt. eigenvalues --   -0.14119   0.22298   0.30948   0.89446   0.94865
 Alpha virt. eigenvalues --    0.94865   1.05586   1.24247   1.24255   1.24255
 Alpha virt. eigenvalues --    1.34966   1.34966   1.62880   2.13595   2.28677

  Beta  occ. eigenvalues --  -24.65567  -1.07793  -0.38275  -0.37193  -0.37193
  Beta virt. eigenvalues --   -0.20405  -0.06362   0.22213   0.38026   0.90483
  Beta virt. eigenvalues --    0.95350   0.95350   1.08039   1.22236   1.22236
  Beta virt. eigenvalues --    1.46255   1.46513   1.46513   1.56248   2.11550

 Mulliken charges and spin densities:
               1          2
     1  H    0.207664  -0.716726
     2  H    0.000611   0.999138
     3  F   -0.208275   0.717588
 Sum of Mulliken charges =   0.00000   1.00000

 Dipole moment (field-independent basis, Debye):
    X=             -2.0108    Y=             -0.0000    Z=              0.0000  Tot=              2.0108
 Quadrupole moment (field-independent basis, Debye-Ang):
   XX=            -10.1438   YY=             -7.4746   ZZ=             -7.4746
   XY=              0.0000   XZ=             -0.0000   YZ=              0.0000

  Exact polarizability:      24.276      -0.000       2.069       0.000      -0.000       2.069
 Approx polarizability:      36.305      -0.000       1.955      -0.000      -0.000       1.955

 ******    2 imaginary frequencies (negative Signs) ******

                      1                      2                      3
                      A                      A                      A
 Frequencies --  -1212.6721               -73.4926               520.0371
 Red. masses --      1.0579                 1.0537                 1.0281
 Frc consts  --      0.9166                 0.0034                 0.1638
 IR Inten    --    127.2367                 0.0490                41.0453

                      4
                      A
 Frequencies --    520.0371
 Red. masses --      1.0281
 Frc consts  --      0.1638
 IR Inten    --     41.0453

 - Thermochemistry -
 -------------------
 Temperature   298.150 Kelvin.  Pressure   1.00000 Atm.
 Atom     1 has atomic number  1 and mass   1.00783

 Molecular mass:    21.01405 amu.
 Principal axes and moments of inertia in atomic units:
                           1         2         3
     Eigenvalues --     0.00000 126.35090 126.35090
           X            1.00000  -0.00000   0.00000
           Y            0.00000   1.00000   0.00000
           Z            0.00000   0.00000   1.00000
 This molecule is a prolate symmetric top.
 Rotational symmetry number  1.
 Rotational temperature (Kelvin)      0.68550
 Rotational constant (GHZ):          14.283565
    2 imaginary frequencies ignored.
 Zero-point vibrational energy       6221.0 (Joules/Mol)
                                    1.48686 (Kcal/Mol)
 Warning -- explicit consideration of   2 degrees of freedom as
           vibrations may cause significant error
 Vibrational temperatures:    748.22   748.22
          (Kelvin)

 Zero-point correction=                           0.002369 (Hartree/Particle)
 Thermal correction to Energy=                    0.005149
 Thermal correction to Enthalpy=                  0.006094
 Thermal correction to Gibbs Free Energy=        -0.018483
 Sum of electronic and zero-point Energies=           -100.788279
 Sum of electronic and thermal Energies=              -100.785499
 Sum of electronic and thermal Enthalpies=            -100.784555
 Sum of electronic and thermal Free Energies=         -100.809131

                     E (Thermal)             CV                S
                      KCal/Mol        Cal/Mol-Kelvin    Cal/Mol-Kelvin
 Total                    3.231              7.379             51.725
 Electronic               0.000              0.000              1.377
 Translational            0.889              2.981             35.068
 Rotational               0.592              1.987             14.060
 Vibrational              1.750              2.411              1.220
 Vibration     1          0.875              1.206              0.610
 Vibration     2          0.875              1.206              0.610

 Normal termination of Gaussian 16 at Fri Aug 22 16:54:54 2025.
