 Gaussian 16, Revision C.01,
 Gaussian 16:  ES64L-G16RevC.01  3-Jul-2019

 -----------------------------------------
 # sp b3lyp/6-311g** Force nosymm scf=(qc)
 -----------------------------------------

 -------------------
 Title Card Required
 -------------------
 Symbolic Z-matrix:
 Charge =  0 Multiplicity = 2

                          Input orientation:
 ---------------------------------------------------------------------
 Center     Atomic      Atomic             Coordinates (Angstroms)
 Number     Number       Type             X           Y           Z
 ---------------------------------------------------------------------
      1          1           0        0.000000    0.000000    0.000000
      2          1           0       -1.300000    0.000000    0.000000
      3          9           0        2.700000    0.000000    0.000000
 ---------------------------------------------------------------------

 SCF Done:  E(UB3LYP) =  -100.854582395     a.u. after  135 cycles

 Alpha  occ. eigenvalues --  -24.76350  -1.22207  -0.55376  -0.46709  -0.46575
 Alpha  occ. eigenvalues --   -0.35473
 Alpha virt. eigenvalues --   -0.06118   0.23659   0.33317   0.86672   0.90803
 Alpha virt. eigenvalues --    0.92821   1.06314   1.15122   1.15130   1.16166
 Alpha virt. eigenvalues --    1.49227   1.49235   1.98923   2.28870   2.53860

  Beta  occ. eigenvalues --  -24.73220  -1.13218  -0.43598  -0.43438  -0.35353
  Beta virt. eigenvalues --   -0.26284  -0.05950   0.23774   0.33548   0.92286
  Beta virt. eigenvalues --    0.93595   0.96635   1.10021   1.15220   1.15226
  Beta virt. eigenvalues --    1.16546   1.49314   1.49321   1.99050   2.29010

 Mulliken charges and spin densities:
               1          2
     1  H   -0.001007  -0.015773
     2  H    0.000774   0.024908
     3  F    0.000232   0.990865
 Sum of Mulliken charges =  -0.00000   1.00000

 Dipole moment (field-independent basis, Debye):
    X=             -0.0408    Y=              0.0004    Z=              0.0023  Tot=              0.0409
 Quadrupole moment (field-independent basis, Debye-Ang):
   XX=             -6.1281   YY=             -7.5785   ZZ=             -7.0228
   XY=              0.0598   XZ=              0.3925   YZ=              0.0866

  Exact polarizability:      57.677      -0.605       2.074       0.088       0.049       2.381
 Approx polarizability:      40.105       0.013       2.106       0.088       0.058       2.478

 ******    2 imaginary frequencies (negative Signs) ******

                      1                      2                      3
                      A                      A                      A
 Frequencies --  -1110.5404              -163.6352              1383.9148
 Red. masses --      1.0085                 1.1076                 1.0115
 Frc consts  --      0.7328                 0.0175                 1.1414
 IR Inten    --    367.9243                18.6833                 0.5154

                      4
                      A
 Frequencies --   1393.7288
 Red. masses --      1.0115
 Frc consts  --      1.1576
 IR Inten    --     21.7975

 - Thermochemistry -
 -------------------
 Temperature   298.150 Kelvin.  Pressure   1.00000 Atm.
 Atom     1 has atomic number  1 and mass   1.00783

 Molecular mass:    21.01405 amu.
 Principal axes and moments of inertia in atomic units:
                           1         2         3
     Eigenvalues --     0.00000  76.07258  76.07258
           X            1.00000  -0.00000   0.00000
           Y            0.00000   1.00000   0.00000
           Z            0.00000   0.00000   1.00000
 This molecule is a prolate symmetric top.
 Rotational symmetry number  1.
 Rotational temperature (Kelvin)      1.13857
 Rotational constant (GHZ):          23.723937
    2 imaginary frequencies ignored.
 Zero-point vibrational energy      16614.0 (Joules/Mol)
                                    3.97084 (Kcal/Mol)
 Vibrational temperatures:   1991.14  2005.26
          (Kelvin)

 Zero-point correction=                           0.006328 (Hartree/Particle)
 Thermal correction to Energy=                    0.008704
 Thermal correction to Enthalpy=                  0.009648
 Thermal correction to Gibbs Free Energy=        -0.013887
 Sum of electronic and zero-point Energies=           -100.848254
 Sum of electronic and thermal Energies=              -100.845878
 Sum of electronic and thermal Enthalpies=            -100.844934
 Sum of electronic and thermal Free Energies=         -100.868470

                     E (Thermal)             CV                S
                      KCal/Mol        Cal/Mol-Kelvin    Cal/Mol-Kelvin
 Total                    5.462              5.188             49.535
 Electronic               0.000              0.000              1.377
 Translational            0.889              2.981             35.068
 Rotational               0.592              1.987             13.052
 Vibrational              3.981              0.220              0.038

 Normal termination of Gaussian 16 at Fri Aug 22 18:23:42 2025.
