 Gaussian 16, Revision C.01,
 Gaussian 16:  ES64L-G16RevC.01  3-Jul-2019

 -----------------------------------------
 # sp b3lyp/6-311g** Force nosymm scf=(qc)
 -----------------------------------------

 -------------------
 Title Card Required
 -------------------
 Symbolic Z-matrix:
 Charge =  0 Multiplicity = 2

                          Input orientation:
 ---------------------------------------------------------------------
 Center     Atomic      Atomic             Coordinates (Angstroms)
 Number     Number       Type             X           Y           Z
 ---------------------------------------------------------------------
      1          1           0        0.000000    0.000000    0.000000
      2          1           0       -3.450000    0.000000    0.000000
      3          9           0        0.750000    0.000000    0.000000
 ---------------------------------------------------------------------

 SCF Done:  E(UB3LYP) =  -100.921956830     a.u. after    6 cycles

 Alpha  occ. eigenvalues --  -24.63452  -1.25474  -0.57381  -0.41191  -0.41191
 Alpha  occ. eigenvalues --   -0.33508
 Alpha virt. eigenvalues --    0.05853   0.24886   0.49174   0.93924   0.93924
 Alpha virt. eigenvalues --    0.96515   1.23694   1.24005   1.24005   1.30841
 Alpha virt. eigenvalues --    1.41708   1.41708   2.00435   2.14573   2.67717

  Beta  occ. eigenvalues --  -24.63451  -1.25471  -0.57380  -0.41191  -0.41191
  Beta virt. eigenvalues --   -0.05419   0.06395   0.39438   0.49153   0.93924
  Beta virt. eigenvalues --    0.93924   0.96505   1.30229   1.41708   1.41708
  Beta virt. eigenvalues --    1.50942   1.50942   1.50948   2.00454   2.44630

 Mulliken charges and spin densities:
               1          2
     1  H    0.267480   0.000658
     2  H    0.000862   0.998927
     3  F   -0.268342   0.000416
 Sum of Mulliken charges =   0.00000   1.00000

 Dipole moment (field-independent basis, Debye):
    X=             -1.6687    Y=             -0.0000    Z=             -0.0000  Tot=              1.6687
 Quadrupole moment (field-independent basis, Debye-Ang):
   XX=             -7.4348   YY=             -6.7168   ZZ=             -6.7168
   XY=             -0.0000   XZ=             -0.0000   YZ=              0.0000

  Exact polarizability:       4.368       0.000       2.447       0.000      -0.000       2.447
 Approx polarizability:       4.805       0.000       2.429       0.000      -0.000       2.429

 ******    3 imaginary frequencies (negative Signs) ******

                      1                      2                      3
                      A                      A                      A
 Frequencies --  -2705.7457             -2705.7457               -42.4602
 Red. masses --      1.0409                 1.0409                 1.0532
 Frc consts  --      4.4897                 4.4897                 0.0011
 IR Inten    --    204.1786               204.1786                 0.0353

                      4
                      A
 Frequencies --   7586.7217
 Red. masses --      1.0583
 Frc consts  --     35.8899
 IR Inten    --    107.2164

 - Thermochemistry -
 -------------------
 Temperature   298.150 Kelvin.  Pressure   1.00000 Atm.
 Atom     1 has atomic number  1 and mass   1.00783

 Molecular mass:    21.01405 amu.
 Principal axes and moments of inertia in atomic units:
                           1         2         3
     Eigenvalues --     0.00000  61.28165  61.28165
           X            1.00000  -0.00000   0.00000
           Y            0.00000   1.00000   0.00000
           Z            0.00000   0.00000   1.00000
 This molecule is a prolate symmetric top.
 Rotational symmetry number  1.
 Rotational temperature (Kelvin)      1.41337
 Rotational constant (GHZ):          29.449944
    3 imaginary frequencies ignored.
 Zero-point vibrational energy      45378.7 (Joules/Mol)
                                   10.84576 (Kcal/Mol)
 Vibrational temperatures:  10915.60
          (Kelvin)

 Zero-point correction=                           0.017284 (Hartree/Particle)
 Thermal correction to Energy=                    0.019644
 Thermal correction to Enthalpy=                  0.020588
 Thermal correction to Gibbs Free Energy=        -0.002725
 Sum of electronic and zero-point Energies=           -100.904673
 Sum of electronic and thermal Energies=              -100.902313
 Sum of electronic and thermal Enthalpies=            -100.901368
 Sum of electronic and thermal Free Energies=         -100.924682

                     E (Thermal)             CV                S
                      KCal/Mol        Cal/Mol-Kelvin    Cal/Mol-Kelvin
 Total                   12.327              4.968             49.067
 Electronic               0.000              0.000              1.377
 Translational            0.889              2.981             35.068
 Rotational               0.592              1.987             12.622
 Vibrational             10.846              0.000              0.000

 Normal termination of Gaussian 16 at Fri Aug 22 15:49:40 2025.
