 Gaussian 16, Revision C.01,
 Gaussian 16:  ES64L-G16RevC.01  3-Jul-2019

 -----------------------------------------
 # sp b3lyp/6-311g** Force nosymm scf=(qc)
 -----------------------------------------

 -------------------
 Title Card Required
 -------------------
 Symbolic Z-matrix:
 Charge =  0 Multiplicity = 2

                          Input orientation:
 ---------------------------------------------------------------------
 Center     Atomic      Atomic             Coordinates (Angstroms)
 Number     Number       Type             X           Y           Z
 ---------------------------------------------------------------------
      1          1           0        0.000000    0.000000    0.000000
      2          1           0       -1.950000    0.000000    0.000000
      3          9           0        1.850000    0.000000    0.000000
 ---------------------------------------------------------------------

 SCF Done:  E(UB3LYP) =  -100.813172031     a.u. after   18 cycles

 Alpha  occ. eigenvalues --  -24.66849  -1.13168  -0.46015  -0.38569  -0.38569
 Alpha  occ. eigenvalues --   -0.37082
 Alpha virt. eigenvalues --   -0.13295   0.23494   0.29947   0.89636   0.95011
 Alpha virt. eigenvalues --    0.95011   1.04642   1.20722   1.20722   1.29553
 Alpha virt. eigenvalues --    1.33944   1.33944   1.67151   2.11423   2.30839

  Beta  occ. eigenvalues --  -24.64730  -1.07301  -0.38305  -0.36494  -0.36494
  Beta virt. eigenvalues --   -0.20836  -0.11021   0.25727   0.31342   0.91968
  Beta virt. eigenvalues --    0.95344   0.95344   1.08200   1.24215   1.24215
  Beta virt. eigenvalues --    1.35834   1.35834   1.40081   1.65099   2.12738

 Mulliken charges and spin densities:
               1          2
     1  H    0.180193  -0.544647
     2  H    0.050788   0.879489
     3  F   -0.230982   0.665159
 Sum of Mulliken charges =   0.00000   1.00000

 Dipole moment (field-independent basis, Debye):
    X=             -2.5773    Y=             -0.0000    Z=              0.0000  Tot=              2.5773
 Quadrupole moment (field-independent basis, Debye-Ang):
   XX=             -8.7440   YY=             -7.4950   ZZ=             -7.4950
   XY=             -0.0000   XZ=              0.0000   YZ=             -0.0000

  Exact polarizability:      45.981      -0.000       2.101       0.000      -0.000       2.101
 Approx polarizability:      57.949      -0.000       2.009       0.000       0.000       2.009

 ******    2 imaginary frequencies (negative Signs) ******

                      1                      2                      3
                      A                      A                      A
 Frequencies --  -1778.6164              -603.6895               732.4689
 Red. masses --      1.0250                 1.0885                 1.0186
 Frc consts  --      1.9104                 0.2337                 0.3220
 IR Inten    --    140.9344                21.2926                20.1822

                      4
                      A
 Frequencies --    732.4689
 Red. masses --      1.0186
 Frc consts  --      0.3220
 IR Inten    --     20.1822

 - Thermochemistry -
 -------------------
 Temperature   298.150 Kelvin.  Pressure   1.00000 Atm.
 Atom     1 has atomic number  1 and mass   1.00783

 Molecular mass:    21.01405 amu.
 Principal axes and moments of inertia in atomic units:
                           1         2         3
     Eigenvalues --     0.00000  58.77725  58.77725
           X            1.00000  -0.00000   0.00000
           Y            0.00000   1.00000   0.00000
           Z            0.00000   0.00000   1.00000
 This molecule is a prolate symmetric top.
 Rotational symmetry number  1.
 Rotational temperature (Kelvin)      1.47360
 Rotational constant (GHZ):          30.704760
    2 imaginary frequencies ignored.
 Zero-point vibrational energy       8762.3 (Joules/Mol)
                                    2.09423 (Kcal/Mol)
 Vibrational temperatures:   1053.86  1053.86
          (Kelvin)

 Zero-point correction=                           0.003337 (Hartree/Particle)
 Thermal correction to Energy=                    0.005898
 Thermal correction to Enthalpy=                  0.006843
 Thermal correction to Gibbs Free Energy=        -0.016688
 Sum of electronic and zero-point Energies=           -100.809835
 Sum of electronic and thermal Energies=              -100.807274
 Sum of electronic and thermal Enthalpies=            -100.806329
 Sum of electronic and thermal Free Energies=         -100.829860

                     E (Thermal)             CV                S
                      KCal/Mol        Cal/Mol-Kelvin    Cal/Mol-Kelvin
 Total                    3.701              6.505             49.524
 Electronic               0.000              0.000              1.377
 Translational            0.889              2.981             35.068
 Rotational               0.592              1.987             12.539
 Vibrational              2.220              1.537              0.540

 Normal termination of Gaussian 16 at Fri Aug 22 16:46:41 2025.
