 Gaussian 16, Revision C.01,
 Gaussian 16:  ES64L-G16RevC.01  3-Jul-2019

 -----------------------------------------
 # sp b3lyp/6-311g** Force nosymm scf=(qc)
 -----------------------------------------

 -------------------
 Title Card Required
 -------------------
 Symbolic Z-matrix:
 Charge =  0 Multiplicity = 2

                          Input orientation:
 ---------------------------------------------------------------------
 Center     Atomic      Atomic             Coordinates (Angstroms)
 Number     Number       Type             X           Y           Z
 ---------------------------------------------------------------------
      1          1           0        0.000000    0.000000    0.000000
      2          1           0       -2.400000    0.000000    0.000000
      3          9           0        2.900000    0.000000    0.000000
 ---------------------------------------------------------------------

 SCF Done:  E(UB3LYP) =  -100.766792964     a.u. after   23 cycles

 Alpha  occ. eigenvalues --  -24.73785  -1.19862  -0.52901  -0.44419  -0.44419
 Alpha  occ. eigenvalues --   -0.33309
 Alpha virt. eigenvalues --   -0.10997   0.25351   0.33227   0.89897   0.92460
 Alpha virt. eigenvalues --    0.92460   1.04584   1.24391   1.24391   1.26181
 Alpha virt. eigenvalues --    1.38972   1.38972   1.41740   2.14796   2.35638

  Beta  occ. eigenvalues --  -24.70781  -1.11259  -0.41413  -0.41413  -0.34043
  Beta virt. eigenvalues --   -0.24625  -0.09710   0.25728   0.34409   0.93913
  Beta virt. eigenvalues --    0.93913   0.98527   1.08460   1.23506   1.23506
  Beta virt. eigenvalues --    1.25261   1.41068   1.41068   1.43628   2.15801

 Mulliken charges and spin densities:
               1          2
     1  H    0.035011  -0.912149
     2  H    0.008224   0.960523
     3  F   -0.043235   0.951626
 Sum of Mulliken charges =  -0.00000   1.00000

 Dipole moment (field-independent basis, Debye):
    X=             -0.7371    Y=             -0.0000    Z=             -0.0000  Tot=              0.7371
 Quadrupole moment (field-independent basis, Debye-Ang):
   XX=             -8.0308   YY=             -7.6558   ZZ=             -7.6558
   XY=             -0.0000   XZ=             -0.0000   YZ=             -0.0000

  Exact polarizability:      47.471      -0.000       2.011      -0.000      -0.000       2.011
 Approx polarizability:      43.699      -0.000       1.921      -0.000      -0.000       1.921

 ******    2 imaginary frequencies (negative Signs) ******

                      1                      2                      3
                      A                      A                      A
 Frequencies --   -808.6895              -262.1051               306.6131
 Red. masses --      1.0097                 1.1062                 1.0158
 Frc consts  --      0.3891                 0.0448                 0.0563
 IR Inten    --     26.3597                24.8725                 0.9078

                      4
                      A
 Frequencies --    306.6131
 Red. masses --      1.0158
 Frc consts  --      0.0563
 IR Inten    --      0.9078

 - Thermochemistry -
 -------------------
 Temperature   298.150 Kelvin.  Pressure   1.00000 Atm.
 Atom     1 has atomic number  1 and mass   1.00783

 Molecular mass:    21.01405 amu.
 Principal axes and moments of inertia in atomic units:
                           1         2         3
     Eigenvalues --     0.00000 119.75772 119.75772
           X            1.00000  -0.00000   0.00000
           Y            0.00000   1.00000   0.00000
           Z            0.00000   0.00000   1.00000
 This molecule is a prolate symmetric top.
 Rotational symmetry number  1.
 Rotational temperature (Kelvin)      0.72324
 Rotational constant (GHZ):          15.069936
    2 imaginary frequencies ignored.
 Zero-point vibrational energy       3667.9 (Joules/Mol)
                                    0.87665 (Kcal/Mol)
 Warning -- explicit consideration of   2 degrees of freedom as
           vibrations may cause significant error
 Vibrational temperatures:    441.15   441.15
          (Kelvin)

 Zero-point correction=                           0.001397 (Hartree/Particle)
 Thermal correction to Energy=                    0.004581
 Thermal correction to Enthalpy=                  0.005526
 Thermal correction to Gibbs Free Energy=        -0.019732
 Sum of electronic and zero-point Energies=           -100.765396
 Sum of electronic and thermal Energies=              -100.762212
 Sum of electronic and thermal Enthalpies=            -100.761267
 Sum of electronic and thermal Free Energies=         -100.786525

                     E (Thermal)             CV                S
                      KCal/Mol        Cal/Mol-Kelvin    Cal/Mol-Kelvin
 Total                    2.875              8.290             53.160
 Electronic               0.000              0.000              1.377
 Translational            0.889              2.981             35.068
 Rotational               0.592              1.987             13.953
 Vibrational              1.394              3.322              2.761
 Vibration     1          0.697              1.661              1.381
 Vibration     2          0.697              1.661              1.381

 Normal termination of Gaussian 16 at Fri Aug 22 19:03:37 2025.
