 Gaussian 16, Revision C.01,
 Gaussian 16:  ES64L-G16RevC.01  3-Jul-2019

 -----------------------------------------
 # sp b3lyp/6-311g** Force nosymm scf=(qc)
 -----------------------------------------

 -------------------
 Title Card Required
 -------------------
 Symbolic Z-matrix:
 Charge =  0 Multiplicity = 2

                          Input orientation:
 ---------------------------------------------------------------------
 Center     Atomic      Atomic             Coordinates (Angstroms)
 Number     Number       Type             X           Y           Z
 ---------------------------------------------------------------------
      1          1           0        0.000000    0.000000    0.000000
      2          1           0       -2.850000    0.000000    0.000000
      3          9           0        1.500000    0.000000    0.000000
 ---------------------------------------------------------------------

 SCF Done:  E(UB3LYP) =  -100.855230675     a.u. after    8 cycles

 Alpha  occ. eigenvalues --  -24.64241  -1.09696  -0.43285  -0.36343  -0.36343
 Alpha  occ. eigenvalues --   -0.34912
 Alpha virt. eigenvalues --   -0.14067   0.21737   0.27296   0.93655   0.93655
 Alpha virt. eigenvalues --    1.03493   1.10244   1.22599   1.22599   1.23511
 Alpha virt. eigenvalues --    1.31566   1.31566   1.73904   2.13511   2.19597

  Beta  occ. eigenvalues --  -24.64097  -1.09315  -0.42909  -0.36206  -0.36206
  Beta virt. eigenvalues --   -0.15292  -0.07560   0.24374   0.36781   0.93600
  Beta virt. eigenvalues --    0.93600   1.03858   1.10337   1.30904   1.30904
  Beta virt. eigenvalues --    1.44100   1.44208   1.44208   1.73800   2.18546

 Mulliken charges and spin densities:
               1          2
     1  H    0.342811  -0.035683
     2  H    0.008942   0.990141
     3  F   -0.351752   0.045542
 Sum of Mulliken charges =  -0.00000   1.00000

 Dipole moment (field-independent basis, Debye):
    X=             -2.7138    Y=              0.0000    Z=             -0.0000  Tot=              2.7138
 Quadrupole moment (field-independent basis, Debye-Ang):
   XX=             -9.6086   YY=             -7.3246   ZZ=             -7.3246
   XY=              0.0000   XZ=             -0.0000   YZ=              0.0000

  Exact polarizability:      18.895       0.000       2.194      -0.000      -0.000       2.194
 Approx polarizability:      32.003       0.000       2.121      -0.000      -0.000       2.121

 ******    2 imaginary frequencies (negative Signs) ******

                      1                      2                      3
                      A                      A                      A
 Frequencies --  -1234.1773              -173.9661              1002.4781
 Red. masses --      1.0535                 1.0580                 1.0272
 Frc consts  --      0.9455                 0.0189                 0.6082
 IR Inten    --     73.8384                 1.5385               108.3164

                      4
                      A
 Frequencies --   1002.4781
 Red. masses --      1.0272
 Frc consts  --      0.6082
 IR Inten    --    108.3164

 - Thermochemistry -
 -------------------
 Temperature   298.150 Kelvin.  Pressure   1.00000 Atm.
 Atom     1 has atomic number  1 and mass   1.00783

 Molecular mass:    21.01405 amu.
 Principal axes and moments of inertia in atomic units:
                           1         2         3
     Eigenvalues --     0.00000  70.29297  70.29297
           X            1.00000  -0.00000   0.00000
           Y            0.00000   1.00000   0.00000
           Z            0.00000   0.00000   1.00000
 This molecule is a prolate symmetric top.
 Rotational symmetry number  1.
 Rotational temperature (Kelvin)      1.23218
 Rotational constant (GHZ):          25.674562
    2 imaginary frequencies ignored.
 Zero-point vibrational energy      11992.3 (Joules/Mol)
                                    2.86623 (Kcal/Mol)
 Vibrational temperatures:   1442.34  1442.34
          (Kelvin)

 Zero-point correction=                           0.004568 (Hartree/Particle)
 Thermal correction to Energy=                    0.007001
 Thermal correction to Enthalpy=                  0.007945
 Thermal correction to Gibbs Free Energy=        -0.015586
 Sum of electronic and zero-point Energies=           -100.850663
 Sum of electronic and thermal Energies=              -100.848230
 Sum of electronic and thermal Enthalpies=            -100.847285
 Sum of electronic and thermal Free Energies=         -100.870816

                     E (Thermal)             CV                S
                      KCal/Mol        Cal/Mol-Kelvin    Cal/Mol-Kelvin
 Total                    4.393              5.717             49.525
 Electronic               0.000              0.000              1.377
 Translational            0.889              2.981             35.068
 Rotational               0.592              1.987             12.895
 Vibrational              2.912              0.749              0.185

 Normal termination of Gaussian 16 at Fri Aug 22 16:26:10 2025.
