 Gaussian 16, Revision C.01,
 Gaussian 16:  ES64L-G16RevC.01  3-Jul-2019

 -----------------------------------------
 # sp b3lyp/6-311g** Force nosymm scf=(qc)
 -----------------------------------------

 -------------------
 Title Card Required
 -------------------
 Symbolic Z-matrix:
 Charge =  0 Multiplicity = 2

                          Input orientation:
 ---------------------------------------------------------------------
 Center     Atomic      Atomic             Coordinates (Angstroms)
 Number     Number       Type             X           Y           Z
 ---------------------------------------------------------------------
      1          1           0        0.000000    0.000000    0.000000
      2          1           0       -0.500000    0.000000    0.000000
      3          9           0        1.050000    0.000000    0.000000
 ---------------------------------------------------------------------

 SCF Done:  E(UB3LYP) =  -100.817945646     a.u. after    7 cycles

 Alpha  occ. eigenvalues --  -24.68438  -1.21200  -0.67791  -0.42533  -0.42533
 Alpha  occ. eigenvalues --   -0.35603
 Alpha virt. eigenvalues --    0.13619   0.18506   0.67584   0.86634   0.86634
 Alpha virt. eigenvalues --    0.93697   1.14288   1.14288   1.52010   1.68938
 Alpha virt. eigenvalues --    1.83960   1.91704   1.91704   2.68864   3.78385

  Beta  occ. eigenvalues --  -24.66259  -1.15697  -0.59409  -0.40538  -0.40538
  Beta virt. eigenvalues --   -0.16588   0.15453   0.19043   0.71700   0.88367
  Beta virt. eigenvalues --    0.88367   0.98152   1.17693   1.17693   1.54469
  Beta virt. eigenvalues --    1.75098   1.85760   1.95072   1.95072   2.74446

 Mulliken charges and spin densities:
               1          2
     1  H    0.261165  -0.013648
     2  H   -0.069612   0.455115
     3  F   -0.191553   0.558533
 Sum of Mulliken charges =   0.00000   1.00000

 Dipole moment (field-independent basis, Debye):
    X=             -1.1724    Y=              0.0000    Z=              0.0000  Tot=              1.1724
 Quadrupole moment (field-independent basis, Debye-Ang):
   XX=             -7.1637   YY=             -6.3461   ZZ=             -6.3461
   XY=              0.0000   XZ=              0.0000   YZ=              0.0000

  Exact polarizability:      11.331       0.000       2.426      -0.000      -0.000       2.426
 Approx polarizability:      13.257       0.000       2.500      -0.000      -0.000       2.500

 ******    2 imaginary frequencies (negative Signs) ******

                      1                      2                      3
                      A                      A                      A
 Frequencies --  -5204.0611             -5204.0611              2071.2377
 Red. masses --      1.0114                 1.0114                 1.1085
 Frc consts  --     16.1389                16.1389                 2.8019
 IR Inten    --      9.8225                 9.8225                 1.0833

                      4
                      A
 Frequencies --   9666.0040
 Red. masses --      1.0078
 Frc consts  --     55.4795
 IR Inten    --    146.3907

 - Thermochemistry -
 -------------------
 Temperature   298.150 Kelvin.  Pressure   1.00000 Atm.
 Atom     1 has atomic number  1 and mass   1.00783

 Molecular mass:    21.01405 amu.
 Principal axes and moments of inertia in atomic units:
                           1         2         3
     Eigenvalues --     0.00000  11.44770  11.44770
           X            1.00000  -0.00000   0.00000
           Y            0.00000   1.00000   0.00000
           Z            0.00000   0.00000   1.00000
 This molecule is a prolate symmetric top.
 Rotational symmetry number  1.
 Rotational temperature (Kelvin)      7.56605
 Rotational constant (GHZ):         157.650957
    2 imaginary frequencies ignored.
 Zero-point vibrational energy      70204.3 (Joules/Mol)
                                   16.77923 (Kcal/Mol)
 Vibrational temperatures:   2980.05 13907.22
          (Kelvin)

 Zero-point correction=                           0.026739 (Hartree/Particle)
 Thermal correction to Energy=                    0.029100
 Thermal correction to Enthalpy=                  0.030044
 Thermal correction to Gibbs Free Energy=         0.008315
 Sum of electronic and zero-point Energies=           -100.791206
 Sum of electronic and thermal Energies=              -100.788845
 Sum of electronic and thermal Enthalpies=            -100.787901
 Sum of electronic and thermal Free Energies=         -100.809631

                     E (Thermal)             CV                S
                      KCal/Mol        Cal/Mol-Kelvin    Cal/Mol-Kelvin
 Total                   18.261              4.977             45.734
 Electronic               0.000              0.000              1.377
 Translational            0.889              2.981             35.068
 Rotational               0.592              1.987              9.288
 Vibrational             16.779              0.009              0.001

 Normal termination of Gaussian 16 at Fri Aug 22 16:01:52 2025.
