 Gaussian 16, Revision C.01,
 Gaussian 16:  ES64L-G16RevC.01  3-Jul-2019

 -----------------------------------------
 # sp b3lyp/6-311g** Force nosymm scf=(qc)
 -----------------------------------------

 -------------------
 Title Card Required
 -------------------
 Symbolic Z-matrix:
 Charge =  0 Multiplicity = 2

                          Input orientation:
 ---------------------------------------------------------------------
 Center     Atomic      Atomic             Coordinates (Angstroms)
 Number     Number       Type             X           Y           Z
 ---------------------------------------------------------------------
      1          1           0        0.000000    0.000000    0.000000
      2          1           0       -0.700000    0.000000    0.000000
      3          9           0        2.350000    0.000000    0.000000
 ---------------------------------------------------------------------

 SCF Done:  E(UB3LYP) =  -100.932686901     a.u. after   58 cycles

 Alpha  occ. eigenvalues --  -24.77035  -1.22817  -0.55979  -0.47824  -0.47125
 Alpha  occ. eigenvalues --   -0.43201
 Alpha virt. eigenvalues --    0.08282   0.20554   0.49580   0.85440   0.90283
 Alpha virt. eigenvalues --    0.93334   1.09451   1.09494   1.13422   1.59004
 Alpha virt. eigenvalues --    1.86341   1.86373   1.90852   2.40789   3.56869

  Beta  occ. eigenvalues --  -24.73870  -1.13723  -0.45486  -0.43951  -0.42361
  Beta virt. eigenvalues --   -0.26586   0.08397   0.20632   0.49675   0.91771
  Beta virt. eigenvalues --    0.94833   0.95169   1.09499   1.09499   1.16994
  Beta virt. eigenvalues --    1.59051   1.86344   1.86371   1.90857   2.40806

 Mulliken charges and spin densities:
               1          2
     1  H   -0.008130  -0.002062
     2  H   -0.009438  -0.000632
     3  F    0.017568   1.002694
 Sum of Mulliken charges =   0.00000   1.00000

 Dipole moment (field-independent basis, Debye):
    X=              0.1834    Y=              0.0000    Z=             -0.0000  Tot=              0.1834
 Quadrupole moment (field-independent basis, Debye-Ang):
   XX=             -6.0217   YY=             -6.4631   ZZ=             -6.4627
   XY=             -0.0000   XZ=              0.0000   YZ=             -0.4315

  Exact polarizability:       8.291      -0.000       2.196       0.000      -0.214       2.196
 Approx polarizability:       9.170      -0.000       2.340       0.000      -0.276       2.341

 ******    2 imaginary frequencies (negative Signs) ******

                      1                      2                      3
                      A                      A                      A
 Frequencies --  -1206.4965             -1150.8376               278.4247
 Red. masses --      1.0095                 1.0095                 1.1085
 Frc consts  --      0.8658                 0.7877                 0.0506
 IR Inten    --      0.0002                 0.0348                 1.0585

                      4
                      A
 Frequencies --   5090.0854
 Red. masses --      1.0078
 Frc consts  --     15.3846
 IR Inten    --      6.5821

 - Thermochemistry -
 -------------------
 Temperature   298.150 Kelvin.  Pressure   1.00000 Atm.
 Atom     1 has atomic number  1 and mass   1.00783

 Molecular mass:    21.01405 amu.
 Principal axes and moments of inertia in atomic units:
                           1         2         3
     Eigenvalues --     0.00000  48.32208  48.32208
           X            1.00000  -0.00000   0.00000
           Y            0.00000   1.00000   0.00000
           Z            0.00000   0.00000   1.00000
 This molecule is a prolate symmetric top.
 Rotational symmetry number  1.
 Rotational temperature (Kelvin)      1.79243
 Rotational constant (GHZ):          37.348166
    2 imaginary frequencies ignored.
 Zero-point vibrational energy      32110.8 (Joules/Mol)
                                    7.67467 (Kcal/Mol)
 Warning -- explicit consideration of   1 degrees of freedom as
           vibrations may cause significant error
 Vibrational temperatures:    400.59  7323.50
          (Kelvin)

 Zero-point correction=                           0.012230 (Hartree/Particle)
 Thermal correction to Energy=                    0.015039
 Thermal correction to Enthalpy=                  0.015983
 Thermal correction to Gibbs Free Energy=        -0.007840
 Sum of electronic and zero-point Energies=           -100.920457
 Sum of electronic and thermal Energies=              -100.917648
 Sum of electronic and thermal Enthalpies=            -100.916704
 Sum of electronic and thermal Free Energies=         -100.940527

                     E (Thermal)             CV                S
                      KCal/Mol        Cal/Mol-Kelvin    Cal/Mol-Kelvin
 Total                    9.437              6.681             50.139
 Electronic               0.000              0.000              1.377
 Translational            0.889              2.981             35.068
 Rotational               0.592              1.987             12.150
 Vibrational              7.956              1.713              1.543
 Vibration     1          0.679              1.713              1.543

 Normal termination of Gaussian 16 at Fri Aug 22 17:25:05 2025.
