 Gaussian 16, Revision C.01,
 Gaussian 16:  ES64L-G16RevC.01  3-Jul-2019

 -----------------------------------------
 # sp b3lyp/6-311g** Force nosymm scf=(qc)
 -----------------------------------------

 -------------------
 Title Card Required
 -------------------
 Symbolic Z-matrix:
 Charge =  0 Multiplicity = 2

                          Input orientation:
 ---------------------------------------------------------------------
 Center     Atomic      Atomic             Coordinates (Angstroms)
 Number     Number       Type             X           Y           Z
 ---------------------------------------------------------------------
      1          1           0        0.000000    0.000000    0.000000
      2          1           0       -1.800000    0.000000    0.000000
      3          9           0        1.900000    0.000000    0.000000
 ---------------------------------------------------------------------

 SCF Done:  E(UB3LYP) =  -100.815938916     a.u. after   15 cycles

 Alpha  occ. eigenvalues --  -24.67562  -1.13920  -0.46838  -0.39192  -0.39192
 Alpha  occ. eigenvalues --   -0.37426
 Alpha virt. eigenvalues --   -0.12706   0.23154   0.30291   0.87005   0.94834
 Alpha virt. eigenvalues --    0.94834   1.03741   1.20076   1.20076   1.29854
 Alpha virt. eigenvalues --    1.34347   1.34347   1.68826   2.13220   2.34418

  Beta  occ. eigenvalues --  -24.65292  -1.07599  -0.37915  -0.36960  -0.36960
  Beta virt. eigenvalues --   -0.21693  -0.10896   0.25771   0.30486   0.89798
  Beta virt. eigenvalues --    0.95391   0.95391   1.07739   1.23280   1.23280
  Beta virt. eigenvalues --    1.35244   1.35244   1.37306   1.68670   2.14130

 Mulliken charges and spin densities:
               1          2
     1  H    0.149265  -0.524580
     2  H    0.058157   0.811823
     3  F   -0.207422   0.712757
 Sum of Mulliken charges =  -0.00000   1.00000

 Dipole moment (field-independent basis, Debye):
    X=             -2.4492    Y=              0.0000    Z=             -0.0000  Tot=              2.4492
 Quadrupole moment (field-independent basis, Debye-Ang):
   XX=             -8.4542   YY=             -7.5140   ZZ=             -7.5140
   XY=              0.0000   XZ=             -0.0000   YZ=             -0.0000

  Exact polarizability:      49.861       0.000       2.098      -0.000      -0.000       2.098
 Approx polarizability:      65.706      -0.000       2.015       0.000      -0.000       2.015

 ******    2 imaginary frequencies (negative Signs) ******

                      1                      2                      3
                      A                      A                      A
 Frequencies --  -1921.4245              -607.8974               798.8417
 Red. masses --      1.0174                 1.0971                 1.0173
 Frc consts  --      2.2131                 0.2389                 0.3825
 IR Inten    --    239.3164                22.6349                11.6096

                      4
                      A
 Frequencies --    798.8417
 Red. masses --      1.0173
 Frc consts  --      0.3825
 IR Inten    --     11.6096

 - Thermochemistry -
 -------------------
 Temperature   298.150 Kelvin.  Pressure   1.00000 Atm.
 Atom     1 has atomic number  1 and mass   1.00783

 Molecular mass:    21.01405 amu.
 Principal axes and moments of inertia in atomic units:
                           1         2         3
     Eigenvalues --     0.00000  56.84989  56.84989
           X            1.00000  -0.00000   0.00000
           Y            0.00000   1.00000   0.00000
           Z            0.00000   0.00000   1.00000
 This molecule is a prolate symmetric top.
 Rotational symmetry number  1.
 Rotational temperature (Kelvin)      1.52355
 Rotational constant (GHZ):          31.745726
    2 imaginary frequencies ignored.
 Zero-point vibrational energy       9556.3 (Joules/Mol)
                                    2.28400 (Kcal/Mol)
 Vibrational temperatures:   1149.35  1149.35
          (Kelvin)

 Zero-point correction=                           0.003640 (Hartree/Particle)
 Thermal correction to Energy=                    0.006158
 Thermal correction to Enthalpy=                  0.007102
 Thermal correction to Gibbs Free Energy=        -0.016339
 Sum of electronic and zero-point Energies=           -100.812299
 Sum of electronic and thermal Energies=              -100.809781
 Sum of electronic and thermal Enthalpies=            -100.808837
 Sum of electronic and thermal Free Energies=         -100.832278

                     E (Thermal)             CV                S
                      KCal/Mol        Cal/Mol-Kelvin    Cal/Mol-Kelvin
 Total                    3.864              6.273             49.335
 Electronic               0.000              0.000              1.377
 Translational            0.889              2.981             35.068
 Rotational               0.592              1.987             12.473
 Vibrational              2.383              1.305              0.416

 Normal termination of Gaussian 16 at Fri Aug 22 16:49:51 2025.
