 Gaussian 16, Revision C.01,
 Gaussian 16:  ES64L-G16RevC.01  3-Jul-2019

 -----------------------------------------
 # sp b3lyp/6-311g** Force nosymm scf=(qc)
 -----------------------------------------

 -------------------
 Title Card Required
 -------------------
 Symbolic Z-matrix:
 Charge =  0 Multiplicity = 2

                          Input orientation:
 ---------------------------------------------------------------------
 Center     Atomic      Atomic             Coordinates (Angstroms)
 Number     Number       Type             X           Y           Z
 ---------------------------------------------------------------------
      1          1           0        0.000000    0.000000    0.000000
      2          1           0       -2.250000    0.000000    0.000000
      3          9           0        3.700000    0.000000    0.000000
 ---------------------------------------------------------------------

 SCF Done:  E(UB3LYP) =  -100.766556354     a.u. after   33 cycles

 Alpha  occ. eigenvalues --  -24.75747  -1.21684  -0.54871  -0.46073  -0.46073
 Alpha  occ. eigenvalues --   -0.32764
 Alpha virt. eigenvalues --   -0.10175   0.25935   0.33674   0.87040   0.91247
 Alpha virt. eigenvalues --    0.91247   1.01345   1.24570   1.25039   1.25039
 Alpha virt. eigenvalues --    1.39828   1.39828   1.44694   2.14510   2.35484

  Beta  occ. eigenvalues --  -24.72613  -1.12673  -0.42931  -0.42931  -0.32902
  Beta virt. eigenvalues --   -0.25690  -0.09916   0.25772   0.34077   0.92742
  Beta virt. eigenvalues --    0.92742   0.96324   1.05439   1.24426   1.24878
  Beta virt. eigenvalues --    1.24878   1.40204   1.40204   1.45017   2.14853

 Mulliken charges and spin densities:
               1          2
     1  H    0.002749  -0.929392
     2  H    0.002636   0.935576
     3  F   -0.005385   0.993815
 Sum of Mulliken charges =   0.00000   1.00000

 Dipole moment (field-independent basis, Debye):
    X=             -0.1304    Y=              0.0000    Z=              0.0000  Tot=              0.1304
 Quadrupole moment (field-independent basis, Debye-Ang):
   XX=             -6.6991   YY=             -7.6933   ZZ=             -7.6933
   XY=              0.0000   XZ=              0.0000   YZ=              0.0000

  Exact polarizability:      31.793       0.000       2.013       0.000       0.000       2.013
 Approx polarizability:      24.868       0.000       1.931       0.000       0.000       1.931

 ******    2 imaginary frequencies (negative Signs) ******

                      1                      2                      3
                      A                      A                      A
 Frequencies --   -950.6984              -107.3837               364.9941
 Red. masses --      1.0078                 1.1085                 1.0130
 Frc consts  --      0.5367                 0.0075                 0.0795
 IR Inten    --      2.7690                 2.8625                 0.0028

                      4
                      A
 Frequencies --    364.9941
 Red. masses --      1.0130
 Frc consts  --      0.0795
 IR Inten    --      0.0028

 - Thermochemistry -
 -------------------
 Temperature   298.150 Kelvin.  Pressure   1.00000 Atm.
 Atom     1 has atomic number  1 and mass   1.00783

 Molecular mass:    21.01405 amu.
 Principal axes and moments of inertia in atomic units:
                           1         2         3
     Eigenvalues --     0.00000 160.61074 160.61074
           X            1.00000  -0.00000   0.00000
           Y            0.00000   1.00000   0.00000
           Z            0.00000   0.00000   1.00000
 This molecule is a prolate symmetric top.
 Rotational symmetry number  1.
 Rotational temperature (Kelvin)      0.53928
 Rotational constant (GHZ):          11.236741
    2 imaginary frequencies ignored.
 Zero-point vibrational energy       4366.3 (Joules/Mol)
                                    1.04357 (Kcal/Mol)
 Warning -- explicit consideration of   2 degrees of freedom as
           vibrations may cause significant error
 Vibrational temperatures:    525.15   525.15
          (Kelvin)

 Zero-point correction=                           0.001663 (Hartree/Particle)
 Thermal correction to Energy=                    0.004714
 Thermal correction to Enthalpy=                  0.005658
 Thermal correction to Gibbs Free Energy=        -0.019612
 Sum of electronic and zero-point Energies=           -100.764893
 Sum of electronic and thermal Energies=              -100.761843
 Sum of electronic and thermal Enthalpies=            -100.760899
 Sum of electronic and thermal Free Energies=         -100.786168

                     E (Thermal)             CV                S
                      KCal/Mol        Cal/Mol-Kelvin    Cal/Mol-Kelvin
 Total                    2.958              8.057             53.184
 Electronic               0.000              0.000              1.377
 Translational            0.889              2.981             35.068
 Rotational               0.592              1.987             14.537
 Vibrational              1.477              3.089              2.202
 Vibration     1          0.738              1.544              1.101
 Vibration     2          0.738              1.544              1.101

 Normal termination of Gaussian 16 at Sat Aug 23 00:02:57 2025.
