 Gaussian 16, Revision C.01,
 Gaussian 16:  ES64L-G16RevC.01  3-Jul-2019

 -----------------------------------------
 # sp b3lyp/6-311g** Force nosymm scf=(qc)
 -----------------------------------------

 -------------------
 Title Card Required
 -------------------
 Symbolic Z-matrix:
 Charge =  0 Multiplicity = 2

                          Input orientation:
 ---------------------------------------------------------------------
 Center     Atomic      Atomic             Coordinates (Angstroms)
 Number     Number       Type             X           Y           Z
 ---------------------------------------------------------------------
      1          1           0        0.000000    0.000000    0.000000
      2          1           0       -1.050000    0.000000    0.000000
      3          9           0        0.850000    0.000000    0.000000
 ---------------------------------------------------------------------

 SCF Done:  E(UB3LYP) =  -100.945605891     a.u. after    6 cycles

 Alpha  occ. eigenvalues --  -24.64542  -1.22375  -0.59828  -0.40896  -0.40896
 Alpha  occ. eigenvalues --   -0.35700
 Alpha virt. eigenvalues --    0.14761   0.18960   0.52840   0.90730   0.90730
 Alpha virt. eigenvalues --    0.95978   1.08662   1.08662   1.43992   1.60290
 Alpha virt. eigenvalues --    1.60290   1.70071   2.08542   2.33165   3.22764

  Beta  occ. eigenvalues --  -24.63963  -1.20856  -0.56137  -0.40395  -0.40395
  Beta virt. eigenvalues --   -0.15981   0.16106   0.23415   0.58447   0.92154
  Beta virt. eigenvalues --    0.92154   0.97139   1.15503   1.15503   1.45843
  Beta virt. eigenvalues --    1.65898   1.65898   1.80318   2.09681   2.47868

 Mulliken charges and spin densities:
               1          2
     1  H    0.265311  -0.004556
     2  H    0.003592   0.876070
     3  F   -0.268903   0.128486
 Sum of Mulliken charges =   0.00000   1.00000

 Dipole moment (field-independent basis, Debye):
    X=             -1.7138    Y=             -0.0000    Z=             -0.0000  Tot=              1.7138
 Quadrupole moment (field-independent basis, Debye-Ang):
   XX=             -7.5152   YY=             -6.6061   ZZ=             -6.6061
   XY=             -0.0000   XZ=             -0.0000   YZ=             -0.0000

  Exact polarizability:      10.902       0.000       2.585       0.000       0.000       2.585
 Approx polarizability:      11.547       0.000       2.621      -0.000       0.000       2.621

 ******    2 imaginary frequencies (negative Signs) ******

                      1                      2                      3
                      A                      A                      A
 Frequencies --  -1663.3705             -1663.3705              1568.0241
 Red. masses --      1.0207                 1.0207                 1.0537
 Frc consts  --      1.6639                 1.6639                 1.5265
 IR Inten    --     91.1873                91.1873                51.1464

                      4
                      A
 Frequencies --   5037.0553
 Red. masses --      1.0578
 Frc consts  --     15.8129
 IR Inten    --     77.8514

 - Thermochemistry -
 -------------------
 Temperature   298.150 Kelvin.  Pressure   1.00000 Atm.
 Atom     1 has atomic number  1 and mass   1.00783

 Molecular mass:    21.01405 amu.
 Principal axes and moments of inertia in atomic units:
                           1         2         3
     Eigenvalues --     0.00000  14.28736  14.28736
           X            1.00000  -0.00000   0.00000
           Y            0.00000   1.00000   0.00000
           Z            0.00000   0.00000   1.00000
 This molecule is a prolate symmetric top.
 Rotational symmetry number  1.
 Rotational temperature (Kelvin)      6.06227
 Rotational constant (GHZ):         126.317291
    2 imaginary frequencies ignored.
 Zero-point vibrational energy      39507.1 (Joules/Mol)
                                    9.44244 (Kcal/Mol)
 Vibrational temperatures:   2256.04  7247.20
          (Kelvin)

 Zero-point correction=                           0.015047 (Hartree/Particle)
 Thermal correction to Energy=                    0.017412
 Thermal correction to Enthalpy=                  0.018356
 Thermal correction to Gibbs Free Energy=        -0.003587
 Sum of electronic and zero-point Energies=           -100.930558
 Sum of electronic and thermal Energies=              -100.928194
 Sum of electronic and thermal Enthalpies=            -100.927250
 Sum of electronic and thermal Free Energies=         -100.949193

                     E (Thermal)             CV                S
                      KCal/Mol        Cal/Mol-Kelvin    Cal/Mol-Kelvin
 Total                   10.926              5.027             46.183
 Electronic               0.000              0.000              1.377
 Translational            0.889              2.981             35.068
 Rotational               0.592              1.987              9.728
 Vibrational              9.445              0.059              0.009

 Normal termination of Gaussian 16 at Fri Aug 22 15:52:48 2025.
