 Gaussian 16, Revision C.01,
 Gaussian 16:  ES64L-G16RevC.01  3-Jul-2019

 -----------------------------------------
 # sp b3lyp/6-311g** Force nosymm scf=(qc)
 -----------------------------------------

 -------------------
 Title Card Required
 -------------------
 Symbolic Z-matrix:
 Charge =  0 Multiplicity = 2

                          Input orientation:
 ---------------------------------------------------------------------
 Center     Atomic      Atomic             Coordinates (Angstroms)
 Number     Number       Type             X           Y           Z
 ---------------------------------------------------------------------
      1          1           0        0.000000    0.000000    0.000000
      2          1           0       -3.150000    0.000000    0.000000
      3          9           0        2.000000    0.000000    0.000000
 ---------------------------------------------------------------------

 SCF Done:  E(UB3LYP) =  -100.787711530     a.u. after   15 cycles

 Alpha  occ. eigenvalues --  -24.68228  -1.14546  -0.47208  -0.39758  -0.39758
 Alpha  occ. eigenvalues --   -0.33759
 Alpha virt. eigenvalues --   -0.13707   0.22704   0.31823   0.89123   0.94861
 Alpha virt. eigenvalues --    0.94861   1.05861   1.23773   1.23773   1.24232
 Alpha virt. eigenvalues --    1.35389   1.35389   1.60455   2.14258   2.29586

  Beta  occ. eigenvalues --  -24.65856  -1.07916  -0.37912  -0.37421  -0.37421
  Beta virt. eigenvalues --   -0.20760  -0.07773   0.23147   0.37207   0.90647
  Beta virt. eigenvalues --    0.95499   0.95499   1.08264   1.22010   1.22010
  Beta virt. eigenvalues --    1.44284   1.44864   1.44864   1.53748   2.12452

 Mulliken charges and spin densities:
               1          2
     1  H    0.189555  -0.740196
     2  H    0.003894   0.994274
     3  F   -0.193449   0.745922
 Sum of Mulliken charges =  -0.00000   1.00000

 Dipole moment (field-independent basis, Debye):
    X=             -1.9709    Y=              0.0000    Z=              0.0000  Tot=              1.9709
 Quadrupole moment (field-independent basis, Debye-Ang):
   XX=             -9.8984   YY=             -7.4959   ZZ=             -7.4959
   XY=             -0.0000   XZ=             -0.0000   YZ=             -0.0000

  Exact polarizability:      28.084      -0.000       2.061      -0.000      -0.000       2.061
 Approx polarizability:      38.822       0.000       1.948       0.000       0.000       1.948

 ******    2 imaginary frequencies (negative Signs) ******

                      1                      2                      3
                      A                      A                      A
 Frequencies --  -1139.2342              -182.4891               480.1807
 Red. masses --      1.0555                 1.0561                 1.0243
 Frc consts  --      0.8071                 0.0207                 0.1391
 IR Inten    --    117.7130                 1.2220                32.7983

                      4
                      A
 Frequencies --    480.1807
 Red. masses --      1.0243
 Frc consts  --      0.1391
 IR Inten    --     32.7983

 - Thermochemistry -
 -------------------
 Temperature   298.150 Kelvin.  Pressure   1.00000 Atm.
 Atom     1 has atomic number  1 and mass   1.00783

 Molecular mass:    21.01405 amu.
 Principal axes and moments of inertia in atomic units:
                           1         2         3
     Eigenvalues --     0.00000 101.02664 101.02664
           X            1.00000  -0.00000   0.00000
           Y            0.00000   1.00000   0.00000
           Z            0.00000   0.00000   1.00000
 This molecule is a prolate symmetric top.
 Rotational symmetry number  1.
 Rotational temperature (Kelvin)      0.85734
 Rotational constant (GHZ):          17.864013
    2 imaginary frequencies ignored.
 Zero-point vibrational energy       5744.2 (Joules/Mol)
                                    1.37291 (Kcal/Mol)
 Warning -- explicit consideration of   2 degrees of freedom as
           vibrations may cause significant error
 Vibrational temperatures:    690.87   690.87
          (Kelvin)

 Zero-point correction=                           0.002188 (Hartree/Particle)
 Thermal correction to Energy=                    0.005027
 Thermal correction to Enthalpy=                  0.005971
 Thermal correction to Gibbs Free Energy=        -0.018489
 Sum of electronic and zero-point Energies=           -100.785524
 Sum of electronic and thermal Energies=              -100.782685
 Sum of electronic and thermal Enthalpies=            -100.781741
 Sum of electronic and thermal Free Energies=         -100.806200

                     E (Thermal)             CV                S
                      KCal/Mol        Cal/Mol-Kelvin    Cal/Mol-Kelvin
 Total                    3.154              7.556             51.480
 Electronic               0.000              0.000              1.377
 Translational            0.889              2.981             35.068
 Rotational               0.592              1.987             13.615
 Vibrational              1.673              2.588              1.419
 Vibration     1          0.837              1.294              0.710
 Vibration     2          0.837              1.294              0.710

 Normal termination of Gaussian 16 at Fri Aug 22 16:57:29 2025.
