 Gaussian 16, Revision C.01,
 Gaussian 16:  ES64L-G16RevC.01  3-Jul-2019

 -----------------------------------------
 # sp b3lyp/6-311g** Force nosymm scf=(qc)
 -----------------------------------------

 -------------------
 Title Card Required
 -------------------
 Symbolic Z-matrix:
 Charge =  0 Multiplicity = 2

                          Input orientation:
 ---------------------------------------------------------------------
 Center     Atomic      Atomic             Coordinates (Angstroms)
 Number     Number       Type             X           Y           Z
 ---------------------------------------------------------------------
      1          1           0        0.000000    0.000000    0.000000
      2          1           0       -3.350000    0.000000    0.000000
      3          9           0        2.500000    0.000000    0.000000
 ---------------------------------------------------------------------

 SCF Done:  E(UB3LYP) =  -100.767649042     a.u. after   19 cycles

 Alpha  occ. eigenvalues --  -24.71739  -1.17955  -0.50841  -0.42711  -0.42711
 Alpha  occ. eigenvalues --   -0.32974
 Alpha virt. eigenvalues --   -0.10403   0.23608   0.35111   0.89701   0.93615
 Alpha virt. eigenvalues --    0.93615   1.06311   1.24543   1.24543   1.24838
 Alpha virt. eigenvalues --    1.40562   1.40562   1.44662   2.14668   2.36072

  Beta  occ. eigenvalues --  -24.68898  -1.09868  -0.39878  -0.39878  -0.35360
  Beta virt. eigenvalues --   -0.23341  -0.07037   0.24085   0.37647   0.94977
  Beta virt. eigenvalues --    0.94977   0.96084   1.08669   1.22104   1.22104
  Beta virt. eigenvalues --    1.29700   1.45389   1.45640   1.45640   2.13135

 Mulliken charges and spin densities:
               1          2
     1  H    0.089058  -0.894816
     2  H    0.001310   0.996964
     3  F   -0.090368   0.897852
 Sum of Mulliken charges =  -0.00000   1.00000

 Dipole moment (field-independent basis, Debye):
    X=             -1.1703    Y=              0.0000    Z=             -0.0000  Tot=              1.1703
 Quadrupole moment (field-independent basis, Debye-Ang):
   XX=             -9.2694   YY=             -7.5737   ZZ=             -7.5737
   XY=              0.0000   XZ=             -0.0000   YZ=              0.0000

  Exact polarizability:      31.625       0.000       2.025       0.000       0.000       2.025
 Approx polarizability:      39.389      -0.000       1.920      -0.000      -0.000       1.920

 ******    2 imaginary frequencies (negative Signs) ******

                      1                      2                      3
                      A                      A                      A
 Frequencies --   -625.1015              -143.7709               244.3215
 Red. masses --      1.0524                 1.0592                 1.0219
 Frc consts  --      0.2423                 0.0129                 0.0359
 IR Inten    --     79.7199                 0.6028                 7.4883

                      4
                      A
 Frequencies --    244.3215
 Red. masses --      1.0219
 Frc consts  --      0.0359
 IR Inten    --      7.4883

 - Thermochemistry -
 -------------------
 Temperature   298.150 Kelvin.  Pressure   1.00000 Atm.
 Atom     1 has atomic number  1 and mass   1.00783

 Molecular mass:    21.01405 amu.
 Principal axes and moments of inertia in atomic units:
                           1         2         3
     Eigenvalues --     0.00000 133.62629 133.62629
           X            1.00000  -0.00000   0.00000
           Y            0.00000   1.00000   0.00000
           Z            0.00000   0.00000   1.00000
 This molecule is a prolate symmetric top.
 Rotational symmetry number  1.
 Rotational temperature (Kelvin)      0.64818
 Rotational constant (GHZ):          13.505884
    2 imaginary frequencies ignored.
 Zero-point vibrational energy       2922.7 (Joules/Mol)
                                    0.69855 (Kcal/Mol)
 Warning -- explicit consideration of   2 degrees of freedom as
           vibrations may cause significant error
 Vibrational temperatures:    351.52   351.52
          (Kelvin)

 Zero-point correction=                           0.001113 (Hartree/Particle)
 Thermal correction to Energy=                    0.004463
 Thermal correction to Enthalpy=                  0.005407
 Thermal correction to Gibbs Free Energy=        -0.020326
 Sum of electronic and zero-point Energies=           -100.766536
 Sum of electronic and thermal Energies=              -100.763186
 Sum of electronic and thermal Enthalpies=            -100.762242
 Sum of electronic and thermal Free Energies=         -100.787975

                     E (Thermal)             CV                S
                      KCal/Mol        Cal/Mol-Kelvin    Cal/Mol-Kelvin
 Total                    2.800              8.512             54.159
 Electronic               0.000              0.000              1.377
 Translational            0.889              2.981             35.068
 Rotational               0.592              1.987             14.171
 Vibrational              1.319              3.544              3.542
 Vibration     1          0.660              1.772              1.771
 Vibration     2          0.660              1.772              1.771

 Normal termination of Gaussian 16 at Fri Aug 22 17:46:06 2025.
