 Gaussian 16, Revision C.01,
 Gaussian 16:  ES64L-G16RevC.01  3-Jul-2019

 -----------------------------------------
 # sp b3lyp/6-311g** Force nosymm scf=(qc)
 -----------------------------------------

 -------------------
 Title Card Required
 -------------------
 Symbolic Z-matrix:
 Charge =  0 Multiplicity = 2

                          Input orientation:
 ---------------------------------------------------------------------
 Center     Atomic      Atomic             Coordinates (Angstroms)
 Number     Number       Type             X           Y           Z
 ---------------------------------------------------------------------
      1          1           0        0.000000    0.000000    0.000000
      2          1           0       -3.050000    0.000000    0.000000
      3          9           0        2.500000    0.000000    0.000000
 ---------------------------------------------------------------------

 SCF Done:  E(UB3LYP) =  -100.768176329     a.u. after   20 cycles

 Alpha  occ. eigenvalues --  -24.71745  -1.17959  -0.50846  -0.42713  -0.42713
 Alpha  occ. eigenvalues --   -0.33162
 Alpha virt. eigenvalues --   -0.10781   0.24006   0.34559   0.89809   0.93614
 Alpha virt. eigenvalues --    0.93614   1.06418   1.24375   1.24375   1.25169
 Alpha virt. eigenvalues --    1.40224   1.40224   1.44226   2.15002   2.35151

  Beta  occ. eigenvalues --  -24.68903  -1.09871  -0.39881  -0.39881  -0.35358
  Beta virt. eigenvalues --   -0.23351  -0.07737   0.24597   0.36863   0.94977
  Beta virt. eigenvalues --    0.94977   0.96341   1.08878   1.22131   1.22131
  Beta virt. eigenvalues --    1.29749   1.44684   1.44702   1.44702   2.13751

 Mulliken charges and spin densities:
               1          2
     1  H    0.087248  -0.891350
     2  H    0.002811   0.993437
     3  F   -0.090058   0.897913
 Sum of Mulliken charges =  -0.00000   1.00000

 Dipole moment (field-independent basis, Debye):
    X=             -1.1864    Y=             -0.0000    Z=             -0.0000  Tot=              1.1864
 Quadrupole moment (field-independent basis, Debye-Ang):
   XX=             -9.1773   YY=             -7.5815   ZZ=             -7.5815
   XY=             -0.0000   XZ=             -0.0000   YZ=             -0.0000

  Exact polarizability:      33.829      -0.000       2.023      -0.000      -0.000       2.023
 Approx polarizability:      40.774      -0.000       1.919      -0.000       0.000       1.919

 ******    2 imaginary frequencies (negative Signs) ******

                      1                      2                      3
                      A                      A                      A
 Frequencies --   -647.2405              -202.3458               253.8523
 Red. masses --      1.0461                 1.0657                 1.0205
 Frc consts  --      0.2582                 0.0257                 0.0387
 IR Inten    --     76.8981                 2.5081                 6.9896

                      4
                      A
 Frequencies --    253.8523
 Red. masses --      1.0205
 Frc consts  --      0.0387
 IR Inten    --      6.9896

 - Thermochemistry -
 -------------------
 Temperature   298.150 Kelvin.  Pressure   1.00000 Atm.
 Atom     1 has atomic number  1 and mass   1.00783

 Molecular mass:    21.01405 amu.
 Principal axes and moments of inertia in atomic units:
                           1         2         3
     Eigenvalues --     0.00000 122.16690 122.16690
           X            1.00000  -0.00000   0.00000
           Y            0.00000   1.00000   0.00000
           Z            0.00000   0.00000   1.00000
 This molecule is a prolate symmetric top.
 Rotational symmetry number  1.
 Rotational temperature (Kelvin)      0.70898
 Rotational constant (GHZ):          14.772751
    2 imaginary frequencies ignored.
 Zero-point vibrational energy       3036.7 (Joules/Mol)
                                    0.72580 (Kcal/Mol)
 Warning -- explicit consideration of   2 degrees of freedom as
           vibrations may cause significant error
 Vibrational temperatures:    365.24   365.24
          (Kelvin)

 Zero-point correction=                           0.001157 (Hartree/Particle)
 Thermal correction to Energy=                    0.004479
 Thermal correction to Enthalpy=                  0.005423
 Thermal correction to Gibbs Free Energy=        -0.020160
 Sum of electronic and zero-point Energies=           -100.767020
 Sum of electronic and thermal Energies=              -100.763697
 Sum of electronic and thermal Enthalpies=            -100.762753
 Sum of electronic and thermal Free Energies=         -100.788337

                     E (Thermal)             CV                S
                      KCal/Mol        Cal/Mol-Kelvin    Cal/Mol-Kelvin
 Total                    2.811              8.481             53.846
 Electronic               0.000              0.000              1.377
 Translational            0.889              2.981             35.068
 Rotational               0.592              1.987             13.993
 Vibrational              1.330              3.513              3.407
 Vibration     1          0.665              1.756              1.704
 Vibration     2          0.665              1.756              1.704

 Normal termination of Gaussian 16 at Fri Aug 22 17:45:48 2025.
