 Gaussian 16, Revision C.01,
 Gaussian 16:  ES64L-G16RevC.01  3-Jul-2019

 -----------------------------------------
 # sp b3lyp/6-311g** Force nosymm scf=(qc)
 -----------------------------------------

 -------------------
 Title Card Required
 -------------------
 Symbolic Z-matrix:
 Charge =  0 Multiplicity = 2

                          Input orientation:
 ---------------------------------------------------------------------
 Center     Atomic      Atomic             Coordinates (Angstroms)
 Number     Number       Type             X           Y           Z
 ---------------------------------------------------------------------
      1          1           0        0.000000    0.000000    0.000000
      2          1           0       -2.450000    0.000000    0.000000
      3          9           0        0.550000    0.000000    0.000000
 ---------------------------------------------------------------------

 SCF Done:  E(UB3LYP) =  -100.519289990     a.u. after    6 cycles

 Alpha  occ. eigenvalues --  -24.62666  -1.38397  -0.62255  -0.43598  -0.43598
 Alpha  occ. eigenvalues --   -0.34304
 Alpha virt. eigenvalues --    0.09386   0.25599   0.59732   0.91254   0.91254
 Alpha virt. eigenvalues --    0.91347   1.17974   1.23247   1.23247   1.48681
 Alpha virt. eigenvalues --    1.54158   1.54158   1.95867   2.15956   3.65709

  Beta  occ. eigenvalues --  -24.62658  -1.38373  -0.62237  -0.43595  -0.43595
  Beta virt. eigenvalues --   -0.07907   0.10719   0.38430   0.59223   0.91240
  Beta virt. eigenvalues --    0.91240   0.91464   1.30835   1.45877   1.45877
  Beta virt. eigenvalues --    1.54147   1.54147   1.59596   1.96816   2.45081

 Mulliken charges and spin densities:
               1          2
     1  H    0.192312   0.003955
     2  H    0.004882   0.993708
     3  F   -0.197194   0.002337
 Sum of Mulliken charges =   0.00000   1.00000

 Dipole moment (field-independent basis, Debye):
    X=             -1.4126    Y=             -0.0000    Z=             -0.0000  Tot=              1.4126
 Quadrupole moment (field-independent basis, Debye-Ang):
   XX=             -6.6493   YY=             -6.4879   ZZ=             -6.4879
   XY=             -0.0000   XZ=             -0.0000   YZ=              0.0000

  Exact polarizability:       4.657       0.000       2.451      -0.000      -0.000       2.451
 Approx polarizability:       4.629       0.000       2.435       0.000      -0.000       2.435

 ******    2 imaginary frequencies (negative Signs) ******

                      1                      2                      3
                      A                      A                      A
 Frequencies --  -7455.3296             -7455.3296               153.2033
 Red. masses --      1.0404                 1.0404                 1.0533
 Frc consts  --     34.0720                34.0720                 0.0146
 IR Inten    --    240.6395               240.6395                 0.1277

                      4
                      A
 Frequencies --  15777.7718
 Red. masses --      1.0583
 Frc consts  --    155.2220
 IR Inten    --     98.1475

 - Thermochemistry -
 -------------------
 Temperature   298.150 Kelvin.  Pressure   1.00000 Atm.
 Atom     1 has atomic number  1 and mass   1.00783

 Molecular mass:    21.01405 amu.
 Principal axes and moments of inertia in atomic units:
                           1         2         3
     Eigenvalues --     0.00000  31.30450  31.30450
           X            1.00000  -0.00000   0.00000
           Y            0.00000   1.00000   0.00000
           Z            0.00000   0.00000   1.00000
 This molecule is a prolate symmetric top.
 Rotational symmetry number  1.
 Rotational temperature (Kelvin)      2.76682
 Rotational constant (GHZ):          57.651178
    2 imaginary frequencies ignored.
 Zero-point vibrational energy      95288.4 (Joules/Mol)
                                   22.77447 (Kcal/Mol)
 Warning -- explicit consideration of   1 degrees of freedom as
           vibrations may cause significant error
 Vibrational temperatures:    220.43 22700.69
          (Kelvin)

 Zero-point correction=                           0.036293 (Hartree/Particle)
 Thermal correction to Energy=                    0.039292
 Thermal correction to Enthalpy=                  0.040236
 Thermal correction to Gibbs Free Energy=         0.016306
 Sum of electronic and zero-point Energies=           -100.482997
 Sum of electronic and thermal Energies=              -100.479998
 Sum of electronic and thermal Enthalpies=            -100.479054
 Sum of electronic and thermal Free Energies=         -100.502984

                     E (Thermal)             CV                S
                      KCal/Mol        Cal/Mol-Kelvin    Cal/Mol-Kelvin
 Total                   24.656              6.867             50.365
 Electronic               0.000              0.000              1.377
 Translational            0.889              2.981             35.068
 Rotational               0.592              1.987             11.287
 Vibrational             23.175              1.899              2.632
 Vibration     1          0.619              1.899              2.632

 Normal termination of Gaussian 16 at Fri Aug 22 15:39:38 2025.
