 Gaussian 16, Revision C.01,
 Gaussian 16:  ES64L-G16RevC.01  3-Jul-2019

 -----------------------------------------
 # sp b3lyp/6-311g** Force nosymm scf=(qc)
 -----------------------------------------

 -------------------
 Title Card Required
 -------------------
 Symbolic Z-matrix:
 Charge =  0 Multiplicity = 2

                          Input orientation:
 ---------------------------------------------------------------------
 Center     Atomic      Atomic             Coordinates (Angstroms)
 Number     Number       Type             X           Y           Z
 ---------------------------------------------------------------------
      1          1           0        0.000000    0.000000    0.000000
      2          1           0       -1.000000    0.000000    0.000000
      3          9           0        3.650000    0.000000    0.000000
 ---------------------------------------------------------------------

 SCF Done:  E(UB3LYP) =  -100.906577503     a.u. after    7 cycles

 Alpha  occ. eigenvalues --  -24.76159  -1.22067  -0.55284  -0.46430  -0.46430
 Alpha  occ. eigenvalues --   -0.39101
 Alpha virt. eigenvalues --    0.00106   0.21227   0.38359   0.87339   0.90963
 Alpha virt. eigenvalues --    0.90963   1.01352   1.09002   1.09002   1.37390
 Alpha virt. eigenvalues --    1.65646   1.65646   2.21610   2.35901   2.58709

  Beta  occ. eigenvalues --  -24.73008  -1.13004  -0.43270  -0.43270  -0.39096
  Beta virt. eigenvalues --   -0.26004   0.00132   0.21250   0.38484   0.92461
  Beta virt. eigenvalues --    0.92461   0.96611   1.05486   1.09008   1.09008
  Beta virt. eigenvalues --    1.37406   1.65651   1.65651   2.21633   2.35911

 Mulliken charges and spin densities:
               1          2
     1  H   -0.004430  -0.000631
     2  H    0.003987   0.001569
     3  F    0.000443   0.999062
 Sum of Mulliken charges =   0.00000   1.00000

 Dipole moment (field-independent basis, Debye):
    X=             -0.0124    Y=              0.0000    Z=             -0.0000  Tot=              0.0124
 Quadrupole moment (field-independent basis, Debye-Ang):
   XX=             -5.5007   YY=             -7.2708   ZZ=             -7.2708
   XY=              0.0000   XZ=             -0.0000   YZ=              0.0000

  Exact polarizability:      12.882      -0.000       2.057      -0.000       0.000       2.057
 Approx polarizability:      16.722      -0.000       2.108      -0.000       0.000       2.108

 ******    1 imaginary frequencies (negative Signs) ******

                      1                      2                      3
                      A                      A                      A
 Frequencies --    -37.3273              1539.9010              1539.9010
 Red. masses --      1.1085                 1.0093                 1.0093
 Frc consts  --      0.0009                 1.4101                 1.4101
 IR Inten    --      0.0111                 0.0204                 0.0204

                      4
                      A
 Frequencies --   1793.1059
 Red. masses --      1.0078
 Frc consts  --      1.9092
 IR Inten    --      0.2906

 - Thermochemistry -
 -------------------
 Temperature   298.150 Kelvin.  Pressure   1.00000 Atm.
 Atom     1 has atomic number  1 and mass   1.00783

 Molecular mass:    21.01405 amu.
 Principal axes and moments of inertia in atomic units:
                           1         2         3
     Eigenvalues --     0.00000 113.87646 113.87646
           X            1.00000  -0.00000   0.00000
           Y            0.00000   1.00000   0.00000
           Z            0.00000   0.00000   1.00000
 This molecule is a prolate symmetric top.
 Rotational symmetry number  1.
 Rotational temperature (Kelvin)      0.76060
 Rotational constant (GHZ):          15.848237
    1 imaginary frequencies ignored.
 Zero-point vibrational energy      29146.5 (Joules/Mol)
                                    6.96617 (Kcal/Mol)
 Vibrational temperatures:   2215.57  2215.57  2579.88
          (Kelvin)

 Zero-point correction=                           0.011101 (Hartree/Particle)
 Thermal correction to Energy=                    0.013472
 Thermal correction to Enthalpy=                  0.014416
 Thermal correction to Gibbs Free Energy=        -0.009494
 Sum of electronic and zero-point Energies=           -100.895476
 Sum of electronic and thermal Energies=              -100.893106
 Sum of electronic and thermal Enthalpies=            -100.892162
 Sum of electronic and thermal Free Energies=         -100.916071

                     E (Thermal)             CV                S
                      KCal/Mol        Cal/Mol-Kelvin    Cal/Mol-Kelvin
 Total                    8.454              5.124             50.322
 Electronic               0.000              0.000              1.377
 Translational            0.889              2.981             35.068
 Rotational               0.592              1.987             13.853
 Vibrational              6.972              0.156              0.023

 Normal termination of Gaussian 16 at Fri Aug 22 23:18:25 2025.
