 Gaussian 16, Revision C.01,
 Gaussian 16:  ES64L-G16RevC.01  3-Jul-2019

 -----------------------------------------
 # sp b3lyp/6-311g** Force nosymm scf=(qc)
 -----------------------------------------

 -------------------
 Title Card Required
 -------------------
 Symbolic Z-matrix:
 Charge =  0 Multiplicity = 2

                          Input orientation:
 ---------------------------------------------------------------------
 Center     Atomic      Atomic             Coordinates (Angstroms)
 Number     Number       Type             X           Y           Z
 ---------------------------------------------------------------------
      1          1           0        0.000000    0.000000    0.000000
      2          1           0       -2.100000    0.000000    0.000000
      3          9           0        1.050000    0.000000    0.000000
 ---------------------------------------------------------------------

 SCF Done:  E(UB3LYP) =  -100.959304044     a.u. after    6 cycles

 Alpha  occ. eigenvalues --  -24.63882  -1.14610  -0.50606  -0.38134  -0.38134
 Alpha  occ. eigenvalues --   -0.36000
 Alpha virt. eigenvalues --    0.01670   0.24376   0.32254   0.94087   0.94087
 Alpha virt. eigenvalues --    0.98983   1.15346   1.21427   1.21427   1.35927
 Alpha virt. eigenvalues --    1.35927   1.46143   1.82893   2.14666   2.34341

  Beta  occ. eigenvalues --  -24.63809  -1.14428  -0.50220  -0.38069  -0.38069
  Beta virt. eigenvalues --   -0.12427   0.04100   0.32126   0.35135   0.94093
  Beta virt. eigenvalues --    0.94093   0.99332   1.24645   1.35481   1.35481
  Beta virt. eigenvalues --    1.41641   1.41641   1.55600   1.83816   2.32450

 Mulliken charges and spin densities:
               1          2
     1  H    0.318234   0.002946
     2  H    0.016223   0.976192
     3  F   -0.334457   0.020862
 Sum of Mulliken charges =   0.00000   1.00000

 Dipole moment (field-independent basis, Debye):
    X=             -2.2808    Y=              0.0000    Z=             -0.0000  Tot=              2.2808
 Quadrupole moment (field-independent basis, Debye-Ang):
   XX=             -7.9437   YY=             -6.9762   ZZ=             -6.9762
   XY=              0.0000   XZ=             -0.0000   YZ=             -0.0000

  Exact polarizability:      11.304       0.000       2.434      -0.000      -0.000       2.434
 Approx polarizability:      12.823      -0.000       2.410       0.000      -0.000       2.410

 ******    1 imaginary frequencies (negative Signs) ******

                      1                      2                      3
                      A                      A                      A
 Frequencies --   -120.7590              1081.4747              1081.4747
 Red. masses --      1.0512                 1.0281                 1.0281
 Frc consts  --      0.0090                 0.7084                 0.7084
 IR Inten    --      4.0999               133.1666               133.1666

                      4
                      A
 Frequencies --   2395.2739
 Red. masses --      1.0604
 Frc consts  --      3.5844
 IR Inten    --    174.9561

 - Thermochemistry -
 -------------------
 Temperature   298.150 Kelvin.  Pressure   1.00000 Atm.
 Atom     1 has atomic number  1 and mass   1.00783

 Molecular mass:    21.01405 amu.
 Principal axes and moments of inertia in atomic units:
                           1         2         3
     Eigenvalues --     0.00000  36.63428  36.63428
           X            1.00000  -0.00000   0.00000
           Y            0.00000   1.00000   0.00000
           Z            0.00000   0.00000   1.00000
 This molecule is a prolate symmetric top.
 Rotational symmetry number  1.
 Rotational temperature (Kelvin)      2.36429
 Rotational constant (GHZ):          49.263724
    1 imaginary frequencies ignored.
 Zero-point vibrational energy      27264.2 (Joules/Mol)
                                    6.51631 (Kcal/Mol)
 Vibrational temperatures:   1556.00  1556.00  3446.26
          (Kelvin)

 Zero-point correction=                           0.010384 (Hartree/Particle)
 Thermal correction to Energy=                    0.012799
 Thermal correction to Enthalpy=                  0.013743
 Thermal correction to Gibbs Free Energy=        -0.009149
 Sum of electronic and zero-point Energies=           -100.948920
 Sum of electronic and thermal Energies=              -100.946505
 Sum of electronic and thermal Enthalpies=            -100.945561
 Sum of electronic and thermal Free Energies=         -100.968453

                     E (Thermal)             CV                S
                      KCal/Mol        Cal/Mol-Kelvin    Cal/Mol-Kelvin
 Total                    8.031              5.563             48.180
 Electronic               0.000              0.000              1.377
 Translational            0.889              2.981             35.068
 Rotational               0.592              1.987             11.600
 Vibrational              6.550              0.595              0.135

 Normal termination of Gaussian 16 at Fri Aug 22 16:03:00 2025.
