 Gaussian 16, Revision C.01,
 Gaussian 16:  ES64L-G16RevC.01  3-Jul-2019

 -----------------------------------------
 # sp b3lyp/6-311g** Force nosymm scf=(qc)
 -----------------------------------------

 -------------------
 Title Card Required
 -------------------
 Symbolic Z-matrix:
 Charge =  0 Multiplicity = 2

                          Input orientation:
 ---------------------------------------------------------------------
 Center     Atomic      Atomic             Coordinates (Angstroms)
 Number     Number       Type             X           Y           Z
 ---------------------------------------------------------------------
      1          1           0        0.000000    0.000000    0.000000
      2          1           0       -3.550000    0.000000    0.000000
      3          9           0        0.600000    0.000000    0.000000
 ---------------------------------------------------------------------

 SCF Done:  E(UB3LYP) =  -100.687913150     a.u. after    6 cycles

 Alpha  occ. eigenvalues --  -24.62730  -1.34728  -0.61025  -0.42980  -0.42980
 Alpha  occ. eigenvalues --   -0.33302
 Alpha virt. eigenvalues --    0.07383   0.24957   0.58034   0.92122   0.92122
 Alpha virt. eigenvalues --    0.93149   1.23981   1.24207   1.24207   1.33973
 Alpha virt. eigenvalues --    1.50264   1.50264   1.95464   2.14697   3.36532

  Beta  occ. eigenvalues --  -24.62729  -1.34727  -0.61025  -0.42980  -0.42980
  Beta virt. eigenvalues --   -0.05291   0.07800   0.39274   0.58049   0.92122
  Beta virt. eigenvalues --    0.92122   0.93144   1.33386   1.50254   1.50254
  Beta virt. eigenvalues --    1.50265   1.50265   1.50328   1.95430   2.44950

 Mulliken charges and spin densities:
               1          2
     1  H    0.238012   0.000495
     2  H    0.000670   0.999203
     3  F   -0.238682   0.000301
 Sum of Mulliken charges =   0.00000   1.00000

 Dipole moment (field-independent basis, Debye):
    X=             -1.4395    Y=             -0.0000    Z=              0.0000  Tot=              1.4395
 Quadrupole moment (field-independent basis, Debye-Ang):
   XX=             -6.9718   YY=             -6.5520   ZZ=             -6.5520
   XY=              0.0000   XZ=              0.0000   YZ=              0.0000

  Exact polarizability:       3.404      -0.000       2.438      -0.000      -0.000       2.438
 Approx polarizability:       3.637      -0.000       2.417      -0.000      -0.000       2.417

 ******    3 imaginary frequencies (negative Signs) ******

                      1                      2                      3
                      A                      A                      A
 Frequencies --  -5886.3549             -5886.3549               -36.3122
 Red. masses --      1.0440                 1.0440                 1.0532
 Frc consts  --     21.3138                21.3138                 0.0008
 IR Inten    --    240.7906               240.7906                 0.0217

                      4
                      A
 Frequencies --  13070.6107
 Red. masses --      1.0583
 Frc consts  --    106.5259
 IR Inten    --     97.4349

 - Thermochemistry -
 -------------------
 Temperature   298.150 Kelvin.  Pressure   1.00000 Atm.
 Atom     1 has atomic number  1 and mass   1.00783

 Molecular mass:    21.01405 amu.
 Principal axes and moments of inertia in atomic units:
                           1         2         3
     Eigenvalues --     0.00000  59.38512  59.38512
           X            1.00000  -0.00000   0.00000
           Y            0.00000   1.00000   0.00000
           Z            0.00000   0.00000   1.00000
 This molecule is a prolate symmetric top.
 Rotational symmetry number  1.
 Rotational temperature (Kelvin)      1.45851
 Rotational constant (GHZ):          30.390459
    3 imaginary frequencies ignored.
 Zero-point vibrational energy      78179.6 (Joules/Mol)
                                   18.68538 (Kcal/Mol)
 Vibrational temperatures:  18805.69
          (Kelvin)

 Zero-point correction=                           0.029777 (Hartree/Particle)
 Thermal correction to Energy=                    0.032138
 Thermal correction to Enthalpy=                  0.033082
 Thermal correction to Gibbs Free Energy=         0.009798
 Sum of electronic and zero-point Energies=           -100.658136
 Sum of electronic and thermal Energies=              -100.655776
 Sum of electronic and thermal Enthalpies=            -100.654831
 Sum of electronic and thermal Free Energies=         -100.678115

                     E (Thermal)             CV                S
                      KCal/Mol        Cal/Mol-Kelvin    Cal/Mol-Kelvin
 Total                   20.167              4.968             49.005
 Electronic               0.000              0.000              1.377
 Translational            0.889              2.981             35.068
 Rotational               0.592              1.987             12.559
 Vibrational             18.685              0.000              0.000

 Normal termination of Gaussian 16 at Fri Aug 22 15:42:42 2025.
