 Gaussian 16, Revision C.01,
 Gaussian 16:  ES64L-G16RevC.01  3-Jul-2019

 -----------------------------------------
 # sp b3lyp/6-311g** Force nosymm scf=(qc)
 -----------------------------------------

 -------------------
 Title Card Required
 -------------------
 Symbolic Z-matrix:
 Charge =  0 Multiplicity = 2

                          Input orientation:
 ---------------------------------------------------------------------
 Center     Atomic      Atomic             Coordinates (Angstroms)
 Number     Number       Type             X           Y           Z
 ---------------------------------------------------------------------
      1          1           0        0.000000    0.000000    0.000000
      2          1           0       -2.950000    0.000000    0.000000
      3          9           0        3.300000    0.000000    0.000000
 ---------------------------------------------------------------------

 SCF Done:  E(UB3LYP) =  -100.760644792     a.u. after   26 cycles

 Alpha  occ. eigenvalues --  -24.75003  -1.20994  -0.54124  -0.45444  -0.45444
 Alpha  occ. eigenvalues --   -0.32550
 Alpha virt. eigenvalues --   -0.08489   0.24945   0.35403   0.88317   0.91717
 Alpha virt. eigenvalues --    0.91717   1.02455   1.24993   1.24993   1.25836
 Alpha virt. eigenvalues --    1.43204   1.43204   1.43338   2.15704   2.39268

  Beta  occ. eigenvalues --  -24.71915  -1.12126  -0.42350  -0.42350  -0.33161
  Beta virt. eigenvalues --   -0.25286  -0.07682   0.24758   0.36570   0.93198
  Beta virt. eigenvalues --    0.93198   0.97330   1.06404   1.24276   1.24276
  Beta virt. eigenvalues --    1.25060   1.44499   1.44499   1.44532   2.16204

 Mulliken charges and spin densities:
               1          2
     1  H    0.017782  -0.970629
     2  H    0.001104   0.991474
     3  F   -0.018886   0.979156
 Sum of Mulliken charges =  -0.00000   1.00000

 Dipole moment (field-independent basis, Debye):
    X=             -0.3358    Y=              0.0000    Z=              0.0000  Tot=              0.3358
 Quadrupole moment (field-independent basis, Debye-Ang):
   XX=             -7.6160   YY=             -7.6334   ZZ=             -7.6334
   XY=             -0.0000   XZ=             -0.0000   YZ=             -0.0000

  Exact polarizability:      31.573      -0.000       2.026       0.000      -0.000       2.026
 Approx polarizability:      26.477      -0.000       1.929      -0.000       0.000       1.929

 ******    2 imaginary frequencies (negative Signs) ******

                      1                      2                      3
                      A                      A                      A
 Frequencies --   -402.2519              -159.9046               142.4696
 Red. masses --      1.0138                 1.1014                 1.0166
 Frc consts  --      0.0966                 0.0166                 0.0122
 IR Inten    --     15.1571                 6.3016                 0.2697

                      4
                      A
 Frequencies --    142.4696
 Red. masses --      1.0166
 Frc consts  --      0.0122
 IR Inten    --      0.2697

 - Thermochemistry -
 -------------------
 Temperature   298.150 Kelvin.  Pressure   1.00000 Atm.
 Atom     1 has atomic number  1 and mass   1.00783

 Molecular mass:    21.01405 amu.
 Principal axes and moments of inertia in atomic units:
                           1         2         3
     Eigenvalues --     0.00000 164.03729 164.03729
           X            1.00000  -0.00000   0.00000
           Y            0.00000   1.00000   0.00000
           Z            0.00000   0.00000   1.00000
 This molecule is a prolate symmetric top.
 Rotational symmetry number  1.
 Rotational temperature (Kelvin)      0.52801
 Rotational constant (GHZ):          11.002018
    2 imaginary frequencies ignored.
 Zero-point vibrational energy       1704.3 (Joules/Mol)
                                    0.40734 (Kcal/Mol)
 Warning -- explicit consideration of   2 degrees of freedom as
           vibrations may cause significant error
 Vibrational temperatures:    204.98   204.98
          (Kelvin)

 Zero-point correction=                           0.000649 (Hartree/Particle)
 Thermal correction to Energy=                    0.004323
 Thermal correction to Enthalpy=                  0.005267
 Thermal correction to Gibbs Free Energy=        -0.021609
 Sum of electronic and zero-point Energies=           -100.759996
 Sum of electronic and thermal Energies=              -100.756322
 Sum of electronic and thermal Enthalpies=            -100.755378
 Sum of electronic and thermal Free Energies=         -100.782254

                     E (Thermal)             CV                S
                      KCal/Mol        Cal/Mol-Kelvin    Cal/Mol-Kelvin
 Total                    2.712              8.790             56.565
 Electronic               0.000              0.000              1.377
 Translational            0.889              2.981             35.068
 Rotational               0.592              1.987             14.579
 Vibrational              1.231              3.821              5.541
 Vibration     1          0.616              1.911              2.770
 Vibration     2          0.616              1.911              2.770

 Normal termination of Gaussian 16 at Fri Aug 22 20:49:23 2025.
