 Gaussian 16, Revision C.01,
 Gaussian 16:  ES64L-G16RevC.01  3-Jul-2019

 -----------------------------------------
 # sp b3lyp/6-311g** Force nosymm scf=(qc)
 -----------------------------------------

 -------------------
 Title Card Required
 -------------------
 Symbolic Z-matrix:
 Charge =  0 Multiplicity = 2

                          Input orientation:
 ---------------------------------------------------------------------
 Center     Atomic      Atomic             Coordinates (Angstroms)
 Number     Number       Type             X           Y           Z
 ---------------------------------------------------------------------
      1          1           0        0.000000    0.000000    0.000000
      2          1           0       -2.150000    0.000000    0.000000
      3          9           0        3.950000    0.000000    0.000000
 ---------------------------------------------------------------------

 SCF Done:  E(UB3LYP) =  -100.768878143     a.u. after   72 cycles

 Alpha  occ. eigenvalues --  -24.76012  -1.21929  -0.55132  -0.46302  -0.46298
 Alpha  occ. eigenvalues --   -0.32685
 Alpha virt. eigenvalues --   -0.10197   0.26085   0.33583   0.86357   0.91075
 Alpha virt. eigenvalues --    0.91232   1.01002   1.22467   1.25204   1.25204
 Alpha virt. eigenvalues --    1.39425   1.39426   1.46860   2.13976   2.35601

  Beta  occ. eigenvalues --  -24.72863  -1.12871  -0.43146  -0.43140  -0.32704
  Beta virt. eigenvalues --   -0.25824  -0.10162   0.26019   0.33684   0.92575
  Beta virt. eigenvalues --    0.92705   0.95792   1.05138   1.22438   1.25176
  Beta virt. eigenvalues --    1.25178   1.39493   1.39493   1.46918   2.14164

 Mulliken charges and spin densities:
               1          2
     1  H    0.000285  -0.909462
     2  H    0.000598   0.910852
     3  F   -0.000883   0.998610
 Sum of Mulliken charges =   0.00000   1.00000

 Dipole moment (field-independent basis, Debye):
    X=             -0.0260    Y=              0.0006    Z=              0.0000  Tot=              0.0260
 Quadrupole moment (field-independent basis, Debye-Ang):
   XX=             -6.8118   YY=             -7.2701   ZZ=             -7.7078
   XY=              0.4320   XZ=              0.0000   YZ=              0.0000

  Exact polarizability:      20.944       0.225       2.250       0.000       0.000       2.014
 Approx polarizability:      21.304       0.279       2.229       0.000       0.000       1.934

 ******    2 imaginary frequencies (negative Signs) ******

                      1                      2                      3
                      A                      A                      A
 Frequencies --  -1094.1229               -62.0495               431.9800
 Red. masses --      1.0078                 1.1085                 1.0123
 Frc consts  --      0.7108                 0.0025                 0.1113
 IR Inten    --      0.0145                 0.0868                 0.0000

                      4
                      A
 Frequencies --    432.0593
 Red. masses --      1.0123
 Frc consts  --      0.1113
 IR Inten    --      0.0161

 - Thermochemistry -
 -------------------
 Temperature   298.150 Kelvin.  Pressure   1.00000 Atm.
 Atom     1 has atomic number  1 and mass   1.00783

 Molecular mass:    21.01405 amu.
 Principal axes and moments of inertia in atomic units:
                           1         2         3
     Eigenvalues --     0.00000 172.63891 172.63891
           X            1.00000  -0.00000   0.00000
           Y            0.00000   1.00000   0.00000
           Z            0.00000   0.00000   1.00000
 This molecule is a prolate symmetric top.
 Rotational symmetry number  1.
 Rotational temperature (Kelvin)      0.50171
 Rotational constant (GHZ):          10.453850
    2 imaginary frequencies ignored.
 Zero-point vibrational energy       5168.1 (Joules/Mol)
                                    1.23521 (Kcal/Mol)
 Warning -- explicit consideration of   2 degrees of freedom as
           vibrations may cause significant error
 Vibrational temperatures:    621.52   621.64
          (Kelvin)

 Zero-point correction=                           0.001968 (Hartree/Particle)
 Thermal correction to Energy=                    0.004888
 Thermal correction to Enthalpy=                  0.005832
 Thermal correction to Gibbs Free Energy=        -0.019269
 Sum of electronic and zero-point Energies=           -100.766910
 Sum of electronic and thermal Energies=              -100.763990
 Sum of electronic and thermal Enthalpies=            -100.763046
 Sum of electronic and thermal Free Energies=         -100.788147

                     E (Thermal)             CV                S
                      KCal/Mol        Cal/Mol-Kelvin    Cal/Mol-Kelvin
 Total                    3.067              7.769             52.830
 Electronic               0.000              0.000              1.377
 Translational            0.889              2.981             35.068
 Rotational               0.592              1.987             14.680
 Vibrational              1.586              2.801              1.704
 Vibration     1          0.793              1.401              0.852
 Vibration     2          0.793              1.400              0.852

 Normal termination of Gaussian 16 at Sat Aug 23 01:37:42 2025.
