 Gaussian 16, Revision C.01,
 Gaussian 16:  ES64L-G16RevC.01  3-Jul-2019

 -----------------------------------------
 # sp b3lyp/6-311g** Force nosymm scf=(qc)
 -----------------------------------------

 -------------------
 Title Card Required
 -------------------
 Symbolic Z-matrix:
 Charge =  0 Multiplicity = 2

                          Input orientation:
 ---------------------------------------------------------------------
 Center     Atomic      Atomic             Coordinates (Angstroms)
 Number     Number       Type             X           Y           Z
 ---------------------------------------------------------------------
      1          1           0        0.000000    0.000000    0.000000
      2          1           0       -1.100000    0.000000    0.000000
      3          9           0        2.300000    0.000000    0.000000
 ---------------------------------------------------------------------

 SCF Done:  E(UB3LYP) =  -100.891516724     a.u. after   14 cycles

 Alpha  occ. eigenvalues --  -24.74692  -1.20729  -0.54020  -0.45218  -0.45218
 Alpha  occ. eigenvalues --   -0.39090
 Alpha virt. eigenvalues --   -0.02199   0.21847   0.36783   0.88986   0.91577
 Alpha virt. eigenvalues --    0.91577   1.09207   1.09207   1.09659   1.33387
 Alpha virt. eigenvalues --    1.58329   1.58329   2.15266   2.32895   2.55150

  Beta  occ. eigenvalues --  -24.71670  -1.12089  -0.42199  -0.42199  -0.38853
  Beta virt. eigenvalues --   -0.25704  -0.01394   0.22297   0.37236   0.92995
  Beta virt. eigenvalues --    0.92995   0.96969   1.09710   1.09710   1.12975
  Beta virt. eigenvalues --    1.35039   1.58715   1.58715   2.15930   2.33468

 Mulliken charges and spin densities:
               1          2
     1  H    0.002531  -0.042919
     2  H    0.031625   0.089915
     3  F   -0.034156   0.953004
 Sum of Mulliken charges =  -0.00000   1.00000

 Dipole moment (field-independent basis, Debye):
    X=             -0.5558    Y=              0.0000    Z=             -0.0000  Tot=              0.5558
 Quadrupole moment (field-independent basis, Debye-Ang):
   XX=             -6.1964   YY=             -7.3481   ZZ=             -7.3481
   XY=              0.0000   XZ=             -0.0000   YZ=              0.0000

  Exact polarizability:      32.697       0.000       2.138      -0.000       0.000       2.138
 Approx polarizability:      40.613       0.000       2.145      -0.000      -0.000       2.145

 ******    1 imaginary frequencies (negative Signs) ******

                      1                      2                      3
                      A                      A                      A
 Frequencies --   -391.0194               779.5068              1463.2722
 Red. masses --      1.0983                 1.0165                 1.0115
 Frc consts  --      0.0989                 0.3639                 1.2760
 IR Inten    --    129.6788               258.6523                 0.0199

                      4
                      A
 Frequencies --   1463.2722
 Red. masses --      1.0115
 Frc consts  --      1.2760
 IR Inten    --      0.0199

 - Thermochemistry -
 -------------------
 Temperature   298.150 Kelvin.  Pressure   1.00000 Atm.
 Atom     1 has atomic number  1 and mass   1.00783

 Molecular mass:    21.01405 amu.
 Principal axes and moments of inertia in atomic units:
                           1         2         3
     Eigenvalues --     0.00000  55.03530  55.03530
           X            1.00000  -0.00000   0.00000
           Y            0.00000   1.00000   0.00000
           Z            0.00000   0.00000   1.00000
 This molecule is a prolate symmetric top.
 Rotational symmetry number  1.
 Rotational temperature (Kelvin)      1.57379
 Rotational constant (GHZ):          32.792432
    1 imaginary frequencies ignored.
 Zero-point vibrational energy      22167.1 (Joules/Mol)
                                    5.29807 (Kcal/Mol)
 Vibrational temperatures:   1121.54  2105.32  2105.32
          (Kelvin)

 Zero-point correction=                           0.008443 (Hartree/Particle)
 Thermal correction to Energy=                    0.010899
 Thermal correction to Enthalpy=                  0.011844
 Thermal correction to Gibbs Free Energy=        -0.011488
 Sum of electronic and zero-point Energies=           -100.883074
 Sum of electronic and thermal Energies=              -100.880617
 Sum of electronic and thermal Enthalpies=            -100.879673
 Sum of electronic and thermal Free Energies=         -100.903005

                     E (Thermal)             CV                S
                      KCal/Mol        Cal/Mol-Kelvin    Cal/Mol-Kelvin
 Total                    6.840              5.823             49.106
 Electronic               0.000              0.000              1.377
 Translational            0.889              2.981             35.068
 Rotational               0.592              1.987             12.408
 Vibrational              5.358              0.855              0.252

 Normal termination of Gaussian 16 at Fri Aug 22 17:20:58 2025.
