 Gaussian 16, Revision C.01,
 Gaussian 16:  ES64L-G16RevC.01  3-Jul-2019

 -----------------------------------------
 # sp b3lyp/6-311g** Force nosymm scf=(qc)
 -----------------------------------------

 -------------------
 Title Card Required
 -------------------
 Symbolic Z-matrix:
 Charge =  0 Multiplicity = 2

                          Input orientation:
 ---------------------------------------------------------------------
 Center     Atomic      Atomic             Coordinates (Angstroms)
 Number     Number       Type             X           Y           Z
 ---------------------------------------------------------------------
      1          1           0        0.000000    0.000000    0.000000
      2          1           0       -0.900000    0.000000    0.000000
      3          9           0        3.950000    0.000000    0.000000
 ---------------------------------------------------------------------

 SCF Done:  E(UB3LYP) =  -100.921743486     a.u. after   15 cycles

 Alpha  occ. eigenvalues --  -24.76188  -1.22086  -0.55290  -0.46464  -0.46446
 Alpha  occ. eigenvalues --   -0.40432
 Alpha virt. eigenvalues --    0.02588   0.20755   0.41655   0.86079   0.90956
 Alpha virt. eigenvalues --    0.91535   1.00994   1.08359   1.08360   1.45305
 Alpha virt. eigenvalues --    1.72244   1.72246   2.16856   2.37255   2.74160

  Beta  occ. eigenvalues --  -24.73033  -1.13012  -0.43302  -0.43283  -0.40430
  Beta virt. eigenvalues --   -0.25940   0.02591   0.20758   0.41671   0.92457
  Beta virt. eigenvalues --    0.93027   0.95545   1.05139   1.08359   1.08360
  Beta virt. eigenvalues --    1.45306   1.72244   1.72246   2.16860   2.37256

 Mulliken charges and spin densities:
               1          2
     1  H    0.000636  -0.000110
     2  H   -0.001771  -0.000012
     3  F    0.001135   1.000122
 Sum of Mulliken charges =   0.00000   1.00000

 Dipole moment (field-independent basis, Debye):
    X=              0.0203    Y=             -0.0000    Z=              0.0000  Tot=              0.0203
 Quadrupole moment (field-independent basis, Debye-Ang):
   XX=             -6.3339   YY=             -6.9791   ZZ=             -6.4544
   XY=             -0.0000   XZ=              0.0000   YZ=             -0.3436

  Exact polarizability:      10.245      -0.000       2.118       0.000      -0.186       2.402
 Approx polarizability:      12.797      -0.000       2.203       0.000      -0.232       2.556

 ******    1 imaginary frequencies (negative Signs) ******

                      1                      2                      3
                      A                      A                      A
 Frequencies --    -60.7607              1451.6040              1453.5503
 Red. masses --      1.1085                 1.0089                 1.0089
 Frc consts  --      0.0024                 1.2525                 1.2559
 IR Inten    --      0.0409                 0.0013                 0.0004

                      4
                      A
 Frequencies --   2642.7157
 Red. masses --      1.0078
 Frc consts  --      4.1470
 IR Inten    --      0.0345

 - Thermochemistry -
 -------------------
 Temperature   298.150 Kelvin.  Pressure   1.00000 Atm.
 Atom     1 has atomic number  1 and mass   1.00783

 Molecular mass:    21.01405 amu.
 Principal axes and moments of inertia in atomic units:
                           1         2         3
     Eigenvalues --     0.00000 127.44453 127.44453
           X            1.00000  -0.00000   0.00000
           Y            0.00000   1.00000   0.00000
           Z            0.00000   0.00000   1.00000
 This molecule is a prolate symmetric top.
 Rotational symmetry number  1.
 Rotational temperature (Kelvin)      0.67962
 Rotational constant (GHZ):          14.160994
    1 imaginary frequencies ignored.
 Zero-point vibrational energy      33183.6 (Joules/Mol)
                                    7.93108 (Kcal/Mol)
 Vibrational temperatures:   2088.53  2091.33  3802.28
          (Kelvin)

 Zero-point correction=                           0.012639 (Hartree/Particle)
 Thermal correction to Energy=                    0.015011
 Thermal correction to Enthalpy=                  0.015956
 Thermal correction to Gibbs Free Energy=        -0.008063
 Sum of electronic and zero-point Energies=           -100.909105
 Sum of electronic and thermal Energies=              -100.906732
 Sum of electronic and thermal Enthalpies=            -100.905788
 Sum of electronic and thermal Free Energies=         -100.929806

                     E (Thermal)             CV                S
                      KCal/Mol        Cal/Mol-Kelvin    Cal/Mol-Kelvin
 Total                    9.420              5.146             50.551
 Electronic               0.000              0.000              1.377
 Translational            0.889              2.981             35.068
 Rotational               0.592              1.987             14.077
 Vibrational              7.939              0.178              0.029

 Normal termination of Gaussian 16 at Sat Aug 23 01:30:35 2025.
