 Gaussian 16, Revision C.01,
 Gaussian 16:  ES64L-G16RevC.01  3-Jul-2019

 -----------------------------------------
 # sp b3lyp/6-311g** Force nosymm scf=(qc)
 -----------------------------------------

 -------------------
 Title Card Required
 -------------------
 Symbolic Z-matrix:
 Charge =  0 Multiplicity = 2

                          Input orientation:
 ---------------------------------------------------------------------
 Center     Atomic      Atomic             Coordinates (Angstroms)
 Number     Number       Type             X           Y           Z
 ---------------------------------------------------------------------
      1          1           0        0.000000    0.000000    0.000000
      2          1           0       -0.600000    0.000000    0.000000
      3          9           0        2.850000    0.000000    0.000000
 ---------------------------------------------------------------------

 SCF Done:  E(UB3LYP) =  -100.915266737     a.u. after   86 cycles

 Alpha  occ. eigenvalues --  -24.76658  -1.22447  -0.55636  -0.47255  -0.46785
 Alpha  occ. eigenvalues --   -0.46000
 Alpha virt. eigenvalues --    0.09032   0.19211   0.52748   0.85841   0.90712
 Alpha virt. eigenvalues --    0.93899   1.08774   1.10393   1.10403   1.61235
 Alpha virt. eigenvalues --    1.83433   1.92942   1.92954   2.38124   3.64633

  Beta  occ. eigenvalues --  -24.73495  -1.13356  -0.46529  -0.43614  -0.43551
  Beta virt. eigenvalues --   -0.26254   0.09102   0.19255   0.52866   0.92210
  Beta virt. eigenvalues --    0.95296   0.95825   1.10393   1.10402   1.12292
  Beta virt. eigenvalues --    1.61253   1.83466   1.92941   1.92953   2.38132

 Mulliken charges and spin densities:
               1          2
     1  H   -0.008867  -0.001896
     2  H   -0.002895   0.000223
     3  F    0.011762   1.001672
 Sum of Mulliken charges =   0.00000   1.00000

 Dipole moment (field-independent basis, Debye):
    X=              0.1048    Y=             -0.0000    Z=             -0.0000  Tot=              0.1048
 Quadrupole moment (field-independent basis, Debye-Ang):
   XX=             -5.9939   YY=             -6.0680   ZZ=             -6.5630
   XY=              0.0000   XZ=              0.0000   YZ=              0.3537

  Exact polarizability:       6.906       0.000       2.239      -0.000       0.187       1.977
 Approx polarizability:       7.411       0.000       2.414       0.000       0.235       2.085

 ******    2 imaginary frequencies (negative Signs) ******

                      1                      2                      3
                      A                      A                      A
 Frequencies --  -2753.6231             -2752.7345                94.7086
 Red. masses --      1.0087                 1.0087                 1.1085
 Frc consts  --      4.5065                 4.5036                 0.0059
 IR Inten    --      0.0503                 0.0505                 0.2056

                      4
                      A
 Frequencies --   7042.1731
 Red. masses --      1.0078
 Frc consts  --     29.4475
 IR Inten    --      0.5560

 - Thermochemistry -
 -------------------
 Temperature   298.150 Kelvin.  Pressure   1.00000 Atm.
 Atom     1 has atomic number  1 and mass   1.00783

 Molecular mass:    21.01405 amu.
 Principal axes and moments of inertia in atomic units:
                           1         2         3
     Eigenvalues --     0.00000  65.21938  65.21938
           X            1.00000  -0.00000   0.00000
           Y            0.00000   1.00000   0.00000
           Z            0.00000   0.00000   1.00000
 This molecule is a prolate symmetric top.
 Rotational symmetry number  1.
 Rotational temperature (Kelvin)      1.32804
 Rotational constant (GHZ):          27.671856
    2 imaginary frequencies ignored.
 Zero-point vibrational energy      42688.0 (Joules/Mol)
                                   10.20268 (Kcal/Mol)
 Warning -- explicit consideration of   1 degrees of freedom as
           vibrations may cause significant error
 Vibrational temperatures:    136.26 10132.12
          (Kelvin)

 Zero-point correction=                           0.016259 (Hartree/Particle)
 Thermal correction to Energy=                    0.019364
 Thermal correction to Enthalpy=                  0.020308
 Thermal correction to Gibbs Free Energy=        -0.004755
 Sum of electronic and zero-point Energies=           -100.899008
 Sum of electronic and thermal Energies=              -100.895902
 Sum of electronic and thermal Enthalpies=            -100.894958
 Sum of electronic and thermal Free Energies=         -100.920022

                     E (Thermal)             CV                S
                      KCal/Mol        Cal/Mol-Kelvin    Cal/Mol-Kelvin
 Total                   12.151              6.921             52.752
 Electronic               0.000              0.000              1.377
 Translational            0.889              2.981             35.068
 Rotational               0.592              1.987             12.746
 Vibrational             10.670              1.953              3.560
 Vibration     1          0.603              1.953              3.560

 Normal termination of Gaussian 16 at Fri Aug 22 18:46:06 2025.
