 Gaussian 16, Revision C.01,
 Gaussian 16:  ES64L-G16RevC.01  3-Jul-2019

 -----------------------------------------
 # sp b3lyp/6-311g** Force nosymm scf=(qc)
 -----------------------------------------

 -------------------
 Title Card Required
 -------------------
 Symbolic Z-matrix:
 Charge =  0 Multiplicity = 2

                          Input orientation:
 ---------------------------------------------------------------------
 Center     Atomic      Atomic             Coordinates (Angstroms)
 Number     Number       Type             X           Y           Z
 ---------------------------------------------------------------------
      1          1           0        0.000000    0.000000    0.000000
      2          1           0       -3.400000    0.000000    0.000000
      3          9           0        2.150000    0.000000    0.000000
 ---------------------------------------------------------------------

 SCF Done:  E(UB3LYP) =  -100.778292640     a.u. after   17 cycles

 Alpha  occ. eigenvalues --  -24.66735  -1.08400  -0.38128  -0.38128  -0.37083
 Alpha  occ. eigenvalues --   -0.33205
 Alpha virt. eigenvalues --   -0.21619   0.20555   0.27931   0.90917   0.95667
 Alpha virt. eigenvalues --    0.95667   1.08251   1.21530   1.21530   1.24221
 Alpha virt. eigenvalues --    1.24221   1.24333   1.44772   2.11339   2.15144

  Beta  occ. eigenvalues --  -24.69301  -1.15624  -0.48341  -0.40669  -0.40669
  Beta virt. eigenvalues --   -0.12986  -0.04736   0.30730   0.40016   0.88473
  Beta virt. eigenvalues --    0.94676   0.94676   1.06059   1.37054   1.37054
  Beta virt. eigenvalues --    1.47624   1.47624   1.47838   1.53925   2.31839

 Mulliken charges and spin densities:
               1          2
     1  H    0.155763   0.809248
     2  H    0.001575   0.998463
     3  F   -0.157338  -0.807711
 Sum of Mulliken charges =   0.00000   1.00000

 Dipole moment (field-independent basis, Debye):
    X=             -1.7149    Y=              0.0000    Z=             -0.0000  Tot=              1.7149
 Quadrupole moment (field-independent basis, Debye-Ang):
   XX=             -9.9223   YY=             -7.5078   ZZ=             -7.5078
   XY=              0.0000   XZ=             -0.0000   YZ=             -0.0000

  Exact polarizability:      28.715       0.000       2.045      -0.000       0.000       2.045
 Approx polarizability:      40.123       0.000       1.933      -0.000      -0.000       1.933

 ******    1 imaginary frequencies (negative Signs) ******

                      1                      2                      3
                      A                      A                      A
 Frequencies --   -909.9922                79.7813               381.7754
 Red. masses --      1.0596                 1.0520                 1.0243
 Frc consts  --      0.5170                 0.0039                 0.0880
 IR Inten    --     99.7963                 0.3453                22.7753

                      4
                      A
 Frequencies --    381.7754
 Red. masses --      1.0243
 Frc consts  --      0.0880
 IR Inten    --     22.7753

 - Thermochemistry -
 -------------------
 Temperature   298.150 Kelvin.  Pressure   1.00000 Atm.
 Atom     1 has atomic number  1 and mass   1.00783

 Molecular mass:    21.01405 amu.
 Principal axes and moments of inertia in atomic units:
                           1         2         3
     Eigenvalues --     0.00000 117.26101 117.26101
           X            1.00000  -0.00000   0.00000
           Y            0.00000   1.00000   0.00000
           Z            0.00000   0.00000   1.00000
 This molecule is a prolate symmetric top.
 Rotational symmetry number  1.
 Rotational temperature (Kelvin)      0.73864
 Rotational constant (GHZ):          15.390803
    1 imaginary frequencies ignored.
 Zero-point vibrational energy       5044.2 (Joules/Mol)
                                    1.20560 (Kcal/Mol)
 Warning -- explicit consideration of   3 degrees of freedom as
           vibrations may cause significant error
 Vibrational temperatures:    114.79   549.29   549.29
          (Kelvin)

 Zero-point correction=                           0.001921 (Hartree/Particle)
 Thermal correction to Energy=                    0.005711
 Thermal correction to Enthalpy=                  0.006655
 Thermal correction to Gibbs Free Energy=        -0.020103
 Sum of electronic and zero-point Energies=           -100.776371
 Sum of electronic and thermal Energies=              -100.772582
 Sum of electronic and thermal Enthalpies=            -100.771638
 Sum of electronic and thermal Free Energies=         -100.798396

                     E (Thermal)             CV                S
                      KCal/Mol        Cal/Mol-Kelvin    Cal/Mol-Kelvin
 Total                    3.584              9.949             56.317
 Electronic               0.000              0.000              1.377
 Translational            0.889              2.981             35.068
 Rotational               0.592              1.987             13.911
 Vibrational              2.102              4.981              5.960
 Vibration     1          0.600              1.963              3.896
 Vibration     2          0.751              1.509              1.032
 Vibration     3          0.751              1.509              1.032

 Normal termination of Gaussian 16 at Fri Aug 22 17:09:01 2025.
