 Gaussian 16, Revision C.01,
 Gaussian 16:  ES64L-G16RevC.01  3-Jul-2019

 -----------------------------------------
 # sp b3lyp/6-311g** Force nosymm scf=(qc)
 -----------------------------------------

 -------------------
 Title Card Required
 -------------------
 Symbolic Z-matrix:
 Charge =  0 Multiplicity = 2

                          Input orientation:
 ---------------------------------------------------------------------
 Center     Atomic      Atomic             Coordinates (Angstroms)
 Number     Number       Type             X           Y           Z
 ---------------------------------------------------------------------
      1          1           0        0.000000    0.000000    0.000000
      2          1           0       -2.950000    0.000000    0.000000
      3          9           0        3.400000    0.000000    0.000000
 ---------------------------------------------------------------------

 SCF Done:  E(UB3LYP) =  -100.760365249     a.u. after   25 cycles

 Alpha  occ. eigenvalues --  -24.75223  -1.21198  -0.54345  -0.45629  -0.45629
 Alpha  occ. eigenvalues --   -0.32503
 Alpha virt. eigenvalues --   -0.08323   0.24994   0.35584   0.87948   0.91581
 Alpha virt. eigenvalues --    0.91581   1.02099   1.25040   1.25040   1.25869
 Alpha virt. eigenvalues --    1.43448   1.43448   1.43528   2.15746   2.39307

  Beta  occ. eigenvalues --  -24.72120  -1.12285  -0.42520  -0.42520  -0.33010
  Beta virt. eigenvalues --   -0.25403  -0.07659   0.24783   0.36586   0.93067
  Beta virt. eigenvalues --    0.93067   0.97032   1.06086   1.24447   1.24447
  Beta virt. eigenvalues --    1.25222   1.44511   1.44511   1.44544   2.16166

 Mulliken charges and spin densities:
               1          2
     1  H    0.013776  -0.975197
     2  H    0.000915   0.991434
     3  F   -0.014691   0.983763
 Sum of Mulliken charges =  -0.00000   1.00000

 Dipole moment (field-independent basis, Debye):
    X=             -0.2696    Y=             -0.0000    Z=             -0.0000  Tot=              0.2696
 Quadrupole moment (field-independent basis, Debye-Ang):
   XX=             -7.4497   YY=             -7.6351   ZZ=             -7.6351
   XY=             -0.0000   XZ=             -0.0000   YZ=             -0.0000

  Exact polarizability:      29.296      -0.000       2.028      -0.000      -0.000       2.028
 Approx polarizability:      23.536      -0.000       1.930      -0.000       0.000       1.930

 ******    2 imaginary frequencies (negative Signs) ******

                      1                      2                      3
                      A                      A                      A
 Frequencies --   -388.6433              -144.8990               136.5702
 Red. masses --      1.0116                 1.1040                 1.0163
 Frc consts  --      0.0900                 0.0137                 0.0112
 IR Inten    --     10.6160                 5.4851                 0.1593

                      4
                      A
 Frequencies --    136.5702
 Red. masses --      1.0163
 Frc consts  --      0.0112
 IR Inten    --      0.1593

 - Thermochemistry -
 -------------------
 Temperature   298.150 Kelvin.  Pressure   1.00000 Atm.
 Atom     1 has atomic number  1 and mass   1.00783

 Molecular mass:    21.01405 amu.
 Principal axes and moments of inertia in atomic units:
                           1         2         3
     Eigenvalues --     0.00000 170.31712 170.31712
           X            1.00000  -0.00000   0.00000
           Y            0.00000   1.00000   0.00000
           Z            0.00000   0.00000   1.00000
 This molecule is a prolate symmetric top.
 Rotational symmetry number  1.
 Rotational temperature (Kelvin)      0.50855
 Rotational constant (GHZ):          10.596358
    2 imaginary frequencies ignored.
 Zero-point vibrational energy       1633.7 (Joules/Mol)
                                    0.39047 (Kcal/Mol)
 Warning -- explicit consideration of   2 degrees of freedom as
           vibrations may cause significant error
 Vibrational temperatures:    196.49   196.49
          (Kelvin)

 Zero-point correction=                           0.000622 (Hartree/Particle)
 Thermal correction to Energy=                    0.004317
 Thermal correction to Enthalpy=                  0.005261
 Thermal correction to Gibbs Free Energy=        -0.021727
 Sum of electronic and zero-point Energies=           -100.759743
 Sum of electronic and thermal Energies=              -100.756049
 Sum of electronic and thermal Enthalpies=            -100.755104
 Sum of electronic and thermal Free Energies=         -100.782093

                     E (Thermal)             CV                S
                      KCal/Mol        Cal/Mol-Kelvin    Cal/Mol-Kelvin
 Total                    2.709              8.802             56.801
 Electronic               0.000              0.000              1.377
 Translational            0.889              2.981             35.068
 Rotational               0.592              1.987             14.653
 Vibrational              1.228              3.834              5.703
 Vibration     1          0.614              1.917              2.851
 Vibration     2          0.614              1.917              2.851

 Normal termination of Gaussian 16 at Fri Aug 22 21:17:58 2025.
