 Gaussian 16, Revision C.01,
 Gaussian 16:  ES64L-G16RevC.01  3-Jul-2019

 -----------------------------------------
 # sp b3lyp/6-311g** Force nosymm scf=(qc)
 -----------------------------------------

 -------------------
 Title Card Required
 -------------------
 Symbolic Z-matrix:
 Charge =  0 Multiplicity = 2

                          Input orientation:
 ---------------------------------------------------------------------
 Center     Atomic      Atomic             Coordinates (Angstroms)
 Number     Number       Type             X           Y           Z
 ---------------------------------------------------------------------
      1          1           0        0.000000    0.000000    0.000000
      2          1           0       -1.300000    0.000000    0.000000
      3          9           0        3.000000    0.000000    0.000000
 ---------------------------------------------------------------------

 SCF Done:  E(UB3LYP) =  -100.854331846     a.u. after  192 cycles

 Alpha  occ. eigenvalues --  -24.76701  -1.22525  -0.55713  -0.46965  -0.46864
 Alpha  occ. eigenvalues --   -0.35139
 Alpha virt. eigenvalues --   -0.05956   0.23721   0.32987   0.85743   0.90616
 Alpha virt. eigenvalues --    0.93243   1.03682   1.15493   1.15499   1.15844
 Alpha virt. eigenvalues --    1.49593   1.49599   1.99416   2.29294   2.53797

  Beta  occ. eigenvalues --  -24.73541  -1.13440  -0.43804  -0.43695  -0.35127
  Beta virt. eigenvalues --   -0.26339  -0.05941   0.23742   0.33061   0.92114
  Beta virt. eigenvalues --    0.94913   0.95201   1.07569   1.15492   1.15498
  Beta virt. eigenvalues --    1.15848   1.49591   1.49598   1.99425   2.29297

 Mulliken charges and spin densities:
               1          2
     1  H   -0.000963   0.000149
     2  H   -0.006702  -0.001173
     3  F    0.007665   1.001024
 Sum of Mulliken charges =   0.00000   1.00000

 Dipole moment (field-independent basis, Debye):
    X=              0.1091    Y=             -0.0000    Z=             -0.0000  Tot=              0.1091
 Quadrupole moment (field-independent basis, Debye-Ang):
   XX=             -6.1498   YY=             -7.1664   ZZ=             -7.1699
   XY=              0.0000   XZ=             -0.0000   YZ=             -0.4318

  Exact polarizability:      18.702       0.000       2.307      -0.000      -0.231       2.305
 Approx polarizability:      29.968       0.000       2.383      -0.000      -0.290       2.381

 ******    1 imaginary frequencies (negative Signs) ******

                      1                      2                      3
                      A                      A                      A
 Frequencies --   -970.1396                32.4792              1392.1433
 Red. masses --      1.0078                 1.1085                 1.0109
 Frc consts  --      0.5589                 0.0007                 1.1544
 IR Inten    --      1.1437                 0.6269                 0.0041

                      4
                      A
 Frequencies --   1392.4927
 Red. masses --      1.0109
 Frc consts  --      1.1549
 IR Inten    --      0.0041

 - Thermochemistry -
 -------------------
 Temperature   298.150 Kelvin.  Pressure   1.00000 Atm.
 Atom     1 has atomic number  1 and mass   1.00783

 Molecular mass:    21.01405 amu.
 Principal axes and moments of inertia in atomic units:
                           1         2         3
     Eigenvalues --     0.00000  89.73852  89.73852
           X            1.00000  -0.00000   0.00000
           Y            0.00000   1.00000   0.00000
           Z            0.00000   0.00000   1.00000
 This molecule is a prolate symmetric top.
 Rotational symmetry number  1.
 Rotational temperature (Kelvin)      0.96518
 Rotational constant (GHZ):          20.111109
    1 imaginary frequencies ignored.
 Zero-point vibrational energy      16850.1 (Joules/Mol)
                                    4.02727 (Kcal/Mol)
 Warning -- explicit consideration of   1 degrees of freedom as
           vibrations may cause significant error
 Vibrational temperatures:     46.73  2002.98  2003.49
          (Kelvin)

 Zero-point correction=                           0.006418 (Hartree/Particle)
 Thermal correction to Energy=                    0.009666
 Thermal correction to Enthalpy=                  0.010610
 Thermal correction to Gibbs Free Energy=        -0.015776
 Sum of electronic and zero-point Energies=           -100.847914
 Sum of electronic and thermal Energies=              -100.844666
 Sum of electronic and thermal Enthalpies=            -100.843722
 Sum of electronic and thermal Free Energies=         -100.870108

                     E (Thermal)             CV                S
                      KCal/Mol        Cal/Mol-Kelvin    Cal/Mol-Kelvin
 Total                    6.065              7.168             55.534
 Electronic               0.000              0.000              1.377
 Translational            0.889              2.981             35.068
 Rotational               0.592              1.987             13.380
 Vibrational              4.584              2.200              5.709
 Vibration     1          0.594              1.983              5.672

 Normal termination of Gaussian 16 at Fri Aug 22 19:28:03 2025.
