 Gaussian 16, Revision C.01,
 Gaussian 16:  ES64L-G16RevC.01  3-Jul-2019

 -----------------------------------------
 # sp b3lyp/6-311g** Force nosymm scf=(qc)
 -----------------------------------------

 -------------------
 Title Card Required
 -------------------
 Symbolic Z-matrix:
 Charge =  0 Multiplicity = 2

                          Input orientation:
 ---------------------------------------------------------------------
 Center     Atomic      Atomic             Coordinates (Angstroms)
 Number     Number       Type             X           Y           Z
 ---------------------------------------------------------------------
      1          1           0        0.000000    0.000000    0.000000
      2          1           0       -0.950000    0.000000    0.000000
      3          9           0        3.400000    0.000000    0.000000
 ---------------------------------------------------------------------

 SCF Done:  E(UB3LYP) =  -100.915090608     a.u. after   32 cycles

 Alpha  occ. eigenvalues --  -24.76411  -1.22266  -0.55465  -0.46667  -0.46618
 Alpha  occ. eigenvalues --   -0.39561
 Alpha virt. eigenvalues --    0.01572   0.21121   0.40042   0.85950   0.90825
 Alpha virt. eigenvalues --    0.92793   1.02048   1.08754   1.08757   1.41714
 Alpha virt. eigenvalues --    1.69074   1.69078   2.21720   2.37100   2.64778

  Beta  occ. eigenvalues --  -24.73253  -1.13186  -0.43507  -0.43451  -0.39553
  Beta virt. eigenvalues --   -0.26102   0.01584   0.21133   0.40095   0.92325
  Beta virt. eigenvalues --    0.94335   0.95413   1.06084   1.08753   1.08757
  Beta virt. eigenvalues --    1.41721   1.69074   1.69078   2.21733   2.37104

 Mulliken charges and spin densities:
               1          2
     1  H   -0.001152  -0.000405
     2  H   -0.003186  -0.000107
     3  F    0.004338   1.000512
 Sum of Mulliken charges =   0.00000   1.00000

 Dipole moment (field-independent basis, Debye):
    X=              0.0559    Y=              0.0000    Z=             -0.0000  Tot=              0.0559
 Quadrupole moment (field-independent basis, Debye-Ang):
   XX=             -6.2183   YY=             -6.7838   ZZ=             -6.7840
   XY=              0.0000   XZ=             -0.0000   YZ=             -0.4321

  Exact polarizability:      11.400       0.000       2.275       0.000      -0.232       2.275
 Approx polarizability:      14.500      -0.000       2.392       0.000      -0.291       2.392

                      1                      2                      3
                      A                      A                      A
 Frequencies --     12.0086              1518.1479              1518.2106
 Red. masses --      1.1085                 1.0093                 1.0093
 Frc consts  --      0.0001                 1.3706                 1.3707
 IR Inten    --      0.1804                 0.0000                 0.0000

                      4
                      A
 Frequencies --   2200.4379
 Red. masses --      1.0078
 Frc consts  --      2.8751
 IR Inten    --      0.1771

 - Thermochemistry -
 -------------------
 Temperature   298.150 Kelvin.  Pressure   1.00000 Atm.
 Atom     1 has atomic number  1 and mass   1.00783

 Molecular mass:    21.01405 amu.
 Principal axes and moments of inertia in atomic units:
                           1         2         3
     Eigenvalues --     0.00000  99.33957  99.33957
           X            1.00000  -0.00000   0.00000
           Y            0.00000   1.00000   0.00000
           Z            0.00000   0.00000   1.00000
 This molecule is a prolate symmetric top.
 Rotational symmetry number  1.
 Rotational temperature (Kelvin)      0.87190
 Rotational constant (GHZ):          18.167394
 Zero-point vibrational energy      31394.8 (Joules/Mol)
                                    7.50354 (Kcal/Mol)
 Warning -- explicit consideration of   1 degrees of freedom as
           vibrations may cause significant error
 Vibrational temperatures:     17.28  2184.28  2184.37  3165.94
          (Kelvin)

 Zero-point correction=                           0.011958 (Hartree/Particle)
 Thermal correction to Energy=                    0.015245
 Thermal correction to Enthalpy=                  0.016189
 Thermal correction to Gibbs Free Energy=        -0.011225
 Sum of electronic and zero-point Energies=           -100.903133
 Sum of electronic and thermal Energies=              -100.899846
 Sum of electronic and thermal Enthalpies=            -100.898902
 Sum of electronic and thermal Free Energies=         -100.926316

                     E (Thermal)             CV                S
                      KCal/Mol        Cal/Mol-Kelvin    Cal/Mol-Kelvin
 Total                    9.566              7.101             57.697
 Electronic               0.000              0.000              1.377
 Translational            0.889              2.981             35.068
 Rotational               0.592              1.987             13.582
 Vibrational              8.085              2.133              7.670
 Vibration     1          0.593              1.987              7.647

 Normal termination of Gaussian 16 at Fri Aug 22 21:08:47 2025.
