 Gaussian 16, Revision C.01,
 Gaussian 16:  ES64L-G16RevC.01  3-Jul-2019

 -----------------------------------------
 # sp b3lyp/6-311g** Force nosymm scf=(qc)
 -----------------------------------------

 -------------------
 Title Card Required
 -------------------
 Symbolic Z-matrix:
 Charge =  0 Multiplicity = 2

                          Input orientation:
 ---------------------------------------------------------------------
 Center     Atomic      Atomic             Coordinates (Angstroms)
 Number     Number       Type             X           Y           Z
 ---------------------------------------------------------------------
      1          1           0        0.000000    0.000000    0.000000
      2          1           0       -2.050000    0.000000    0.000000
      3          9           0        1.900000    0.000000    0.000000
 ---------------------------------------------------------------------

 SCF Done:  E(UB3LYP) =  -100.805767033     a.u. after   12 cycles

 Alpha  occ. eigenvalues --  -24.67225  -1.13543  -0.46297  -0.38884  -0.38884
 Alpha  occ. eigenvalues --   -0.36568
 Alpha virt. eigenvalues --   -0.13647   0.23800   0.30216   0.89780   0.95064
 Alpha virt. eigenvalues --    0.95064   1.05181   1.21286   1.21286   1.28455
 Alpha virt. eigenvalues --    1.33921   1.33921   1.64301   2.10982   2.29785

  Beta  occ. eigenvalues --  -24.65017  -1.07409  -0.38037  -0.36717  -0.36717
  Beta virt. eigenvalues --   -0.20759  -0.11212   0.25716   0.32051   0.92018
  Beta virt. eigenvalues --    0.95506   0.95506   1.08478   1.23707   1.23707
  Beta virt. eigenvalues --    1.36728   1.36728   1.40721   1.60748   2.12220

 Mulliken charges and spin densities:
               1          2
     1  H    0.174406  -0.597998
     2  H    0.043575   0.904601
     3  F   -0.217982   0.693398
 Sum of Mulliken charges =   0.00000   1.00000

 Dipole moment (field-independent basis, Debye):
    X=             -2.4699    Y=              0.0000    Z=              0.0000  Tot=              2.4699
 Quadrupole moment (field-independent basis, Debye-Ang):
   XX=             -8.8710   YY=             -7.5135   ZZ=             -7.5135
   XY=             -0.0000   XZ=             -0.0000   YZ=              0.0000

  Exact polarizability:      45.565      -0.000       2.083      -0.000       0.000       2.083
 Approx polarizability:      55.613      -0.000       1.987      -0.000      -0.000       1.987

 ******    2 imaginary frequencies (negative Signs) ******

                      1                      2                      3
                      A                      A                      A
 Frequencies --  -1612.2469              -575.3658               668.0944
 Red. masses --      1.0269                 1.0863                 1.0189
 Frc consts  --      1.5727                 0.2119                 0.2680
 IR Inten    --    110.3768                26.2646                20.2434

                      4
                      A
 Frequencies --    668.0944
 Red. masses --      1.0189
 Frc consts  --      0.2680
 IR Inten    --     20.2434

 - Thermochemistry -
 -------------------
 Temperature   298.150 Kelvin.  Pressure   1.00000 Atm.
 Atom     1 has atomic number  1 and mass   1.00783

 Molecular mass:    21.01405 amu.
 Principal axes and moments of inertia in atomic units:
                           1         2         3
     Eigenvalues --     0.00000  63.23891  63.23891
           X            1.00000  -0.00000   0.00000
           Y            0.00000   1.00000   0.00000
           Z            0.00000   0.00000   1.00000
 This molecule is a prolate symmetric top.
 Rotational symmetry number  1.
 Rotational temperature (Kelvin)      1.36963
 Rotational constant (GHZ):          28.538461
    2 imaginary frequencies ignored.
 Zero-point vibrational energy       7992.2 (Joules/Mol)
                                    1.91018 (Kcal/Mol)
 Vibrational temperatures:    961.24   961.24
          (Kelvin)

 Zero-point correction=                           0.003044 (Hartree/Particle)
 Thermal correction to Energy=                    0.005657
 Thermal correction to Enthalpy=                  0.006601
 Thermal correction to Gibbs Free Energy=        -0.017071
 Sum of electronic and zero-point Energies=           -100.802723
 Sum of electronic and thermal Energies=              -100.800110
 Sum of electronic and thermal Enthalpies=            -100.799166
 Sum of electronic and thermal Free Energies=         -100.822838

                     E (Thermal)             CV                S
                      KCal/Mol        Cal/Mol-Kelvin    Cal/Mol-Kelvin
 Total                    3.550              6.751             49.822
 Electronic               0.000              0.000              1.377
 Translational            0.889              2.981             35.068
 Rotational               0.592              1.987             12.684
 Vibrational              2.069              1.783              0.692

 Normal termination of Gaussian 16 at Fri Aug 22 16:50:04 2025.
