 Gaussian 16, Revision C.01,
 Gaussian 16:  ES64L-G16RevC.01  3-Jul-2019

 -----------------------------------------
 # sp b3lyp/6-311g** Force nosymm scf=(qc)
 -----------------------------------------

 -------------------
 Title Card Required
 -------------------
 Symbolic Z-matrix:
 Charge =  0 Multiplicity = 2

                          Input orientation:
 ---------------------------------------------------------------------
 Center     Atomic      Atomic             Coordinates (Angstroms)
 Number     Number       Type             X           Y           Z
 ---------------------------------------------------------------------
      1          1           0        0.000000    0.000000    0.000000
      2          1           0       -3.050000    0.000000    0.000000
      3          9           0        0.800000    0.000000    0.000000
 ---------------------------------------------------------------------

 SCF Done:  E(UB3LYP) =  -100.950392544     a.u. after    6 cycles

 Alpha  occ. eigenvalues --  -24.63660  -1.23023  -0.56179  -0.40633  -0.40633
 Alpha  occ. eigenvalues --   -0.33916
 Alpha virt. eigenvalues --    0.05362   0.25289   0.45740   0.94221   0.94221
 Alpha virt. eigenvalues --    0.97013   1.22608   1.23610   1.23610   1.32703
 Alpha virt. eigenvalues --    1.39837   1.39837   2.02899   2.14767   2.53090

  Beta  occ. eigenvalues --  -24.63657  -1.23015  -0.56171  -0.40631  -0.40631
  Beta virt. eigenvalues --   -0.06397   0.06373   0.39137   0.45876   0.94221
  Beta virt. eigenvalues --    0.94221   0.96999   1.30395   1.39837   1.39837
  Beta virt. eigenvalues --    1.50450   1.50450   1.50904   2.02985   2.44156

 Mulliken charges and spin densities:
               1          2
     1  H    0.273576   0.001326
     2  H    0.001905   0.997426
     3  F   -0.275482   0.001248
 Sum of Mulliken charges =   0.00000   1.00000

 Dipole moment (field-independent basis, Debye):
    X=             -1.7608    Y=             -0.0000    Z=             -0.0000  Tot=              1.7608
 Quadrupole moment (field-independent basis, Debye-Ang):
   XX=             -7.5284   YY=             -6.7683   ZZ=             -6.7683
   XY=              0.0000   XZ=             -0.0000   YZ=              0.0000

  Exact polarizability:       5.257      -0.000       2.452       0.000      -0.000       2.452
 Approx polarizability:       5.742       0.000       2.434       0.000      -0.000       2.434

 ******    3 imaginary frequencies (negative Signs) ******

                      1                      2                      3
                      A                      A                      A
 Frequencies --  -1972.5852             -1972.5852               -46.6508
 Red. masses --      1.0382                 1.0382                 1.0532
 Frc consts  --      2.3802                 2.3802                 0.0014
 IR Inten    --    191.8077               191.8077                 0.1139

                      4
                      A
 Frequencies --   6349.2382
 Red. masses --      1.0583
 Frc consts  --     25.1369
 IR Inten    --    111.7181

 - Thermochemistry -
 -------------------
 Temperature   298.150 Kelvin.  Pressure   1.00000 Atm.
 Atom     1 has atomic number  1 and mass   1.00783

 Molecular mass:    21.01405 amu.
 Principal axes and moments of inertia in atomic units:
                           1         2         3
     Eigenvalues --     0.00000  51.91748  51.91748
           X            1.00000  -0.00000   0.00000
           Y            0.00000   1.00000   0.00000
           Z            0.00000   0.00000   1.00000
 This molecule is a prolate symmetric top.
 Rotational symmetry number  1.
 Rotational temperature (Kelvin)      1.66830
 Rotational constant (GHZ):          34.761728
    3 imaginary frequencies ignored.
 Zero-point vibrational energy      37976.9 (Joules/Mol)
                                    9.07669 (Kcal/Mol)
 Vibrational temperatures:   9135.14
          (Kelvin)

 Zero-point correction=                           0.014465 (Hartree/Particle)
 Thermal correction to Energy=                    0.016825
 Thermal correction to Enthalpy=                  0.017769
 Thermal correction to Gibbs Free Energy=        -0.005388
 Sum of electronic and zero-point Energies=           -100.935928
 Sum of electronic and thermal Energies=              -100.933567
 Sum of electronic and thermal Enthalpies=            -100.932623
 Sum of electronic and thermal Free Energies=         -100.955780

                     E (Thermal)             CV                S
                      KCal/Mol        Cal/Mol-Kelvin    Cal/Mol-Kelvin
 Total                   10.558              4.968             48.738
 Electronic               0.000              0.000              1.377
 Translational            0.889              2.981             35.068
 Rotational               0.592              1.987             12.292
 Vibrational              9.077              0.000              0.000

 Normal termination of Gaussian 16 at Fri Aug 22 15:51:47 2025.
