 Gaussian 16, Revision C.01,
 Gaussian 16:  ES64L-G16RevC.01  3-Jul-2019

 -----------------------------------------
 # sp b3lyp/6-311g** Force nosymm scf=(qc)
 -----------------------------------------

 -------------------
 Title Card Required
 -------------------
 Symbolic Z-matrix:
 Charge =  0 Multiplicity = 2

                          Input orientation:
 ---------------------------------------------------------------------
 Center     Atomic      Atomic             Coordinates (Angstroms)
 Number     Number       Type             X           Y           Z
 ---------------------------------------------------------------------
      1          1           0        0.000000    0.000000    0.000000
      2          1           0       -3.850000    0.000000    0.000000
      3          9           0        2.250000    0.000000    0.000000
 ---------------------------------------------------------------------

 SCF Done:  E(UB3LYP) =  -100.774199590     a.u. after   16 cycles

 Alpha  occ. eigenvalues --  -24.67423  -1.08847  -0.38684  -0.38684  -0.36514
 Alpha  occ. eigenvalues --   -0.32933
 Alpha virt. eigenvalues --   -0.22199   0.20784   0.27471   0.91968   0.95540
 Alpha virt. eigenvalues --    0.95540   1.08182   1.21533   1.21533   1.24539
 Alpha virt. eigenvalues --    1.24542   1.24542   1.39530   2.10116   2.15901

  Beta  occ. eigenvalues --  -24.70091  -1.16389  -0.49158  -0.41332  -0.41332
  Beta virt. eigenvalues --   -0.12127  -0.04480   0.31285   0.40120   0.88506
  Beta virt. eigenvalues --    0.94385   0.94385   1.06038   1.38101   1.38101
  Beta virt. eigenvalues --    1.48077   1.48077   1.48184   1.50133   2.32708

 Mulliken charges and spin densities:
               1          2
     1  H    0.134154   0.841211
     2  H    0.000425   0.999583
     3  F   -0.134579  -0.840794
 Sum of Mulliken charges =   0.00000   1.00000

 Dipole moment (field-independent basis, Debye):
    X=             -1.5291    Y=              0.0000    Z=             -0.0000  Tot=              1.5291
 Quadrupole moment (field-independent basis, Debye-Ang):
   XX=             -9.8059   YY=             -7.5268   ZZ=             -7.5268
   XY=              0.0000   XZ=             -0.0000   YZ=             -0.0000

  Exact polarizability:      27.928      -0.000       2.038      -0.000       0.000       2.038
 Approx polarizability:      38.649       0.000       1.927      -0.000      -0.000       1.927

 ******    1 imaginary frequencies (negative Signs) ******

                      1                      2                      3
                      A                      A                      A
 Frequencies --   -803.5526                50.4032               335.3346
 Red. masses --      1.0589                 1.0527                 1.0256
 Frc consts  --      0.4028                 0.0016                 0.0679
 IR Inten    --     99.3275                 0.0297                17.4181

                      4
                      A
 Frequencies --    335.3346
 Red. masses --      1.0256
 Frc consts  --      0.0679
 IR Inten    --     17.4181

 - Thermochemistry -
 -------------------
 Temperature   298.150 Kelvin.  Pressure   1.00000 Atm.
 Atom     1 has atomic number  1 and mass   1.00783

 Molecular mass:    21.01405 amu.
 Principal axes and moments of inertia in atomic units:
                           1         2         3
     Eigenvalues --     0.00000 140.10450 140.10450
           X            1.00000  -0.00000   0.00000
           Y            0.00000   1.00000   0.00000
           Z            0.00000   0.00000   1.00000
 This molecule is a prolate symmetric top.
 Rotational symmetry number  1.
 Rotational temperature (Kelvin)      0.61821
 Rotational constant (GHZ):          12.881393
    1 imaginary frequencies ignored.
 Zero-point vibrational energy       4313.0 (Joules/Mol)
                                    1.03082 (Kcal/Mol)
 Warning -- explicit consideration of   3 degrees of freedom as
           vibrations may cause significant error
 Vibrational temperatures:     72.52   482.47   482.47
          (Kelvin)

 Zero-point correction=                           0.001643 (Hartree/Particle)
 Thermal correction to Energy=                    0.005593
 Thermal correction to Enthalpy=                  0.006537
 Thermal correction to Gibbs Free Energy=        -0.021011
 Sum of electronic and zero-point Energies=           -100.772557
 Sum of electronic and thermal Energies=              -100.768607
 Sum of electronic and thermal Enthalpies=            -100.767663
 Sum of electronic and thermal Free Energies=         -100.795211

                     E (Thermal)             CV                S
                      KCal/Mol        Cal/Mol-Kelvin    Cal/Mol-Kelvin
 Total                    3.510             10.155             57.981
 Electronic               0.000              0.000              1.377
 Translational            0.889              2.981             35.068
 Rotational               0.592              1.987             14.265
 Vibrational              2.028              5.187              7.270
 Vibration     1          0.595              1.977              4.802
 Vibration     2          0.716              1.605              1.234
 Vibration     3          0.716              1.605              1.234

 Normal termination of Gaussian 16 at Fri Aug 22 17:18:08 2025.
