 Gaussian 16, Revision C.01,
 Gaussian 16:  ES64L-G16RevC.01  3-Jul-2019

 -----------------------------------------
 # sp b3lyp/6-311g** Force nosymm scf=(qc)
 -----------------------------------------

 -------------------
 Title Card Required
 -------------------
 Symbolic Z-matrix:
 Charge =  0 Multiplicity = 2

                          Input orientation:
 ---------------------------------------------------------------------
 Center     Atomic      Atomic             Coordinates (Angstroms)
 Number     Number       Type             X           Y           Z
 ---------------------------------------------------------------------
      1          1           0        0.000000    0.000000    0.000000
      2          1           0       -2.850000    0.000000    0.000000
      3          9           0        3.200000    0.000000    0.000000
 ---------------------------------------------------------------------

 SCF Done:  E(UB3LYP) =  -100.761383587     a.u. after   24 cycles

 Alpha  occ. eigenvalues --  -24.74753  -1.20763  -0.53873  -0.45234  -0.45234
 Alpha  occ. eigenvalues --   -0.32652
 Alpha virt. eigenvalues --   -0.08951   0.25049   0.34917   0.88712   0.91871
 Alpha virt. eigenvalues --    0.91871   1.02880   1.24906   1.24906   1.25997
 Alpha virt. eigenvalues --    1.42494   1.42494   1.42848   2.15751   2.38778

  Beta  occ. eigenvalues --  -24.71681  -1.11947  -0.42157  -0.42157  -0.33347
  Beta virt. eigenvalues --   -0.25154  -0.07990   0.24917   0.36206   0.93346
  Beta virt. eigenvalues --    0.93346   0.97652   1.06797   1.24085   1.24085
  Beta virt. eigenvalues --    1.25098   1.44035   1.44035   1.44255   2.16369

 Mulliken charges and spin densities:
               1          2
     1  H    0.022049  -0.962665
     2  H    0.001701   0.988904
     3  F   -0.023750   0.973761
 Sum of Mulliken charges =  -0.00000   1.00000

 Dipole moment (field-independent basis, Debye):
    X=             -0.4135    Y=             -0.0000    Z=              0.0000  Tot=              0.4135
 Quadrupole moment (field-independent basis, Debye-Ang):
   XX=             -7.7596   YY=             -7.6357   ZZ=             -7.6357
   XY=             -0.0000   XZ=              0.0000   YZ=              0.0000

  Exact polarizability:      34.583      -0.000       2.023       0.000       0.000       2.023
 Approx polarizability:      30.040      -0.000       1.927       0.000      -0.000       1.927

 ******    2 imaginary frequencies (negative Signs) ******

                      1                      2                      3
                      A                      A                      A
 Frequencies --   -455.5333              -177.9506               165.3930
 Red. masses --      1.0131                 1.1022                 1.0166
 Frc consts  --      0.1239                 0.0206                 0.0164
 IR Inten    --     18.5827                 8.6662                 0.4116

                      4
                      A
 Frequencies --    165.3930
 Red. masses --      1.0166
 Frc consts  --      0.0164
 IR Inten    --      0.4116

 - Thermochemistry -
 -------------------
 Temperature   298.150 Kelvin.  Pressure   1.00000 Atm.
 Atom     1 has atomic number  1 and mass   1.00783

 Molecular mass:    21.01405 amu.
 Principal axes and moments of inertia in atomic units:
                           1         2         3
     Eigenvalues --     0.00000 153.81788 153.81788
           X            1.00000  -0.00000   0.00000
           Y            0.00000   1.00000   0.00000
           Z            0.00000   0.00000   1.00000
 This molecule is a prolate symmetric top.
 Rotational symmetry number  1.
 Rotational temperature (Kelvin)      0.56309
 Rotational constant (GHZ):          11.732974
    2 imaginary frequencies ignored.
 Zero-point vibrational energy       1978.5 (Joules/Mol)
                                    0.47288 (Kcal/Mol)
 Warning -- explicit consideration of   2 degrees of freedom as
           vibrations may cause significant error
 Vibrational temperatures:    237.96   237.96
          (Kelvin)

 Zero-point correction=                           0.000754 (Hartree/Particle)
 Thermal correction to Energy=                    0.004348
 Thermal correction to Enthalpy=                  0.005292
 Thermal correction to Gibbs Free Energy=        -0.021254
 Sum of electronic and zero-point Energies=           -100.760630
 Sum of electronic and thermal Energies=              -100.757036
 Sum of electronic and thermal Enthalpies=            -100.756091
 Sum of electronic and thermal Free Energies=         -100.782637

                     E (Thermal)             CV                S
                      KCal/Mol        Cal/Mol-Kelvin    Cal/Mol-Kelvin
 Total                    2.728              8.738             55.871
 Electronic               0.000              0.000              1.377
 Translational            0.889              2.981             35.068
 Rotational               0.592              1.987             14.451
 Vibrational              1.247              3.770              4.974
 Vibration     1          0.624              1.885              2.487
 Vibration     2          0.624              1.885              2.487

 Normal termination of Gaussian 16 at Fri Aug 22 20:24:11 2025.
