 Gaussian 16, Revision C.01,
 Gaussian 16:  ES64L-G16RevC.01  3-Jul-2019

 -----------------------------------------
 # sp b3lyp/6-311g** Force nosymm scf=(qc)
 -----------------------------------------

 -------------------
 Title Card Required
 -------------------
 Symbolic Z-matrix:
 Charge =  0 Multiplicity = 2

                          Input orientation:
 ---------------------------------------------------------------------
 Center     Atomic      Atomic             Coordinates (Angstroms)
 Number     Number       Type             X           Y           Z
 ---------------------------------------------------------------------
      1          1           0        0.000000    0.000000    0.000000
      2          1           0       -3.900000    0.000000    0.000000
      3          9           0        1.550000    0.000000    0.000000
 ---------------------------------------------------------------------

 SCF Done:  E(UB3LYP) =  -100.843906815     a.u. after    8 cycles

 Alpha  occ. eigenvalues --  -24.64385  -1.09544  -0.42704  -0.36357  -0.36357
 Alpha  occ. eigenvalues --   -0.33663
 Alpha virt. eigenvalues --   -0.15637   0.20355   0.27017   0.93785   0.93785
 Alpha virt. eigenvalues --    1.02616   1.07585   1.23808   1.23844   1.23844
 Alpha virt. eigenvalues --    1.30467   1.30467   1.73164   2.12645   2.18374

  Beta  occ. eigenvalues --  -24.64301  -1.09320  -0.42524  -0.36277  -0.36277
  Beta virt. eigenvalues --   -0.15890  -0.06208   0.22768   0.38234   0.93746
  Beta virt. eigenvalues --    0.93746   1.02761   1.07552   1.30011   1.30011
  Beta virt. eigenvalues --    1.46398   1.46717   1.46717   1.72965   2.16502

 Mulliken charges and spin densities:
               1          2
     1  H    0.344650  -0.025881
     2  H    0.000737   0.999223
     3  F   -0.345387   0.026657
 Sum of Mulliken charges =  -0.00000   1.00000

 Dipole moment (field-independent basis, Debye):
    X=             -2.6387    Y=              0.0000    Z=             -0.0000  Tot=              2.6387
 Quadrupole moment (field-independent basis, Debye-Ang):
   XX=            -10.1429   YY=             -7.3473   ZZ=             -7.3473
   XY=              0.0000   XZ=             -0.0000   YZ=              0.0000

  Exact polarizability:      15.911      -0.000       2.164       0.000       0.000       2.164
 Approx polarizability:      32.023      -0.000       2.085       0.000      -0.000       2.085

 ******    2 imaginary frequencies (negative Signs) ******

                      1                      2                      3
                      A                      A                      A
 Frequencies --  -1255.9334               -50.6095               983.1090
 Red. masses --      1.0578                 1.0537                 1.0318
 Frc consts  --      0.9831                 0.0016                 0.5875
 IR Inten    --     24.7323                 0.0395               115.4597

                      4
                      A
 Frequencies --    983.1090
 Red. masses --      1.0318
 Frc consts  --      0.5875
 IR Inten    --    115.4597

 - Thermochemistry -
 -------------------
 Temperature   298.150 Kelvin.  Pressure   1.00000 Atm.
 Atom     1 has atomic number  1 and mass   1.00783

 Molecular mass:    21.01405 amu.
 Principal axes and moments of inertia in atomic units:
                           1         2         3
     Eigenvalues --     0.00000 107.08843 107.08843
           X            1.00000  -0.00000   0.00000
           Y            0.00000   1.00000   0.00000
           Z            0.00000   0.00000   1.00000
 This molecule is a prolate symmetric top.
 Rotational symmetry number  1.
 Rotational temperature (Kelvin)      0.80881
 Rotational constant (GHZ):          16.852812
    2 imaginary frequencies ignored.
 Zero-point vibrational energy      11760.6 (Joules/Mol)
                                    2.81085 (Kcal/Mol)
 Vibrational temperatures:   1414.47  1414.47
          (Kelvin)

 Zero-point correction=                           0.004479 (Hartree/Particle)
 Thermal correction to Energy=                    0.006918
 Thermal correction to Enthalpy=                  0.007863
 Thermal correction to Gibbs Free Energy=        -0.016073
 Sum of electronic and zero-point Energies=           -100.839427
 Sum of electronic and thermal Energies=              -100.836988
 Sum of electronic and thermal Enthalpies=            -100.836044
 Sum of electronic and thermal Free Energies=         -100.859980

                     E (Thermal)             CV                S
                      KCal/Mol        Cal/Mol-Kelvin    Cal/Mol-Kelvin
 Total                    4.341              5.760             50.377
 Electronic               0.000              0.000              1.377
 Translational            0.889              2.981             35.068
 Rotational               0.592              1.987             13.731
 Vibrational              2.860              0.792              0.200

 Normal termination of Gaussian 16 at Fri Aug 22 16:29:45 2025.
