 Gaussian 16, Revision C.01,
 Gaussian 16:  ES64L-G16RevC.01  3-Jul-2019

 -----------------------------------------
 # sp b3lyp/6-311g** Force nosymm scf=(qc)
 -----------------------------------------

 -------------------
 Title Card Required
 -------------------
 Symbolic Z-matrix:
 Charge =  0 Multiplicity = 2

                          Input orientation:
 ---------------------------------------------------------------------
 Center     Atomic      Atomic             Coordinates (Angstroms)
 Number     Number       Type             X           Y           Z
 ---------------------------------------------------------------------
      1          1           0        0.000000    0.000000    0.000000
      2          1           0       -3.650000    0.000000    0.000000
      3          9           0        1.600000    0.000000    0.000000
 ---------------------------------------------------------------------

 SCF Done:  E(UB3LYP) =  -100.833867767     a.u. after   10 cycles

 Alpha  occ. eigenvalues --  -24.64069  -1.08358  -0.41468  -0.36015  -0.36015
 Alpha  occ. eigenvalues --   -0.33820
 Alpha virt. eigenvalues --   -0.17063   0.19623   0.27016   0.93869   0.93869
 Alpha virt. eigenvalues --    1.01107   1.07178   1.23679   1.23684   1.23684
 Alpha virt. eigenvalues --    1.27701   1.27701   1.71999   2.12108   2.15673

  Beta  occ. eigenvalues --  -24.64840  -1.10426  -0.43238  -0.36755  -0.36755
  Beta virt. eigenvalues --   -0.15634  -0.06245   0.24073   0.38588   0.94168
  Beta virt. eigenvalues --    0.94168   1.00455   1.06947   1.31881   1.31881
  Beta virt. eigenvalues --    1.46042   1.46499   1.46499   1.74059   2.20071

 Mulliken charges and spin densities:
               1          2
     1  H    0.330520   0.244878
     2  H    0.001364   0.998633
     3  F   -0.331884  -0.243511
 Sum of Mulliken charges =  -0.00000   1.00000

 Dipole moment (field-independent basis, Debye):
    X=             -2.6199    Y=             -0.0000    Z=             -0.0000  Tot=              2.6199
 Quadrupole moment (field-independent basis, Debye-Ang):
   XX=            -10.1972   YY=             -7.3678   ZZ=             -7.3678
   XY=             -0.0000   XZ=             -0.0000   YZ=              0.0000

  Exact polarizability:      19.336      -0.000       2.147      -0.000      -0.000       2.147
 Approx polarizability:      34.347       0.000       2.061      -0.000      -0.000       2.061

 ******    2 imaginary frequencies (negative Signs) ******

                      1                      2                      3
                      A                      A                      A
 Frequencies --  -1918.9638               -57.1889               914.6348
 Red. masses --      1.0586                 1.0530                 1.0302
 Frc consts  --      2.2967                 0.0020                 0.5078
 IR Inten    --     69.9082                 0.2450               104.1413

                      4
                      A
 Frequencies --    914.6348
 Red. masses --      1.0302
 Frc consts  --      0.5078
 IR Inten    --    104.1413

 - Thermochemistry -
 -------------------
 Temperature   298.150 Kelvin.  Pressure   1.00000 Atm.
 Atom     1 has atomic number  1 and mass   1.00783

 Molecular mass:    21.01405 amu.
 Principal axes and moments of inertia in atomic units:
                           1         2         3
     Eigenvalues --     0.00000 100.31199 100.31199
           X            1.00000  -0.00000   0.00000
           Y            0.00000   1.00000   0.00000
           Z            0.00000   0.00000   1.00000
 This molecule is a prolate symmetric top.
 Rotational symmetry number  1.
 Rotational temperature (Kelvin)      0.86345
 Rotational constant (GHZ):          17.991282
    2 imaginary frequencies ignored.
 Zero-point vibrational energy      10941.5 (Joules/Mol)
                                    2.61507 (Kcal/Mol)
 Vibrational temperatures:   1315.96  1315.96
          (Kelvin)

 Zero-point correction=                           0.004167 (Hartree/Particle)
 Thermal correction to Energy=                    0.006630
 Thermal correction to Enthalpy=                  0.007574
 Thermal correction to Gibbs Free Energy=        -0.016330
 Sum of electronic and zero-point Energies=           -100.829700
 Sum of electronic and thermal Energies=              -100.827238
 Sum of electronic and thermal Enthalpies=            -100.826294
 Sum of electronic and thermal Free Energies=         -100.850198

                     E (Thermal)             CV                S
                      KCal/Mol        Cal/Mol-Kelvin    Cal/Mol-Kelvin
 Total                    4.160              5.929             50.310
 Electronic               0.000              0.000              1.377
 Translational            0.889              2.981             35.068
 Rotational               0.592              1.987             13.601
 Vibrational              2.679              0.961              0.263

 Normal termination of Gaussian 16 at Fri Aug 22 16:32:41 2025.
