 Gaussian 16, Revision C.01,
 Gaussian 16:  ES64L-G16RevC.01  3-Jul-2019

 -----------------------------------------
 # sp b3lyp/6-311g** Force nosymm scf=(qc)
 -----------------------------------------

 -------------------
 Title Card Required
 -------------------
 Symbolic Z-matrix:
 Charge =  0 Multiplicity = 2

                          Input orientation:
 ---------------------------------------------------------------------
 Center     Atomic      Atomic             Coordinates (Angstroms)
 Number     Number       Type             X           Y           Z
 ---------------------------------------------------------------------
      1          1           0        0.000000    0.000000    0.000000
      2          1           0       -1.750000    0.000000    0.000000
      3          9           0        4.000000    0.000000    0.000000
 ---------------------------------------------------------------------

 SCF Done:  E(UB3LYP) =  -100.790071313     a.u. after   62 cycles

 Alpha  occ. eigenvalues --  -24.76161  -1.22068  -0.55273  -0.46442  -0.46430
 Alpha  occ. eigenvalues --   -0.32995
 Alpha virt. eigenvalues --   -0.10645   0.25855   0.31293   0.86086   0.90963
 Alpha virt. eigenvalues --    0.91244   1.00875   1.08722   1.24342   1.24343
 Alpha virt. eigenvalues --    1.37964   1.37967   1.64438   2.15871   2.40277

  Beta  occ. eigenvalues --  -24.73007  -1.12997  -0.43282  -0.43267  -0.32985
  Beta virt. eigenvalues --   -0.25926  -0.10676   0.25853   0.31295   0.92465
  Beta virt. eigenvalues --    0.92721   0.95554   1.05021   1.08716   1.24342
  Beta virt. eigenvalues --    1.24344   1.37952   1.37953   1.64443   2.15960

 Mulliken charges and spin densities:
               1          2
     1  H    0.000813  -0.671431
     2  H   -0.001394   0.671432
     3  F    0.000581   0.999999
 Sum of Mulliken charges =   0.00000   1.00000

 Dipole moment (field-independent basis, Debye):
    X=              0.0185    Y=              0.0000    Z=             -0.0000  Tot=              0.0185
 Quadrupole moment (field-independent basis, Debye-Ang):
   XX=             -6.6918   YY=             -7.0758   ZZ=             -7.5874
   XY=             -0.0000   XZ=              0.0000   YZ=             -0.3486

  Exact polarizability:      23.649      -0.000       2.386       0.000      -0.187       2.110
 Approx polarizability:      35.650      -0.000       2.433       0.000      -0.235       2.089

 ******    2 imaginary frequencies (negative Signs) ******

                      1                      2                      3
                      A                      A                      A
 Frequencies --  -1819.1306               -53.3363               840.2723
 Red. masses --      1.0078                 1.1085                 1.0110
 Frc consts  --      1.9650                 0.0019                 0.4206
 IR Inten    --      0.0035                 0.0237                 0.0012

                      4
                      A
 Frequencies --    840.6780
 Red. masses --      1.0110
 Frc consts  --      0.4210
 IR Inten    --      0.0007

 - Thermochemistry -
 -------------------
 Temperature   298.150 Kelvin.  Pressure   1.00000 Atm.
 Atom     1 has atomic number  1 and mass   1.00783

 Molecular mass:    21.01405 amu.
 Principal axes and moments of inertia in atomic units:
                           1         2         3
     Eigenvalues --     0.00000 160.16791 160.16791
           X            1.00000  -0.00000   0.00000
           Y            0.00000   1.00000   0.00000
           Z            0.00000   0.00000   1.00000
 This molecule is a prolate symmetric top.
 Rotational symmetry number  1.
 Rotational temperature (Kelvin)      0.54077
 Rotational constant (GHZ):          11.267808
    2 imaginary frequencies ignored.
 Zero-point vibrational energy      10054.3 (Joules/Mol)
                                    2.40304 (Kcal/Mol)
 Vibrational temperatures:   1208.96  1209.55
          (Kelvin)

 Zero-point correction=                           0.003829 (Hartree/Particle)
 Thermal correction to Energy=                    0.006325
 Thermal correction to Enthalpy=                  0.007269
 Thermal correction to Gibbs Free Energy=        -0.017119
 Sum of electronic and zero-point Energies=           -100.786242
 Sum of electronic and thermal Energies=              -100.783746
 Sum of electronic and thermal Enthalpies=            -100.782802
 Sum of electronic and thermal Free Energies=         -100.807191

                     E (Thermal)             CV                S
                      KCal/Mol        Cal/Mol-Kelvin    Cal/Mol-Kelvin
 Total                    3.969              6.141             51.330
 Electronic               0.000              0.000              1.377
 Translational            0.889              2.981             35.068
 Rotational               0.592              1.987             14.531
 Vibrational              2.488              1.173              0.354

 Normal termination of Gaussian 16 at Sat Aug 23 01:50:46 2025.
