 Gaussian 16, Revision C.01,
 Gaussian 16:  ES64L-G16RevC.01  3-Jul-2019

 -----------------------------------------
 # sp b3lyp/6-311g** Force nosymm scf=(qc)
 -----------------------------------------

 -------------------
 Title Card Required
 -------------------
 Symbolic Z-matrix:
 Charge =  0 Multiplicity = 2

                          Input orientation:
 ---------------------------------------------------------------------
 Center     Atomic      Atomic             Coordinates (Angstroms)
 Number     Number       Type             X           Y           Z
 ---------------------------------------------------------------------
      1          1           0        0.000000    0.000000    0.000000
      2          1           0       -1.050000    0.000000    0.000000
      3          9           0        3.350000    0.000000    0.000000
 ---------------------------------------------------------------------

 SCF Done:  E(UB3LYP) =  -100.898775699     a.u. after  237 cycles

 Alpha  occ. eigenvalues --  -24.76446  -1.22299  -0.55496  -0.46703  -0.46649
 Alpha  occ. eigenvalues --   -0.38108
 Alpha virt. eigenvalues --   -0.00670   0.21819   0.37402   0.85922   0.90797
 Alpha virt. eigenvalues --    0.92794   1.02086   1.09983   1.09986   1.33771
 Alpha virt. eigenvalues --    1.62892   1.62896   2.20653   2.35550   2.56460

  Beta  occ. eigenvalues --  -24.73288  -1.13219  -0.43541  -0.43483  -0.38101
  Beta virt. eigenvalues --   -0.26132  -0.00659   0.21832   0.37454   0.92296
  Beta virt. eigenvalues --    0.94342   0.95384   1.06119   1.09982   1.09986
  Beta virt. eigenvalues --    1.33779   1.62891   1.62896   2.20664   2.35553

 Mulliken charges and spin densities:
               1          2
     1  H   -0.000925  -0.000357
     2  H   -0.003617  -0.000188
     3  F    0.004542   1.000544
 Sum of Mulliken charges =   0.00000   1.00000

 Dipole moment (field-independent basis, Debye):
    X=              0.0609    Y=              0.0000    Z=              0.0000  Tot=              0.0609
 Quadrupole moment (field-independent basis, Debye-Ang):
   XX=             -6.2175   YY=             -7.1868   ZZ=             -6.6197
   XY=             -0.0000   XZ=             -0.0000   YZ=              0.3259

  Exact polarizability:      13.216      -0.000       2.147      -0.000       0.175       2.451
 Approx polarizability:      17.848      -0.000       2.213      -0.000       0.219       2.595

 ******    1 imaginary frequencies (negative Signs) ******

                      1                      2                      3
                      A                      A                      A
 Frequencies --    -30.6694              1411.0921              1543.1005
 Red. masses --      1.1085                 1.0078                 1.0096
 Frc consts  --      0.0006                 1.1824                 1.4165
 IR Inten    --      0.2138                 0.2480                 0.0001

                      4
                      A
 Frequencies --   1543.9286
 Red. masses --      1.0096
 Frc consts  --      1.4180
 IR Inten    --      0.0002

 - Thermochemistry -
 -------------------
 Temperature   298.150 Kelvin.  Pressure   1.00000 Atm.
 Atom     1 has atomic number  1 and mass   1.00783

 Molecular mass:    21.01405 amu.
 Principal axes and moments of inertia in atomic units:
                           1         2         3
     Eigenvalues --     0.00000  99.69948  99.69948
           X            1.00000  -0.00000   0.00000
           Y            0.00000   1.00000   0.00000
           Z            0.00000   0.00000   1.00000
 This molecule is a prolate symmetric top.
 Rotational symmetry number  1.
 Rotational temperature (Kelvin)      0.86875
 Rotational constant (GHZ):          18.101812
    1 imaginary frequencies ignored.
 Zero-point vibrational energy      26904.7 (Joules/Mol)
                                    6.43039 (Kcal/Mol)
 Vibrational temperatures:   2030.25  2220.18  2221.37
          (Kelvin)

 Zero-point correction=                           0.010247 (Hartree/Particle)
 Thermal correction to Energy=                    0.012623
 Thermal correction to Enthalpy=                  0.013567
 Thermal correction to Gibbs Free Energy=        -0.010223
 Sum of electronic and zero-point Energies=           -100.888528
 Sum of electronic and thermal Energies=              -100.886152
 Sum of electronic and thermal Enthalpies=            -100.885208
 Sum of electronic and thermal Free Energies=         -100.908999

                     E (Thermal)             CV                S
                      KCal/Mol        Cal/Mol-Kelvin    Cal/Mol-Kelvin
 Total                    7.921              5.198             50.071
 Electronic               0.000              0.000              1.377
 Translational            0.889              2.981             35.068
 Rotational               0.592              1.987             13.589
 Vibrational              6.440              0.230              0.037

 Normal termination of Gaussian 16 at Fri Aug 22 20:54:27 2025.
