 Gaussian 16, Revision C.01,
 Gaussian 16:  ES64L-G16RevC.01  3-Jul-2019

 -----------------------------------------
 # sp b3lyp/6-311g** Force nosymm scf=(qc)
 -----------------------------------------

 -------------------
 Title Card Required
 -------------------
 Symbolic Z-matrix:
 Charge =  0 Multiplicity = 2

                          Input orientation:
 ---------------------------------------------------------------------
 Center     Atomic      Atomic             Coordinates (Angstroms)
 Number     Number       Type             X           Y           Z
 ---------------------------------------------------------------------
      1          1           0        0.000000    0.000000    0.000000
      2          1           0       -2.700000    0.000000    0.000000
      3          9           0        3.300000    0.000000    0.000000
 ---------------------------------------------------------------------

 SCF Done:  E(UB3LYP) =  -100.761798509     a.u. after   25 cycles

 Alpha  occ. eigenvalues --  -24.75026  -1.21015  -0.54146  -0.45463  -0.45463
 Alpha  occ. eigenvalues --   -0.32668
 Alpha virt. eigenvalues --   -0.09198   0.25335   0.34604   0.88325   0.91703
 Alpha virt. eigenvalues --    0.91703   1.02444   1.24919   1.24919   1.26342
 Alpha virt. eigenvalues --    1.42031   1.42031   1.42695   2.15875   2.38089

  Beta  occ. eigenvalues --  -24.71936  -1.12144  -0.42368  -0.42368  -0.33197
  Beta virt. eigenvalues --   -0.25303  -0.08425   0.25170   0.35684   0.93184
  Beta virt. eigenvalues --    0.93184   0.97353   1.06412   1.24290   1.24290
  Beta virt. eigenvalues --    1.25604   1.43268   1.43268   1.43904   2.16519

 Mulliken charges and spin densities:
               1          2
     1  H    0.016441  -0.962631
     2  H    0.002072   0.983171
     3  F   -0.018513   0.979459
 Sum of Mulliken charges =  -0.00000   1.00000

 Dipole moment (field-independent basis, Debye):
    X=             -0.3405    Y=             -0.0000    Z=              0.0000  Tot=              0.3405
 Quadrupole moment (field-independent basis, Debye-Ang):
   XX=             -7.5188   YY=             -7.6467   ZZ=             -7.6467
   XY=             -0.0000   XZ=              0.0000   YZ=             -0.0000

  Exact polarizability:      34.883      -0.000       2.023       0.000       0.000       2.023
 Approx polarizability:      28.420      -0.000       1.927       0.000      -0.000       1.927

 ******    2 imaginary frequencies (negative Signs) ******

                      1                      2                      3
                      A                      A                      A
 Frequencies --   -526.9645              -171.4988               190.5795
 Red. masses --      1.0096                 1.1064                 1.0157
 Frc consts  --      0.1652                 0.0192                 0.0217
 IR Inten    --     12.6296                 9.2019                 0.2161

                      4
                      A
 Frequencies --    190.5795
 Red. masses --      1.0157
 Frc consts  --      0.0217
 IR Inten    --      0.2161

 - Thermochemistry -
 -------------------
 Temperature   298.150 Kelvin.  Pressure   1.00000 Atm.
 Atom     1 has atomic number  1 and mass   1.00783

 Molecular mass:    21.01405 amu.
 Principal axes and moments of inertia in atomic units:
                           1         2         3
     Eigenvalues --     0.00000 153.82874 153.82874
           X            1.00000  -0.00000   0.00000
           Y            0.00000   1.00000   0.00000
           Z            0.00000   0.00000   1.00000
 This molecule is a prolate symmetric top.
 Rotational symmetry number  1.
 Rotational temperature (Kelvin)      0.56305
 Rotational constant (GHZ):          11.732146
    2 imaginary frequencies ignored.
 Zero-point vibrational energy       2279.8 (Joules/Mol)
                                    0.54489 (Kcal/Mol)
 Warning -- explicit consideration of   2 degrees of freedom as
           vibrations may cause significant error
 Vibrational temperatures:    274.20   274.20
          (Kelvin)

 Zero-point correction=                           0.000868 (Hartree/Particle)
 Thermal correction to Energy=                    0.004380
 Thermal correction to Enthalpy=                  0.005324
 Thermal correction to Gibbs Free Energy=        -0.020970
 Sum of electronic and zero-point Energies=           -100.760930
 Sum of electronic and thermal Energies=              -100.757418
 Sum of electronic and thermal Enthalpies=            -100.756474
 Sum of electronic and thermal Free Energies=         -100.782768

                     E (Thermal)             CV                S
                      KCal/Mol        Cal/Mol-Kelvin    Cal/Mol-Kelvin
 Total                    2.749              8.674             55.341
 Electronic               0.000              0.000              1.377
 Translational            0.889              2.981             35.068
 Rotational               0.592              1.987             14.451
 Vibrational              1.267              3.706              4.444
 Vibration     1          0.634              1.853              2.222
 Vibration     2          0.634              1.853              2.222

 Normal termination of Gaussian 16 at Fri Aug 22 20:49:05 2025.
