 Gaussian 16, Revision C.01,
 Gaussian 16:  ES64L-G16RevC.01  3-Jul-2019

 -----------------------------------------
 # sp b3lyp/6-311g** Force nosymm scf=(qc)
 -----------------------------------------

 -------------------
 Title Card Required
 -------------------
 Symbolic Z-matrix:
 Charge =  0 Multiplicity = 2

                          Input orientation:
 ---------------------------------------------------------------------
 Center     Atomic      Atomic             Coordinates (Angstroms)
 Number     Number       Type             X           Y           Z
 ---------------------------------------------------------------------
      1          1           0        0.000000    0.000000    0.000000
      2          1           0       -3.500000    0.000000    0.000000
      3          9           0        0.650000    0.000000    0.000000
 ---------------------------------------------------------------------

 SCF Done:  E(UB3LYP) =  -100.800686706     a.u. after    6 cycles

 Alpha  occ. eigenvalues --  -24.62935  -1.31315  -0.59802  -0.42357  -0.42357
 Alpha  occ. eigenvalues --   -0.33378
 Alpha virt. eigenvalues --    0.06970   0.24968   0.55403   0.92881   0.92881
 Alpha virt. eigenvalues --    0.94692   1.23862   1.24133   1.24133   1.32722
 Alpha virt. eigenvalues --    1.46910   1.46910   1.96030   2.14672   3.09632

  Beta  occ. eigenvalues --  -24.62935  -1.31313  -0.59801  -0.42357  -0.42357
  Beta virt. eigenvalues --   -0.05293   0.07444   0.39427   0.55419   0.92881
  Beta virt. eigenvalues --    0.92881   0.94686   1.32094   1.46911   1.46911
  Beta virt. eigenvalues --    1.50571   1.50571   1.51045   1.96017   2.44838

 Mulliken charges and spin densities:
               1          2
     1  H    0.254605   0.000562
     2  H    0.000746   0.999091
     3  F   -0.255350   0.000347
 Sum of Mulliken charges =   0.00000   1.00000

 Dipole moment (field-independent basis, Debye):
    X=             -1.5150    Y=             -0.0000    Z=             -0.0000  Tot=              1.5150
 Quadrupole moment (field-independent basis, Debye-Ang):
   XX=             -7.1262   YY=             -6.6080   ZZ=             -6.6080
   XY=             -0.0000   XZ=             -0.0000   YZ=              0.0000

  Exact polarizability:       3.697      -0.000       2.445      -0.000      -0.000       2.445
 Approx polarizability:       3.979       0.000       2.425       0.000      -0.000       2.425

 ******    3 imaginary frequencies (negative Signs) ******

                      1                      2                      3
                      A                      A                      A
 Frequencies --  -4598.4197             -4598.4197               -38.8358
 Red. masses --      1.0429                 1.0429                 1.0532
 Frc consts  --     12.9931                12.9931                 0.0009
 IR Inten    --    226.0523               226.0523                 0.0265

                      4
                      A
 Frequencies --  10873.4656
 Red. masses --      1.0583
 Frc consts  --     73.7224
 IR Inten    --    103.1639

 - Thermochemistry -
 -------------------
 Temperature   298.150 Kelvin.  Pressure   1.00000 Atm.
 Atom     1 has atomic number  1 and mass   1.00783

 Molecular mass:    21.01405 amu.
 Principal axes and moments of inertia in atomic units:
                           1         2         3
     Eigenvalues --     0.00000  59.52764  59.52764
           X            1.00000  -0.00000   0.00000
           Y            0.00000   1.00000   0.00000
           Z            0.00000   0.00000   1.00000
 This molecule is a prolate symmetric top.
 Rotational symmetry number  1.
 Rotational temperature (Kelvin)      1.45502
 Rotational constant (GHZ):          30.317700
    3 imaginary frequencies ignored.
 Zero-point vibrational energy      65037.8 (Joules/Mol)
                                   15.54440 (Kcal/Mol)
 Vibrational temperatures:  15644.49
          (Kelvin)

 Zero-point correction=                           0.024772 (Hartree/Particle)
 Thermal correction to Energy=                    0.027132
 Thermal correction to Enthalpy=                  0.028076
 Thermal correction to Gibbs Free Energy=         0.004790
 Sum of electronic and zero-point Energies=           -100.775915
 Sum of electronic and thermal Energies=              -100.773555
 Sum of electronic and thermal Enthalpies=            -100.772610
 Sum of electronic and thermal Free Energies=         -100.795897

                     E (Thermal)             CV                S
                      KCal/Mol        Cal/Mol-Kelvin    Cal/Mol-Kelvin
 Total                   17.026              4.968             49.010
 Electronic               0.000              0.000              1.377
 Translational            0.889              2.981             35.068
 Rotational               0.592              1.987             12.564
 Vibrational             15.544              0.000              0.000

 Normal termination of Gaussian 16 at Fri Aug 22 15:45:02 2025.
