 Gaussian 16, Revision C.01,
 Gaussian 16:  ES64L-G16RevC.01  3-Jul-2019

 -----------------------------------------
 # sp b3lyp/6-311g** Force nosymm scf=(qc)
 -----------------------------------------

 -------------------
 Title Card Required
 -------------------
 Symbolic Z-matrix:
 Charge =  0 Multiplicity = 2

                          Input orientation:
 ---------------------------------------------------------------------
 Center     Atomic      Atomic             Coordinates (Angstroms)
 Number     Number       Type             X           Y           Z
 ---------------------------------------------------------------------
      1          1           0        0.000000    0.000000    0.000000
      2          1           0       -1.800000    0.000000    0.000000
      3          9           0        1.250000    0.000000    0.000000
 ---------------------------------------------------------------------

 SCF Done:  E(UB3LYP) =  -100.917753743     a.u. after    8 cycles

 Alpha  occ. eigenvalues --  -24.63505  -1.11186  -0.47463  -0.37242  -0.36620
 Alpha  occ. eigenvalues --   -0.36620
 Alpha virt. eigenvalues --   -0.03460   0.22596   0.28408   0.93709   0.93709
 Alpha virt. eigenvalues --    1.01661   1.06884   1.19104   1.19104   1.36211
 Alpha virt. eigenvalues --    1.36211   1.49071   1.72277   2.15515   2.33615

  Beta  occ. eigenvalues --  -24.63190  -1.10384  -0.45764  -0.36330  -0.36330
  Beta virt. eigenvalues --   -0.16696   0.00099   0.27221   0.32299   0.93711
  Beta virt. eigenvalues --    0.93711   1.02552   1.14562   1.31800   1.31800
  Beta virt. eigenvalues --    1.40078   1.40078   1.55501   1.75992   2.26004

 Mulliken charges and spin densities:
               1          2
     1  H    0.323873  -0.029193
     2  H    0.041079   0.934761
     3  F   -0.364951   0.094432
 Sum of Mulliken charges =  -0.00000   1.00000

 Dipole moment (field-independent basis, Debye):
    X=             -2.7523    Y=              0.0000    Z=              0.0000  Tot=              2.7523
 Quadrupole moment (field-independent basis, Debye-Ang):
   XX=             -8.2207   YY=             -7.0948   ZZ=             -7.0948
   XY=              0.0000   XZ=              0.0000   YZ=             -0.0000

  Exact polarizability:      18.890      -0.000       2.375       0.000      -0.000       2.375
 Approx polarizability:      23.948       0.000       2.337      -0.000      -0.000       2.337

 ******    1 imaginary frequencies (negative Signs) ******

                      1                      2                      3
                      A                      A                      A
 Frequencies --  -1116.0725               327.7463              1132.7767
 Red. masses --      1.0165                 1.0982                 1.0229
 Frc consts  --      0.7460                 0.0695                 0.7733
 IR Inten    --    192.4029                23.6067                88.0943

                      4
                      A
 Frequencies --   1132.7767
 Red. masses --      1.0229
 Frc consts  --      0.7733
 IR Inten    --     88.0943

 - Thermochemistry -
 -------------------
 Temperature   298.150 Kelvin.  Pressure   1.00000 Atm.
 Atom     1 has atomic number  1 and mass   1.00783

 Molecular mass:    21.01405 amu.
 Principal axes and moments of inertia in atomic units:
                           1         2         3
     Eigenvalues --     0.00000  35.91173  35.91173
           X            1.00000  -0.00000   0.00000
           Y            0.00000   1.00000   0.00000
           Z            0.00000   0.00000   1.00000
 This molecule is a prolate symmetric top.
 Rotational symmetry number  1.
 Rotational temperature (Kelvin)      2.41186
 Rotational constant (GHZ):          50.254928
    1 imaginary frequencies ignored.
 Zero-point vibrational energy      15511.4 (Joules/Mol)
                                    3.70731 (Kcal/Mol)
 Warning -- explicit consideration of   1 degrees of freedom as
           vibrations may cause significant error
 Vibrational temperatures:    471.55  1629.81  1629.81
          (Kelvin)

 Zero-point correction=                           0.005908 (Hartree/Particle)
 Thermal correction to Energy=                    0.008699
 Thermal correction to Enthalpy=                  0.009643
 Thermal correction to Gibbs Free Energy=        -0.013822
 Sum of electronic and zero-point Energies=           -100.911846
 Sum of electronic and thermal Energies=              -100.909055
 Sum of electronic and thermal Enthalpies=            -100.908111
 Sum of electronic and thermal Free Energies=         -100.931575

                     E (Thermal)             CV                S
                      KCal/Mol        Cal/Mol-Kelvin    Cal/Mol-Kelvin
 Total                    5.459              7.094             49.386
 Electronic               0.000              0.000              1.377
 Translational            0.889              2.981             35.068
 Rotational               0.592              1.987             11.560
 Vibrational              3.977              2.126              1.380
 Vibration     1          0.711              1.620              1.271

 Normal termination of Gaussian 16 at Fri Aug 22 16:12:28 2025.
