 Gaussian 16, Revision C.01,
 Gaussian 16:  ES64L-G16RevC.01  3-Jul-2019

 -----------------------------------------
 # sp b3lyp/6-311g** Force nosymm scf=(qc)
 -----------------------------------------

 -------------------
 Title Card Required
 -------------------
 Symbolic Z-matrix:
 Charge =  0 Multiplicity = 2

                          Input orientation:
 ---------------------------------------------------------------------
 Center     Atomic      Atomic             Coordinates (Angstroms)
 Number     Number       Type             X           Y           Z
 ---------------------------------------------------------------------
      1          1           0        0.000000    0.000000    0.000000
      2          1           0       -2.400000    0.000000    0.000000
      3          9           0        2.500000    0.000000    0.000000
 ---------------------------------------------------------------------

 SCF Done:  E(UB3LYP) =  -100.772297699     a.u. after   18 cycles

 Alpha  occ. eigenvalues --  -24.71750  -1.17957  -0.50848  -0.42708  -0.42708
 Alpha  occ. eigenvalues --   -0.33970
 Alpha virt. eigenvalues --   -0.12163   0.24887   0.32937   0.90113   0.93628
 Alpha virt. eigenvalues --    0.93628   1.06576   1.23730   1.23730   1.26865
 Alpha virt. eigenvalues --    1.37324   1.37324   1.42878   2.14163   2.33119

  Beta  occ. eigenvalues --  -24.68908  -1.09865  -0.39875  -0.39875  -0.35283
  Beta virt. eigenvalues --   -0.23397  -0.10015   0.26007   0.34230   0.94994
  Beta virt. eigenvalues --    0.94994   0.97077   1.09488   1.22411   1.22411
  Beta virt. eigenvalues --    1.30191   1.40764   1.40764   1.43254   2.14079

 Mulliken charges and spin densities:
               1          2
     1  H    0.074895  -0.859087
     2  H    0.013785   0.960837
     3  F   -0.088679   0.898250
 Sum of Mulliken charges =  -0.00000   1.00000

 Dipole moment (field-independent basis, Debye):
    X=             -1.2861    Y=              0.0000    Z=             -0.0000  Tot=              1.2861
 Quadrupole moment (field-independent basis, Debye-Ang):
   XX=             -8.7239   YY=             -7.6195   ZZ=             -7.6195
   XY=              0.0000   XZ=             -0.0000   YZ=              0.0000

  Exact polarizability:      46.533       0.000       2.014      -0.000       0.000       2.014
 Approx polarizability:      49.159       0.000       1.918      -0.000      -0.000       1.918

 ******    2 imaginary frequencies (negative Signs) ******

                      1                      2                      3
                      A                      A                      A
 Frequencies --   -889.5411              -359.2933               351.9680
 Red. masses --      1.0165                 1.0982                 1.0175
 Frc consts  --      0.4739                 0.0835                 0.0743
 IR Inten    --     49.0648                31.6733                 4.3840

                      4
                      A
 Frequencies --    351.9680
 Red. masses --      1.0175
 Frc consts  --      0.0743
 IR Inten    --      4.3840

 - Thermochemistry -
 -------------------
 Temperature   298.150 Kelvin.  Pressure   1.00000 Atm.
 Atom     1 has atomic number  1 and mass   1.00783

 Molecular mass:    21.01405 amu.
 Principal axes and moments of inertia in atomic units:
                           1         2         3
     Eigenvalues --     0.00000  99.45404  99.45404
           X            1.00000  -0.00000   0.00000
           Y            0.00000   1.00000   0.00000
           Z            0.00000   0.00000   1.00000
 This molecule is a prolate symmetric top.
 Rotational symmetry number  1.
 Rotational temperature (Kelvin)      0.87089
 Rotational constant (GHZ):          18.146484
    2 imaginary frequencies ignored.
 Zero-point vibrational energy       4210.5 (Joules/Mol)
                                    1.00633 (Kcal/Mol)
 Warning -- explicit consideration of   2 degrees of freedom as
           vibrations may cause significant error
 Vibrational temperatures:    506.40   506.40
          (Kelvin)

 Zero-point correction=                           0.001604 (Hartree/Particle)
 Thermal correction to Energy=                    0.004682
 Thermal correction to Enthalpy=                  0.005627
 Thermal correction to Gibbs Free Energy=        -0.019244
 Sum of electronic and zero-point Energies=           -100.770694
 Sum of electronic and thermal Energies=              -100.767615
 Sum of electronic and thermal Enthalpies=            -100.766671
 Sum of electronic and thermal Free Energies=         -100.791542

                     E (Thermal)             CV                S
                      KCal/Mol        Cal/Mol-Kelvin    Cal/Mol-Kelvin
 Total                    2.938              8.110             52.344
 Electronic               0.000              0.000              1.377
 Translational            0.889              2.981             35.068
 Rotational               0.592              1.987             13.584
 Vibrational              1.457              3.142              2.315
 Vibration     1          0.729              1.571              1.157
 Vibration     2          0.729              1.571              1.157

 Normal termination of Gaussian 16 at Fri Aug 22 17:45:11 2025.
