 Gaussian 16, Revision C.01,
 Gaussian 16:  ES64L-G16RevC.01  3-Jul-2019

 -----------------------------------------
 # sp b3lyp/6-311g** Force nosymm scf=(qc)
 -----------------------------------------

 -------------------
 Title Card Required
 -------------------
 Symbolic Z-matrix:
 Charge =  0 Multiplicity = 2

                          Input orientation:
 ---------------------------------------------------------------------
 Center     Atomic      Atomic             Coordinates (Angstroms)
 Number     Number       Type             X           Y           Z
 ---------------------------------------------------------------------
      1          1           0        0.000000    0.000000    0.000000
      2          1           0       -2.050000    0.000000    0.000000
      3          9           0        0.650000    0.000000    0.000000
 ---------------------------------------------------------------------

 SCF Done:  E(UB3LYP) =  -100.800363991     a.u. after    6 cycles

 Alpha  occ. eigenvalues --  -24.62855  -1.31251  -0.59857  -0.42278  -0.42278
 Alpha  occ. eigenvalues --   -0.35113
 Alpha virt. eigenvalues --    0.10350   0.24532   0.52795   0.92949   0.92949
 Alpha virt. eigenvalues --    0.95057   1.17621   1.22351   1.22351   1.47034
 Alpha virt. eigenvalues --    1.47034   1.54996   1.96563   2.17761   3.09966

  Beta  occ. eigenvalues --  -24.62829  -1.31173  -0.59744  -0.42261  -0.42261
  Beta virt. eigenvalues --   -0.09943   0.11825   0.35796   0.53408   0.92944
  Beta virt. eigenvalues --    0.92944   0.95204   1.27808   1.42442   1.42442
  Beta virt. eigenvalues --    1.47332   1.47332   1.63995   1.99447   2.43458

 Mulliken charges and spin densities:
               1          2
     1  H    0.240908   0.008805
     2  H    0.008911   0.986470
     3  F   -0.249819   0.004726
 Sum of Mulliken charges =   0.00000   1.00000

 Dipole moment (field-independent basis, Debye):
    X=             -1.5883    Y=              0.0000    Z=             -0.0000  Tot=              1.5883
 Quadrupole moment (field-independent basis, Debye-Ang):
   XX=             -6.8887   YY=             -6.5804   ZZ=             -6.5804
   XY=             -0.0000   XZ=             -0.0000   YZ=             -0.0000

  Exact polarizability:       6.011       0.000       2.490      -0.000       0.000       2.490
 Approx polarizability:       5.912       0.000       2.482      -0.000      -0.000       2.482

 ******    2 imaginary frequencies (negative Signs) ******

                      1                      2                      3
                      A                      A                      A
 Frequencies --  -4529.4249             -4529.4249               324.6312
 Red. masses --      1.0354                 1.0354                 1.0533
 Frc consts  --     12.5150                12.5150                 0.0654
 IR Inten    --    193.3100               193.3100                 0.0782

                      4
                      A
 Frequencies --  10872.0103
 Red. masses --      1.0583
 Frc consts  --     73.7006
 IR Inten    --    128.3296

 - Thermochemistry -
 -------------------
 Temperature   298.150 Kelvin.  Pressure   1.00000 Atm.
 Atom     1 has atomic number  1 and mass   1.00783

 Molecular mass:    21.01405 amu.
 Principal axes and moments of inertia in atomic units:
                           1         2         3
     Eigenvalues --     0.00000  25.82027  25.82027
           X            1.00000  -0.00000   0.00000
           Y            0.00000   1.00000   0.00000
           Z            0.00000   0.00000   1.00000
 This molecule is a prolate symmetric top.
 Rotational symmetry number  1.
 Rotational temperature (Kelvin)      3.35449
 Rotational constant (GHZ):          69.896289
    2 imaginary frequencies ignored.
 Zero-point vibrational energy      66970.8 (Joules/Mol)
                                   16.00640 (Kcal/Mol)
 Warning -- explicit consideration of   1 degrees of freedom as
           vibrations may cause significant error
 Vibrational temperatures:    467.07 15642.40
          (Kelvin)

 Zero-point correction=                           0.025508 (Hartree/Particle)
 Thermal correction to Energy=                    0.028259
 Thermal correction to Enthalpy=                  0.029203
 Thermal correction to Gibbs Free Energy=         0.006094
 Sum of electronic and zero-point Energies=           -100.774856
 Sum of electronic and thermal Energies=              -100.772105
 Sum of electronic and thermal Enthalpies=            -100.771161
 Sum of electronic and thermal Free Energies=         -100.794270

                     E (Thermal)             CV                S
                      KCal/Mol        Cal/Mol-Kelvin    Cal/Mol-Kelvin
 Total                   17.733              6.594             48.636
 Electronic               0.000              0.000              1.377
 Translational            0.889              2.981             35.068
 Rotational               0.592              1.987             10.904
 Vibrational             16.251              1.626              1.287
 Vibration     1          0.709              1.626              1.287

 Normal termination of Gaussian 16 at Fri Aug 22 15:44:06 2025.
