 Gaussian 16, Revision C.01,
 Gaussian 16:  ES64L-G16RevC.01  3-Jul-2019

 -----------------------------------------
 # sp b3lyp/6-311g** Force nosymm scf=(qc)
 -----------------------------------------

 -------------------
 Title Card Required
 -------------------
 Symbolic Z-matrix:
 Charge =  0 Multiplicity = 2

                          Input orientation:
 ---------------------------------------------------------------------
 Center     Atomic      Atomic             Coordinates (Angstroms)
 Number     Number       Type             X           Y           Z
 ---------------------------------------------------------------------
      1          1           0        0.000000    0.000000    0.000000
      2          1           0       -1.150000    0.000000    0.000000
      3          9           0        1.650000    0.000000    0.000000
 ---------------------------------------------------------------------

 SCF Done:  E(UB3LYP) =  -100.897941363     a.u. after   12 cycles

 Alpha  occ. eigenvalues --  -24.69259  -1.15946  -0.50889  -0.40890  -0.40890
 Alpha  occ. eigenvalues --   -0.40258
 Alpha virt. eigenvalues --   -0.01804   0.20605   0.32619   0.91409   0.91409
 Alpha virt. eigenvalues --    0.96453   1.07990   1.09110   1.09110   1.54317
 Alpha virt. eigenvalues --    1.54445   1.54445   2.12373   2.27037   2.53191

  Beta  occ. eigenvalues --  -24.66875  -1.09354  -0.41564  -0.38559  -0.38559
  Beta virt. eigenvalues --   -0.23764   0.00725   0.22282   0.33689   0.92260
  Beta virt. eigenvalues --    0.92260   1.02765   1.10642   1.11970   1.11970
  Beta virt. eigenvalues --    1.55973   1.55973   1.58237   2.15073   2.30347

 Mulliken charges and spin densities:
               1          2
     1  H    0.126909  -0.145603
     2  H    0.061732   0.408526
     3  F   -0.188641   0.737077
 Sum of Mulliken charges =  -0.00000   1.00000

 Dipole moment (field-independent basis, Debye):
    X=             -1.8420    Y=             -0.0000    Z=              0.0000  Tot=              1.8420
 Quadrupole moment (field-independent basis, Debye-Ang):
   XX=             -7.4062   YY=             -7.1992   ZZ=             -7.1992
   XY=             -0.0000   XZ=              0.0000   YZ=              0.0000

  Exact polarizability:      35.274      -0.000       2.299       0.000       0.000       2.299
 Approx polarizability:      53.488       0.000       2.276      -0.000      -0.000       2.276

 ******    1 imaginary frequencies (negative Signs) ******

                      1                      2                      3
                      A                      A                      A
 Frequencies --  -2031.4189               406.7840              1309.9243
 Red. masses --      1.0250                 1.0885                 1.0142
 Frc consts  --      2.4921                 0.1061                 1.0253
 IR Inten    --   1171.4703                26.7643                 3.1394

                      4
                      A
 Frequencies --   1309.9243
 Red. masses --      1.0142
 Frc consts  --      1.0253
 IR Inten    --      3.1394

 - Thermochemistry -
 -------------------
 Temperature   298.150 Kelvin.  Pressure   1.00000 Atm.
 Atom     1 has atomic number  1 and mass   1.00783

 Molecular mass:    21.01405 amu.
 Principal axes and moments of inertia in atomic units:
                           1         2         3
     Eigenvalues --     0.00000  34.59648  34.59648
           X            1.00000  -0.00000   0.00000
           Y            0.00000   1.00000   0.00000
           Z            0.00000   0.00000   1.00000
 This molecule is a prolate symmetric top.
 Rotational symmetry number  1.
 Rotational temperature (Kelvin)      2.50355
 Rotational constant (GHZ):          52.165458
    1 imaginary frequencies ignored.
 Zero-point vibrational energy      18103.3 (Joules/Mol)
                                    4.32679 (Kcal/Mol)
 Warning -- explicit consideration of   1 degrees of freedom as
           vibrations may cause significant error
 Vibrational temperatures:    585.27  1884.69  1884.69
          (Kelvin)

 Zero-point correction=                           0.006895 (Hartree/Particle)
 Thermal correction to Energy=                    0.009580
 Thermal correction to Enthalpy=                  0.010524
 Thermal correction to Gibbs Free Energy=        -0.012720
 Sum of electronic and zero-point Energies=           -100.891046
 Sum of electronic and thermal Energies=              -100.888361
 Sum of electronic and thermal Enthalpies=            -100.887417
 Sum of electronic and thermal Free Energies=         -100.910662

                     E (Thermal)             CV                S
                      KCal/Mol        Cal/Mol-Kelvin    Cal/Mol-Kelvin
 Total                    6.012              6.710             48.922
 Electronic               0.000              0.000              1.377
 Translational            0.889              2.981             35.068
 Rotational               0.592              1.987             11.486
 Vibrational              4.530              1.742              0.990
 Vibration     1          0.772              1.455              0.938

 Normal termination of Gaussian 16 at Fri Aug 22 16:33:30 2025.
