 Gaussian 16, Revision C.01,
 Gaussian 16:  ES64L-G16RevC.01  3-Jul-2019

 -----------------------------------------
 # sp b3lyp/6-311g** Force nosymm scf=(qc)
 -----------------------------------------

 -------------------
 Title Card Required
 -------------------
 Symbolic Z-matrix:
 Charge =  0 Multiplicity = 2

                          Input orientation:
 ---------------------------------------------------------------------
 Center     Atomic      Atomic             Coordinates (Angstroms)
 Number     Number       Type             X           Y           Z
 ---------------------------------------------------------------------
      1          1           0        0.000000    0.000000    0.000000
      2          1           0       -3.550000    0.000000    0.000000
      3          9           0        1.500000    0.000000    0.000000
 ---------------------------------------------------------------------

 SCF Done:  E(UB3LYP) =  -100.854678735     a.u. after    7 cycles

 Alpha  occ. eigenvalues --  -24.64352  -1.09690  -0.43239  -0.36429  -0.36429
 Alpha  occ. eigenvalues --   -0.33942
 Alpha virt. eigenvalues --   -0.14480   0.20322   0.27651   0.93508   0.93508
 Alpha virt. eigenvalues --    1.03514   1.09446   1.23569   1.23569   1.23591
 Alpha virt. eigenvalues --    1.31162   1.31162   1.73047   2.13240   2.18811

  Beta  occ. eigenvalues --  -24.64321  -1.09610  -0.43168  -0.36400  -0.36400
  Beta virt. eigenvalues --   -0.14741  -0.06569   0.23241   0.38219   0.93496
  Beta virt. eigenvalues --    0.93496   1.03590   1.09457   1.31018   1.31018
  Beta virt. eigenvalues --    1.45865   1.46312   1.46312   1.73013   2.17993

 Mulliken charges and spin densities:
               1          2
     1  H    0.348878  -0.007837
     2  H    0.001682   0.998222
     3  F   -0.350560   0.009615
 Sum of Mulliken charges =  -0.00000   1.00000

 Dipole moment (field-independent basis, Debye):
    X=             -2.6127    Y=             -0.0000    Z=              0.0000  Tot=              2.6127
 Quadrupole moment (field-independent basis, Debye-Ang):
   XX=             -9.8969   YY=             -7.3216   ZZ=             -7.3216
   XY=             -0.0000   XZ=              0.0000   YZ=             -0.0000

  Exact polarizability:      15.403       0.000       2.187      -0.000       0.000       2.187
 Approx polarizability:      28.918      -0.000       2.112       0.000       0.000       2.112

 ******    2 imaginary frequencies (negative Signs) ******

                      1                      2                      3
                      A                      A                      A
 Frequencies --  -1151.2406               -75.7847              1016.6151
 Red. masses --      1.0576                 1.0540                 1.0308
 Frc consts  --      0.8258                 0.0036                 0.6277
 IR Inten    --     43.8147                 0.1697               117.6596

                      4
                      A
 Frequencies --   1016.6151
 Red. masses --      1.0308
 Frc consts  --      0.6277
 IR Inten    --    117.6596

 - Thermochemistry -
 -------------------
 Temperature   298.150 Kelvin.  Pressure   1.00000 Atm.
 Atom     1 has atomic number  1 and mass   1.00783

 Molecular mass:    21.01405 amu.
 Principal axes and moments of inertia in atomic units:
                           1         2         3
     Eigenvalues --     0.00000  92.47622  92.47622
           X            1.00000  -0.00000   0.00000
           Y            0.00000   1.00000   0.00000
           Z            0.00000   0.00000   1.00000
 This molecule is a prolate symmetric top.
 Rotational symmetry number  1.
 Rotational temperature (Kelvin)      0.93661
 Rotational constant (GHZ):          19.515734
    2 imaginary frequencies ignored.
 Zero-point vibrational energy      12161.4 (Joules/Mol)
                                    2.90665 (Kcal/Mol)
 Vibrational temperatures:   1462.68  1462.68
          (Kelvin)

 Zero-point correction=                           0.004632 (Hartree/Particle)
 Thermal correction to Energy=                    0.007062
 Thermal correction to Enthalpy=                  0.008006
 Thermal correction to Gibbs Free Energy=        -0.015779
 Sum of electronic and zero-point Energies=           -100.850047
 Sum of electronic and thermal Energies=              -100.847617
 Sum of electronic and thermal Enthalpies=            -100.846673
 Sum of electronic and thermal Free Energies=         -100.870458

                     E (Thermal)             CV                S
                      KCal/Mol        Cal/Mol-Kelvin    Cal/Mol-Kelvin
 Total                    4.431              5.687             50.060
 Electronic               0.000              0.000              1.377
 Translational            0.889              2.981             35.068
 Rotational               0.592              1.987             13.440
 Vibrational              2.950              0.719              0.175

 Normal termination of Gaussian 16 at Fri Aug 22 16:26:39 2025.
