 Gaussian 16, Revision C.01,
 Gaussian 16:  ES64L-G16RevC.01  3-Jul-2019

 -----------------------------------------
 # sp b3lyp/6-311g** Force nosymm scf=(qc)
 -----------------------------------------

 -------------------
 Title Card Required
 -------------------
 Symbolic Z-matrix:
 Charge =  0 Multiplicity = 2

                          Input orientation:
 ---------------------------------------------------------------------
 Center     Atomic      Atomic             Coordinates (Angstroms)
 Number     Number       Type             X           Y           Z
 ---------------------------------------------------------------------
      1          1           0        0.000000    0.000000    0.000000
      2          1           0       -2.850000    0.000000    0.000000
      3          9           0        2.200000    0.000000    0.000000
 ---------------------------------------------------------------------

 SCF Done:  E(UB3LYP) =  -100.775603445     a.u. after   23 cycles

 Alpha  occ. eigenvalues --  -24.66751  -1.08361  -0.38132  -0.38132  -0.37117
 Alpha  occ. eigenvalues --   -0.33270
 Alpha virt. eigenvalues --   -0.21725   0.21902   0.27415   0.92226   0.95834
 Alpha virt. eigenvalues --    0.95834   1.08674   1.21512   1.21512   1.23781
 Alpha virt. eigenvalues --    1.23781   1.24745   1.42325   2.12834   2.14745

  Beta  occ. eigenvalues --  -24.69348  -1.15684  -0.48399  -0.40706  -0.40706
  Beta virt. eigenvalues --   -0.13128  -0.04677   0.32475   0.39178   0.89197
  Beta virt. eigenvalues --    0.94766   0.94766   1.06807   1.37513   1.37513
  Beta virt. eigenvalues --    1.47249   1.47249   1.47852   1.52437   2.33381

 Mulliken charges and spin densities:
               1          2
     1  H    0.145059   0.824085
     2  H    0.006307   0.993830
     3  F   -0.151366  -0.817915
 Sum of Mulliken charges =   0.00000   1.00000

 Dipole moment (field-independent basis, Debye):
    X=             -1.7546    Y=              0.0000    Z=              0.0000  Tot=              1.7546
 Quadrupole moment (field-independent basis, Debye-Ang):
   XX=             -9.8627   YY=             -7.5097   ZZ=             -7.5097
   XY=              0.0000   XZ=              0.0000   YZ=              0.0000

  Exact polarizability:      35.849       0.000       2.040       0.000       0.000       2.040
 Approx polarizability:      48.473       0.000       1.931       0.000       0.000       1.931

 ******    1 imaginary frequencies (negative Signs) ******

                      1                      2                      3
                      A                      A                      A
 Frequencies --   -832.4171               171.9623               345.9768
 Red. masses --      1.0641                 1.0476                 1.0214
 Frc consts  --      0.4344                 0.0183                 0.0720
 IR Inten    --     68.2746                 4.2081                18.7053

                      4
                      A
 Frequencies --    345.9768
 Red. masses --      1.0214
 Frc consts  --      0.0720
 IR Inten    --     18.7053

 - Thermochemistry -
 -------------------
 Temperature   298.150 Kelvin.  Pressure   1.00000 Atm.
 Atom     1 has atomic number  1 and mass   1.00783

 Molecular mass:    21.01405 amu.
 Principal axes and moments of inertia in atomic units:
                           1         2         3
     Eigenvalues --     0.00000 100.13027 100.13027
           X            1.00000  -0.00000   0.00000
           Y            0.00000   1.00000   0.00000
           Z            0.00000   0.00000   1.00000
 This molecule is a prolate symmetric top.
 Rotational symmetry number  1.
 Rotational temperature (Kelvin)      0.86501
 Rotational constant (GHZ):          18.023933
    1 imaginary frequencies ignored.
 Zero-point vibrational energy       5167.4 (Joules/Mol)
                                    1.23503 (Kcal/Mol)
 Warning -- explicit consideration of   3 degrees of freedom as
           vibrations may cause significant error
 Vibrational temperatures:    247.42   497.78   497.78
          (Kelvin)

 Zero-point correction=                           0.001968 (Hartree/Particle)
 Thermal correction to Energy=                    0.005666
 Thermal correction to Enthalpy=                  0.006610
 Thermal correction to Gibbs Free Energy=        -0.019439
 Sum of electronic and zero-point Energies=           -100.773635
 Sum of electronic and thermal Energies=              -100.769937
 Sum of electronic and thermal Enthalpies=            -100.768993
 Sum of electronic and thermal Free Energies=         -100.795043

                     E (Thermal)             CV                S
                      KCal/Mol        Cal/Mol-Kelvin    Cal/Mol-Kelvin
 Total                    3.556             10.012             54.826
 Electronic               0.000              0.000              1.377
 Translational            0.889              2.981             35.068
 Rotational               0.592              1.987             13.598
 Vibrational              2.074              5.044              4.783
 Vibration     1          0.626              1.877              2.414
 Vibration     2          0.724              1.583              1.184
 Vibration     3          0.724              1.583              1.184

 Normal termination of Gaussian 16 at Fri Aug 22 17:12:28 2025.
