 Gaussian 16, Revision C.01,
 Gaussian 16:  ES64L-G16RevC.01  3-Jul-2019

 -----------------------------------------
 # sp b3lyp/6-311g** Force nosymm scf=(qc)
 -----------------------------------------

 -------------------
 Title Card Required
 -------------------
 Symbolic Z-matrix:
 Charge =  0 Multiplicity = 2

                          Input orientation:
 ---------------------------------------------------------------------
 Center     Atomic      Atomic             Coordinates (Angstroms)
 Number     Number       Type             X           Y           Z
 ---------------------------------------------------------------------
      1          1           0        0.000000    0.000000    0.000000
      2          1           0       -1.200000    0.000000    0.000000
      3          9           0        0.850000    0.000000    0.000000
 ---------------------------------------------------------------------

 SCF Done:  E(UB3LYP) =  -100.954750176     a.u. after    6 cycles

 Alpha  occ. eigenvalues --  -24.63976  -1.21573  -0.58031  -0.40368  -0.40368
 Alpha  occ. eigenvalues --   -0.36306
 Alpha virt. eigenvalues --    0.13816   0.19657   0.47986   0.92501   0.92501
 Alpha virt. eigenvalues --    0.96525   1.10354   1.10354   1.39716   1.53272
 Alpha virt. eigenvalues --    1.53272   1.61153   2.09841   2.26882   3.02823

  Beta  occ. eigenvalues --  -24.63574  -1.20522  -0.55360  -0.40023  -0.40023
  Beta virt. eigenvalues --   -0.15589   0.15233   0.24890   0.53217   0.93344
  Beta virt. eigenvalues --    0.93344   0.97338   1.18696   1.18696   1.43143
  Beta virt. eigenvalues --    1.59031   1.59031   1.69586   2.11513   2.43251

 Mulliken charges and spin densities:
               1          2
     1  H    0.265136   0.002013
     2  H    0.015898   0.908575
     3  F   -0.281034   0.089412
 Sum of Mulliken charges =   0.00000   1.00000

 Dipole moment (field-independent basis, Debye):
    X=             -1.8463    Y=             -0.0000    Z=              0.0000  Tot=              1.8463
 Quadrupole moment (field-independent basis, Debye-Ang):
   XX=             -7.4686   YY=             -6.6459   ZZ=             -6.6459
   XY=             -0.0000   XZ=              0.0000   YZ=             -0.0000

  Exact polarizability:      10.516       0.000       2.578       0.000       0.000       2.578
 Approx polarizability:      10.932      -0.000       2.602       0.000       0.000       2.602

 ******    2 imaginary frequencies (negative Signs) ******

                      1                      2                      3
                      A                      A                      A
 Frequencies --  -1488.5899             -1488.5899              1151.9824
 Red. masses --      1.0226                 1.0226                 1.0526
 Frc consts  --      1.3351                 1.3351                 0.8230
 IR Inten    --    102.4872               102.4872                20.9000

                      4
                      A
 Frequencies --   5110.8443
 Red. masses --      1.0590
 Frc consts  --     16.2978
 IR Inten    --    127.2282

 - Thermochemistry -
 -------------------
 Temperature   298.150 Kelvin.  Pressure   1.00000 Atm.
 Atom     1 has atomic number  1 and mass   1.00783

 Molecular mass:    21.01405 amu.
 Principal axes and moments of inertia in atomic units:
                           1         2         3
     Eigenvalues --     0.00000  16.27349  16.27349
           X            1.00000  -0.00000   0.00000
           Y            0.00000   1.00000   0.00000
           Z            0.00000   0.00000   1.00000
 This molecule is a prolate symmetric top.
 Rotational symmetry number  1.
 Rotational temperature (Kelvin)      5.32239
 Rotational constant (GHZ):         110.900666
    2 imaginary frequencies ignored.
 Zero-point vibrational energy      37460.0 (Joules/Mol)
                                    8.95316 (Kcal/Mol)
 Vibrational temperatures:   1657.45  7353.36
          (Kelvin)

 Zero-point correction=                           0.014268 (Hartree/Particle)
 Thermal correction to Energy=                    0.016649
 Thermal correction to Enthalpy=                  0.017593
 Thermal correction to Gibbs Free Energy=        -0.004493
 Sum of electronic and zero-point Energies=           -100.940482
 Sum of electronic and thermal Energies=              -100.938102
 Sum of electronic and thermal Enthalpies=            -100.937157
 Sum of electronic and thermal Free Energies=         -100.959243

                     E (Thermal)             CV                S
                      KCal/Mol        Cal/Mol-Kelvin    Cal/Mol-Kelvin
 Total                   10.447              5.206             46.483
 Electronic               0.000              0.000              1.377
 Translational            0.889              2.981             35.068
 Rotational               0.592              1.987              9.987
 Vibrational              8.966              0.238              0.050

 Normal termination of Gaussian 16 at Fri Aug 22 15:52:54 2025.
