 Gaussian 16, Revision C.01,
 Gaussian 16:  ES64L-G16RevC.01  3-Jul-2019

 -----------------------------------------
 # sp b3lyp/6-311g** Force nosymm scf=(qc)
 -----------------------------------------

 -------------------
 Title Card Required
 -------------------
 Symbolic Z-matrix:
 Charge =  0 Multiplicity = 2

                          Input orientation:
 ---------------------------------------------------------------------
 Center     Atomic      Atomic             Coordinates (Angstroms)
 Number     Number       Type             X           Y           Z
 ---------------------------------------------------------------------
      1          1           0        0.000000    0.000000    0.000000
      2          1           0       -0.750000    0.000000    0.000000
      3          9           0        3.950000    0.000000    0.000000
 ---------------------------------------------------------------------

 SCF Done:  E(UB3LYP) =  -100.933621708     a.u. after   57 cycles

 Alpha  occ. eigenvalues --  -24.76179  -1.22074  -0.55278  -0.46452  -0.46434
 Alpha  occ. eigenvalues --   -0.43197
 Alpha virt. eigenvalues --    0.05721   0.19790   0.46641   0.86093   0.90970
 Alpha virt. eigenvalues --    0.91675   1.01063   1.08495   1.08497   1.54961
 Alpha virt. eigenvalues --    1.82347   1.82349   1.96044   2.37856   3.28167

  Beta  occ. eigenvalues --  -24.73023  -1.12999  -0.43340  -0.43270  -0.43145
  Beta virt. eigenvalues --   -0.25927   0.05726   0.19792   0.46662   0.92471
  Beta virt. eigenvalues --    0.93164   0.95559   1.05201   1.08495   1.08497
  Beta virt. eigenvalues --    1.54963   1.82347   1.82349   1.96050   2.37857

 Mulliken charges and spin densities:
               1          2
     1  H    0.000300  -0.000147
     2  H   -0.001618   0.000007
     3  F    0.001319   1.000141
 Sum of Mulliken charges =   0.00000   1.00000

 Dipole moment (field-independent basis, Debye):
    X=              0.0208    Y=             -0.0000    Z=              0.0000  Tot=              0.0208
 Quadrupole moment (field-independent basis, Debye-Ang):
   XX=             -6.3017   YY=             -6.7803   ZZ=             -6.2556
   XY=             -0.0000   XZ=              0.0000   YZ=             -0.3436

  Exact polarizability:       8.043      -0.000       2.049       0.000      -0.185       2.332
 Approx polarizability:       9.331      -0.000       2.147       0.000      -0.232       2.500

 ******    1 imaginary frequencies (negative Signs) ******

                      1                      2                      3
                      A                      A                      A
 Frequencies --    -60.3910               394.1456               400.3456
 Red. masses --      1.1085                 1.0086                 1.0086
 Frc consts  --      0.0024                 0.0923                 0.0952
 IR Inten    --      0.0442                 0.0003                 0.0001

                      4
                      A
 Frequencies --   4337.3297
 Red. masses --      1.0078
 Frc consts  --     11.1707
 IR Inten    --      0.0213

 - Thermochemistry -
 -------------------
 Temperature   298.150 Kelvin.  Pressure   1.00000 Atm.
 Atom     1 has atomic number  1 and mass   1.00783

 Molecular mass:    21.01405 amu.
 Principal axes and moments of inertia in atomic units:
                           1         2         3
     Eigenvalues --     0.00000 122.74075 122.74075
           X            1.00000  -0.00000   0.00000
           Y            0.00000   1.00000   0.00000
           Z            0.00000   0.00000   1.00000
 This molecule is a prolate symmetric top.
 Rotational symmetry number  1.
 Rotational temperature (Kelvin)      0.70567
 Rotational constant (GHZ):          14.703684
    1 imaginary frequencies ignored.
 Zero-point vibrational energy      30695.1 (Joules/Mol)
                                    7.33631 (Kcal/Mol)
 Warning -- explicit consideration of   2 degrees of freedom as
           vibrations may cause significant error
 Vibrational temperatures:    567.09   576.01  6240.45
          (Kelvin)

 Zero-point correction=                           0.011691 (Hartree/Particle)
 Thermal correction to Energy=                    0.014676
 Thermal correction to Enthalpy=                  0.015620
 Thermal correction to Gibbs Free Energy=        -0.009274
 Sum of electronic and zero-point Energies=           -100.921931
 Sum of electronic and thermal Energies=              -100.918946
 Sum of electronic and thermal Enthalpies=            -100.918002
 Sum of electronic and thermal Free Energies=         -100.942896

                     E (Thermal)             CV                S
                      KCal/Mol        Cal/Mol-Kelvin    Cal/Mol-Kelvin
 Total                    9.209              7.920             52.393
 Electronic               0.000              0.000              1.377
 Translational            0.889              2.981             35.068
 Rotational               0.592              1.987             14.002
 Vibrational              7.728              2.952              1.946
 Vibration     1          0.761              1.483              0.984
 Vibration     2          0.766              1.469              0.961

 Normal termination of Gaussian 16 at Sat Aug 23 01:29:49 2025.
