 Gaussian 16, Revision C.01,
 Gaussian 16:  ES64L-G16RevC.01  3-Jul-2019

 -----------------------------------------
 # sp b3lyp/6-311g** Force nosymm scf=(qc)
 -----------------------------------------

 -------------------
 Title Card Required
 -------------------
 Symbolic Z-matrix:
 Charge =  0 Multiplicity = 2

                          Input orientation:
 ---------------------------------------------------------------------
 Center     Atomic      Atomic             Coordinates (Angstroms)
 Number     Number       Type             X           Y           Z
 ---------------------------------------------------------------------
      1          1           0        0.000000    0.000000    0.000000
      2          1           0       -2.550000    0.000000    0.000000
      3          9           0        2.500000    0.000000    0.000000
 ---------------------------------------------------------------------

 SCF Done:  E(UB3LYP) =  -100.770656773     a.u. after   17 cycles

 Alpha  occ. eigenvalues --  -24.71748  -1.17956  -0.50846  -0.42709  -0.42709
 Alpha  occ. eigenvalues --   -0.33714
 Alpha virt. eigenvalues --   -0.11815   0.24758   0.33256   0.90053   0.93624
 Alpha virt. eigenvalues --    0.93624   1.06577   1.23920   1.23920   1.26590
 Alpha virt. eigenvalues --    1.38182   1.38182   1.43099   2.14859   2.33666

  Beta  occ. eigenvalues --  -24.68905  -1.09866  -0.39876  -0.39876  -0.35316
  Beta virt. eigenvalues --   -0.23378  -0.09392   0.25695   0.34897   0.94989
  Beta virt. eigenvalues --    0.94989   0.96930   1.09378   1.22295   1.22295
  Beta virt. eigenvalues --    1.30230   1.41962   1.41962   1.43426   2.14429

 Mulliken charges and spin densities:
               1          2
     1  H    0.079420  -0.872602
     2  H    0.009742   0.974541
     3  F   -0.089163   0.898060
 Sum of Mulliken charges =  -0.00000   1.00000

 Dipole moment (field-independent basis, Debye):
    X=             -1.2526    Y=             -0.0000    Z=             -0.0000  Tot=              1.2526
 Quadrupole moment (field-independent basis, Debye-Ang):
   XX=             -8.8723   YY=             -7.6074   ZZ=             -7.6074
   XY=             -0.0000   XZ=             -0.0000   YZ=             -0.0000

  Exact polarizability:      42.295      -0.000       2.017      -0.000      -0.000       2.017
 Approx polarizability:      46.130      -0.000       1.918      -0.000       0.000       1.918

 ******    2 imaginary frequencies (negative Signs) ******

                      1                      2                      3
                      A                      A                      A
 Frequencies --   -786.7536              -328.8689               311.8571
 Red. masses --      1.0231                 1.0906                 1.0182
 Frc consts  --      0.3731                 0.0695                 0.0583
 IR Inten    --     57.2053                21.1359                 5.2482

                      4
                      A
 Frequencies --    311.8571
 Red. masses --      1.0182
 Frc consts  --      0.0583
 IR Inten    --      5.2482

 - Thermochemistry -
 -------------------
 Temperature   298.150 Kelvin.  Pressure   1.00000 Atm.
 Atom     1 has atomic number  1 and mass   1.00783

 Molecular mass:    21.01405 amu.
 Principal axes and moments of inertia in atomic units:
                           1         2         3
     Eigenvalues --     0.00000 104.43849 104.43849
           X            1.00000  -0.00000   0.00000
           Y            0.00000   1.00000   0.00000
           Z            0.00000   0.00000   1.00000
 This molecule is a prolate symmetric top.
 Rotational symmetry number  1.
 Rotational temperature (Kelvin)      0.82933
 Rotational constant (GHZ):          17.280422
    2 imaginary frequencies ignored.
 Zero-point vibrational energy       3730.6 (Joules/Mol)
                                    0.89164 (Kcal/Mol)
 Warning -- explicit consideration of   2 degrees of freedom as
           vibrations may cause significant error
 Vibrational temperatures:    448.69   448.69
          (Kelvin)

 Zero-point correction=                           0.001421 (Hartree/Particle)
 Thermal correction to Energy=                    0.004592
 Thermal correction to Enthalpy=                  0.005537
 Thermal correction to Gibbs Free Energy=        -0.019565
 Sum of electronic and zero-point Energies=           -100.769236
 Sum of electronic and thermal Energies=              -100.766064
 Sum of electronic and thermal Enthalpies=            -100.765120
 Sum of electronic and thermal Free Energies=         -100.790222

                     E (Thermal)             CV                S
                      KCal/Mol        Cal/Mol-Kelvin    Cal/Mol-Kelvin
 Total                    2.882              8.270             52.832
 Electronic               0.000              0.000              1.377
 Translational            0.889              2.981             35.068
 Rotational               0.592              1.987             13.681
 Vibrational              1.401              3.302              2.705
 Vibration     1          0.700              1.651              1.352
 Vibration     2          0.700              1.651              1.352

 Normal termination of Gaussian 16 at Fri Aug 22 17:45:19 2025.
