 Gaussian 16, Revision C.01,
 Gaussian 16:  ES64L-G16RevC.01  3-Jul-2019

 -----------------------------------------
 # sp b3lyp/6-311g** Force nosymm scf=(qc)
 -----------------------------------------

 -------------------
 Title Card Required
 -------------------
 Symbolic Z-matrix:
 Charge =  0 Multiplicity = 2

                          Input orientation:
 ---------------------------------------------------------------------
 Center     Atomic      Atomic             Coordinates (Angstroms)
 Number     Number       Type             X           Y           Z
 ---------------------------------------------------------------------
      1          1           0        0.000000    0.000000    0.000000
      2          1           0       -2.300000    0.000000    0.000000
      3          9           0        1.550000    0.000000    0.000000
 ---------------------------------------------------------------------

 SCF Done:  E(UB3LYP) =  -100.847137502     a.u. after    9 cycles

 Alpha  occ. eigenvalues --  -24.64212  -1.09990  -0.43452  -0.36339  -0.36296
 Alpha  occ. eigenvalues --   -0.36296
 Alpha virt. eigenvalues --   -0.13512   0.23405   0.27081   0.94265   0.94265
 Alpha virt. eigenvalues --    1.02229   1.08039   1.21138   1.21138   1.26403
 Alpha virt. eigenvalues --    1.32643   1.32643   1.74952   2.11279   2.22167

  Beta  occ. eigenvalues --  -24.63506  -1.08109  -0.41521  -0.35622  -0.35622
  Beta virt. eigenvalues --   -0.17460  -0.08609   0.25184   0.34221   0.94038
  Beta virt. eigenvalues --    0.94038   1.03813   1.08894   1.29384   1.29384
  Beta virt. eigenvalues --    1.40139   1.40139   1.43144   1.73857   2.15653

 Mulliken charges and spin densities:
               1          2
     1  H    0.313366  -0.184392
     2  H    0.029468   0.962241
     3  F   -0.342834   0.222152
 Sum of Mulliken charges =   0.00000   1.00000

 Dipole moment (field-independent basis, Debye):
    X=             -2.9264    Y=             -0.0000    Z=              0.0000  Tot=              2.9264
 Quadrupole moment (field-independent basis, Debye-Ang):
   XX=             -9.2350   YY=             -7.3501   ZZ=             -7.3501
   XY=             -0.0000   XZ=              0.0000   YZ=              0.0000

  Exact polarizability:      27.644      -0.000       2.187       0.000      -0.000       2.187
 Approx polarizability:      40.307       0.000       2.110      -0.000      -0.000       2.110

 ******    2 imaginary frequencies (negative Signs) ******

                      1                      2                      3
                      A                      A                      A
 Frequencies --  -1824.7459              -342.6526               940.1252
 Red. masses --      1.0459                 1.0658                 1.0234
 Frc consts  --      2.0519                 0.0737                 0.5329
 IR Inten    --      2.9958                 5.4829                80.4593

                      4
                      A
 Frequencies --    940.1252
 Red. masses --      1.0234
 Frc consts  --      0.5329
 IR Inten    --     80.4593

 - Thermochemistry -
 -------------------
 Temperature   298.150 Kelvin.  Pressure   1.00000 Atm.
 Atom     1 has atomic number  1 and mass   1.00783

 Molecular mass:    21.01405 amu.
 Principal axes and moments of inertia in atomic units:
                           1         2         3
     Eigenvalues --     0.00000  56.95970  56.95970
           X            1.00000  -0.00000   0.00000
           Y            0.00000   1.00000   0.00000
           Z            0.00000   0.00000   1.00000
 This molecule is a prolate symmetric top.
 Rotational symmetry number  1.
 Rotational temperature (Kelvin)      1.52062
 Rotational constant (GHZ):          31.684525
    2 imaginary frequencies ignored.
 Zero-point vibrational energy      11246.4 (Joules/Mol)
                                    2.68795 (Kcal/Mol)
 Vibrational temperatures:   1352.63  1352.63
          (Kelvin)

 Zero-point correction=                           0.004284 (Hartree/Particle)
 Thermal correction to Energy=                    0.006737
 Thermal correction to Enthalpy=                  0.007681
 Thermal correction to Gibbs Free Energy=        -0.015677
 Sum of electronic and zero-point Energies=           -100.842854
 Sum of electronic and thermal Energies=              -100.840401
 Sum of electronic and thermal Enthalpies=            -100.839457
 Sum of electronic and thermal Free Energies=         -100.862814

                     E (Thermal)             CV                S
                      KCal/Mol        Cal/Mol-Kelvin    Cal/Mol-Kelvin
 Total                    4.227              5.863             49.160
 Electronic               0.000              0.000              1.377
 Translational            0.889              2.981             35.068
 Rotational               0.592              1.987             12.477
 Vibrational              2.746              0.895              0.238

 Normal termination of Gaussian 16 at Fri Aug 22 16:28:33 2025.
