 Gaussian 16, Revision C.01,
 Gaussian 16:  ES64L-G16RevC.01  3-Jul-2019

 -----------------------------------------
 # sp b3lyp/6-311g** Force nosymm scf=(qc)
 -----------------------------------------

 -------------------
 Title Card Required
 -------------------
 Symbolic Z-matrix:
 Charge =  0 Multiplicity = 2

                          Input orientation:
 ---------------------------------------------------------------------
 Center     Atomic      Atomic             Coordinates (Angstroms)
 Number     Number       Type             X           Y           Z
 ---------------------------------------------------------------------
      1          1           0        0.000000    0.000000    0.000000
      2          1           0       -2.250000    0.000000    0.000000
      3          9           0        3.650000    0.000000    0.000000
 ---------------------------------------------------------------------

 SCF Done:  E(UB3LYP) =  -100.766607782     a.u. after   30 cycles

 Alpha  occ. eigenvalues --  -24.75697  -1.21637  -0.54820  -0.46031  -0.46031
 Alpha  occ. eigenvalues --   -0.32786
 Alpha virt. eigenvalues --   -0.10214   0.25919   0.33620   0.87162   0.91279
 Alpha virt. eigenvalues --    0.91279   1.01428   1.24552   1.25017   1.25017
 Alpha virt. eigenvalues --    1.39774   1.39774   1.44648   2.14487   2.35501

  Beta  occ. eigenvalues --  -24.72566  -1.12636  -0.42892  -0.42892  -0.32935
  Beta virt. eigenvalues --   -0.25665  -0.09928   0.25755   0.34066   0.92774
  Beta virt. eigenvalues --    0.92774   0.96424   1.05512   1.24391   1.24839
  Beta virt. eigenvalues --    1.24839   1.40193   1.40193   1.45010   2.14886

 Mulliken charges and spin densities:
               1          2
     1  H    0.003393  -0.928437
     2  H    0.002916   0.935663
     3  F   -0.006309   0.992773
 Sum of Mulliken charges =   0.00000   1.00000

 Dipole moment (field-independent basis, Debye):
    X=             -0.1493    Y=             -0.0000    Z=              0.0000  Tot=              0.1493
 Quadrupole moment (field-independent basis, Debye-Ang):
   XX=             -6.7439   YY=             -7.6930   ZZ=             -7.6930
   XY=             -0.0000   XZ=             -0.0000   YZ=             -0.0000

  Exact polarizability:      33.473       0.000       2.009       0.000      -0.000       2.009
 Approx polarizability:      25.997      -0.000       1.930      -0.000       0.000       1.930

 ******    2 imaginary frequencies (negative Signs) ******

                      1                      2                      3
                      A                      A                      A
 Frequencies --   -951.5102              -114.6734               364.9496
 Red. masses --      1.0079                 1.1085                 1.0131
 Frc consts  --      0.5376                 0.0086                 0.0795
 IR Inten    --      3.5095                 3.6245                 0.0050

                      4
                      A
 Frequencies --    364.9496
 Red. masses --      1.0131
 Frc consts  --      0.0795
 IR Inten    --      0.0050

 - Thermochemistry -
 -------------------
 Temperature   298.150 Kelvin.  Pressure   1.00000 Atm.
 Atom     1 has atomic number  1 and mass   1.00783

 Molecular mass:    21.01405 amu.
 Principal axes and moments of inertia in atomic units:
                           1         2         3
     Eigenvalues --     0.00000 157.48710 157.48710
           X            1.00000  -0.00000   0.00000
           Y            0.00000   1.00000   0.00000
           Z            0.00000   0.00000   1.00000
 This molecule is a prolate symmetric top.
 Rotational symmetry number  1.
 Rotational temperature (Kelvin)      0.54997
 Rotational constant (GHZ):          11.459613
    2 imaginary frequencies ignored.
 Zero-point vibrational energy       4365.8 (Joules/Mol)
                                    1.04344 (Kcal/Mol)
 Warning -- explicit consideration of   2 degrees of freedom as
           vibrations may cause significant error
 Vibrational temperatures:    525.08   525.08
          (Kelvin)

 Zero-point correction=                           0.001663 (Hartree/Particle)
 Thermal correction to Energy=                    0.004713
 Thermal correction to Enthalpy=                  0.005658
 Thermal correction to Gibbs Free Energy=        -0.019593
 Sum of electronic and zero-point Energies=           -100.764945
 Sum of electronic and thermal Energies=              -100.761894
 Sum of electronic and thermal Enthalpies=            -100.760950
 Sum of electronic and thermal Free Energies=         -100.786201

                     E (Thermal)             CV                S
                      KCal/Mol        Cal/Mol-Kelvin    Cal/Mol-Kelvin
 Total                    2.958              8.057             53.145
 Electronic               0.000              0.000              1.377
 Translational            0.889              2.981             35.068
 Rotational               0.592              1.987             14.498
 Vibrational              1.476              3.089              2.202
 Vibration     1          0.738              1.544              1.101
 Vibration     2          0.738              1.544              1.101

 Normal termination of Gaussian 16 at Fri Aug 22 23:36:10 2025.
