 Gaussian 16, Revision C.01,
 Gaussian 16:  ES64L-G16RevC.01  3-Jul-2019

 -----------------------------------------
 # sp b3lyp/6-311g** Force nosymm scf=(qc)
 -----------------------------------------

 -------------------
 Title Card Required
 -------------------
 Symbolic Z-matrix:
 Charge =  0 Multiplicity = 2

                          Input orientation:
 ---------------------------------------------------------------------
 Center     Atomic      Atomic             Coordinates (Angstroms)
 Number     Number       Type             X           Y           Z
 ---------------------------------------------------------------------
      1          1           0        0.000000    0.000000    0.000000
      2          1           0       -3.550000    0.000000    0.000000
      3          9           0        3.600000    0.000000    0.000000
 ---------------------------------------------------------------------

 SCF Done:  E(UB3LYP) =  -100.758929018     a.u. after   31 cycles

 Alpha  occ. eigenvalues --  -24.75535  -1.21488  -0.54659  -0.45892  -0.45892
 Alpha  occ. eigenvalues --   -0.32310
 Alpha virt. eigenvalues --   -0.06811   0.24278   0.37225   0.87308   0.91388
 Alpha virt. eigenvalues --    0.91388   1.01585   1.25193   1.25193   1.25319
 Alpha virt. eigenvalues --    1.45421   1.45524   1.45524   2.14976   2.41366

  Beta  occ. eigenvalues --  -24.72412  -1.12510  -0.42761  -0.42761  -0.32714
  Beta virt. eigenvalues --   -0.25559  -0.06385   0.24052   0.37995   0.92880
  Beta virt. eigenvalues --    0.92880   0.96510   1.05629   1.24734   1.24734
  Beta virt. eigenvalues --    1.24841   1.45996   1.46220   1.46220   2.15114

 Mulliken charges and spin densities:
               1          2
     1  H    0.008600  -0.988508
     2  H    0.000130   0.998124
     3  F   -0.008730   0.990384
 Sum of Mulliken charges =  -0.00000   1.00000

 Dipole moment (field-independent basis, Debye):
    X=             -0.1640    Y=              0.0000    Z=             -0.0000  Tot=              0.1640
 Quadrupole moment (field-independent basis, Debye-Ang):
   XX=             -7.2641   YY=             -7.6219   ZZ=             -7.6219
   XY=              0.0000   XZ=              0.0000   YZ=              0.0000

  Exact polarizability:      20.819       0.000       2.042       0.000       0.000       2.042
 Approx polarizability:      15.918       0.000       1.934       0.000      -0.000       1.934

 ******    2 imaginary frequencies (negative Signs) ******

                      1                      2                      3
                      A                      A                      A
 Frequencies --   -224.0175               -95.1065                62.2915
 Red. masses --      1.0253                 1.0882                 1.0178
 Frc consts  --      0.0303                 0.0058                 0.0023
 IR Inten    --      7.0512                 1.0259                 0.0584

                      4
                      A
 Frequencies --     62.2916
 Red. masses --      1.0178
 Frc consts  --      0.0023
 IR Inten    --      0.0584

 - Thermochemistry -
 -------------------
 Temperature   298.150 Kelvin.  Pressure   1.00000 Atm.
 Atom     1 has atomic number  1 and mass   1.00783

 Molecular mass:    21.01405 amu.
 Principal axes and moments of inertia in atomic units:
                           1         2         3
     Eigenvalues --     0.00000 210.68658 210.68658
           X            1.00000  -0.00000   0.00000
           Y            0.00000   1.00000   0.00000
           Z            0.00000   0.00000   1.00000
 This molecule is a prolate symmetric top.
 Rotational symmetry number  1.
 Rotational temperature (Kelvin)      0.41110
 Rotational constant (GHZ):           8.566000
    2 imaginary frequencies ignored.
 Zero-point vibrational energy        745.2 (Joules/Mol)
                                    0.17810 (Kcal/Mol)
 Warning -- explicit consideration of   2 degrees of freedom as
           vibrations may cause significant error
 Vibrational temperatures:     89.62    89.62
          (Kelvin)

 Zero-point correction=                           0.000284 (Hartree/Particle)
 Thermal correction to Energy=                    0.004263
 Thermal correction to Enthalpy=                  0.005207
 Thermal correction to Gibbs Free Energy=        -0.023437
 Sum of electronic and zero-point Energies=           -100.758645
 Sum of electronic and thermal Energies=              -100.754666
 Sum of electronic and thermal Enthalpies=            -100.753722
 Sum of electronic and thermal Free Energies=         -100.782367

                     E (Thermal)             CV                S
                      KCal/Mol        Cal/Mol-Kelvin    Cal/Mol-Kelvin
 Total                    2.675              8.913             60.288
 Electronic               0.000              0.000              1.377
 Translational            0.889              2.981             35.068
 Rotational               0.592              1.987             15.076
 Vibrational              1.194              3.945              8.766
 Vibration     1          0.597              1.972              4.383
 Vibration     2          0.597              1.972              4.383

 Normal termination of Gaussian 16 at Fri Aug 22 23:08:01 2025.
