 Gaussian 16, Revision C.01,
 Gaussian 16:  ES64L-G16RevC.01  3-Jul-2019

 -----------------------------------------
 # sp b3lyp/6-311g** Force nosymm scf=(qc)
 -----------------------------------------

 -------------------
 Title Card Required
 -------------------
 Symbolic Z-matrix:
 Charge =  0 Multiplicity = 2

                          Input orientation:
 ---------------------------------------------------------------------
 Center     Atomic      Atomic             Coordinates (Angstroms)
 Number     Number       Type             X           Y           Z
 ---------------------------------------------------------------------
      1          1           0        0.000000    0.000000    0.000000
      2          1           0       -1.000000    0.000000    0.000000
      3          9           0        2.650000    0.000000    0.000000
 ---------------------------------------------------------------------

 SCF Done:  E(UB3LYP) =  -100.907100688     a.u. after    7 cycles

 Alpha  occ. eigenvalues --  -24.75902  -1.21822  -0.55075  -0.46212  -0.46212
 Alpha  occ. eigenvalues --   -0.39586
 Alpha virt. eigenvalues --    0.00166   0.21305   0.39099   0.89854   0.91080
 Alpha virt. eigenvalues --    0.91080   1.08487   1.08487   1.08615   1.36938
 Alpha virt. eigenvalues --    1.65144   1.65144   2.22682   2.36418   2.58529

  Beta  occ. eigenvalues --  -24.72786  -1.12870  -0.43090  -0.43090  -0.39504
  Beta virt. eigenvalues --   -0.26127   0.00529   0.21538   0.39525   0.92557
  Beta virt. eigenvalues --    0.92557   0.98320   1.08632   1.08632   1.12984
  Beta virt. eigenvalues --    1.37139   1.65255   1.65255   2.22915   2.36561

 Mulliken charges and spin densities:
               1          2
     1  H   -0.010537  -0.012332
     2  H    0.016809   0.026221
     3  F   -0.006272   0.986110
 Sum of Mulliken charges =   0.00000   1.00000

 Dipole moment (field-independent basis, Debye):
    X=             -0.1710    Y=              0.0000    Z=              0.0000  Tot=              0.1710
 Quadrupole moment (field-independent basis, Debye-Ang):
   XX=             -5.6922   YY=             -7.2647   ZZ=             -7.2647
   XY=              0.0000   XZ=              0.0000   YZ=              0.0000

  Exact polarizability:      20.126      -0.000       2.069      -0.000      -0.000       2.069
 Approx polarizability:      23.369      -0.000       2.122      -0.000      -0.000       2.122

 ******    1 imaginary frequencies (negative Signs) ******

                      1                      2                      3
                      A                      A                      A
 Frequencies --   -153.2232              1523.9134              1523.9134
 Red. masses --      1.1085                 1.0103                 1.0103
 Frc consts  --      0.0153                 1.3824                 1.3824
 IR Inten    --      5.8726                 0.1956                 0.1956

                      4
                      A
 Frequencies --   1750.2226
 Red. masses --      1.0079
 Frc consts  --      1.8190
 IR Inten    --     55.6170

 - Thermochemistry -
 -------------------
 Temperature   298.150 Kelvin.  Pressure   1.00000 Atm.
 Atom     1 has atomic number  1 and mass   1.00783

 Molecular mass:    21.01405 amu.
 Principal axes and moments of inertia in atomic units:
                           1         2         3
     Eigenvalues --     0.00000  66.37106  66.37106
           X            1.00000  -0.00000   0.00000
           Y            0.00000   1.00000   0.00000
           Z            0.00000   0.00000   1.00000
 This molecule is a prolate symmetric top.
 Rotational symmetry number  1.
 Rotational temperature (Kelvin)      1.30500
 Rotational constant (GHZ):          27.191689
    1 imaginary frequencies ignored.
 Zero-point vibrational energy      28698.7 (Joules/Mol)
                                    6.85916 (Kcal/Mol)
 Vibrational temperatures:   2192.57  2192.57  2518.18
          (Kelvin)

 Zero-point correction=                           0.010931 (Hartree/Particle)
 Thermal correction to Energy=                    0.013302
 Thermal correction to Enthalpy=                  0.014246
 Thermal correction to Gibbs Free Energy=        -0.009155
 Sum of electronic and zero-point Energies=           -100.896170
 Sum of electronic and thermal Energies=              -100.893799
 Sum of electronic and thermal Enthalpies=            -100.892855
 Sum of electronic and thermal Free Energies=         -100.916256

                     E (Thermal)             CV                S
                      KCal/Mol        Cal/Mol-Kelvin    Cal/Mol-Kelvin
 Total                    8.347              5.136             49.251
 Electronic               0.000              0.000              1.377
 Translational            0.889              2.981             35.068
 Rotational               0.592              1.987             12.780
 Vibrational              6.866              0.168              0.025

 Normal termination of Gaussian 16 at Fri Aug 22 18:09:30 2025.
