 Gaussian 16, Revision C.01,
 Gaussian 16:  ES64L-G16RevC.01  3-Jul-2019

 -----------------------------------------
 # sp b3lyp/6-311g** Force nosymm scf=(qc)
 -----------------------------------------

 -------------------
 Title Card Required
 -------------------
 Symbolic Z-matrix:
 Charge =  0 Multiplicity = 2

                          Input orientation:
 ---------------------------------------------------------------------
 Center     Atomic      Atomic             Coordinates (Angstroms)
 Number     Number       Type             X           Y           Z
 ---------------------------------------------------------------------
      1          1           0        0.000000    0.000000    0.000000
      2          1           0       -1.800000    0.000000    0.000000
      3          9           0        0.550000    0.000000    0.000000
 ---------------------------------------------------------------------

 SCF Done:  E(UB3LYP) =  -100.516995906     a.u. after    7 cycles

 Alpha  occ. eigenvalues --  -24.62705  -1.38517  -0.62479  -0.43650  -0.43650
 Alpha  occ. eigenvalues --   -0.35271
 Alpha virt. eigenvalues --    0.12499   0.23337   0.57078   0.91131   0.91131
 Alpha virt. eigenvalues --    0.91674   1.21722   1.21722   1.29543   1.54584
 Alpha virt. eigenvalues --    1.54584   1.61224   2.02559   2.19641   3.67353

  Beta  occ. eigenvalues --  -24.62662  -1.38382  -0.62315  -0.43626  -0.43626
  Beta virt. eigenvalues --   -0.10277   0.13775   0.33502   0.60048   0.91145
  Beta virt. eigenvalues --    0.91145   0.91781   1.37004   1.40970   1.40970
  Beta virt. eigenvalues --    1.55305   1.55305   1.69797   2.05095   2.44956

 Mulliken charges and spin densities:
               1          2
     1  H    0.172910   0.013885
     2  H    0.010761   0.984081
     3  F   -0.183672   0.002035
 Sum of Mulliken charges =   0.00000   1.00000

 Dipole moment (field-independent basis, Debye):
    X=             -1.4187    Y=             -0.0000    Z=             -0.0000  Tot=              1.4187
 Quadrupole moment (field-independent basis, Debye-Ang):
   XX=             -6.6184   YY=             -6.4506   ZZ=             -6.4506
   XY=             -0.0000   XZ=              0.0000   YZ=             -0.0000

  Exact polarizability:       5.665      -0.000       2.478       0.000       0.000       2.478
 Approx polarizability:       5.413      -0.000       2.477      -0.000       0.000       2.477

 ******    2 imaginary frequencies (negative Signs) ******

                      1                      2                      3
                      A                      A                      A
 Frequencies --  -7385.2673             -7385.2673               561.6547
 Red. masses --      1.0359                 1.0359                 1.0533
 Frc consts  --     33.2903                33.2903                 0.1958
 IR Inten    --    208.0702               208.0702                 0.4914

                      4
                      A
 Frequencies --  15777.2011
 Red. masses --      1.0583
 Frc consts  --    155.2026
 IR Inten    --    101.8994

 - Thermochemistry -
 -------------------
 Temperature   298.150 Kelvin.  Pressure   1.00000 Atm.
 Atom     1 has atomic number  1 and mass   1.00783

 Molecular mass:    21.01405 amu.
 Principal axes and moments of inertia in atomic units:
                           1         2         3
     Eigenvalues --     0.00000  19.51260  19.51260
           X            1.00000  -0.00000   0.00000
           Y            0.00000   1.00000   0.00000
           Z            0.00000   0.00000   1.00000
 This molecule is a prolate symmetric top.
 Rotational symmetry number  1.
 Rotational temperature (Kelvin)      4.43887
 Rotational constant (GHZ):          92.491065
    2 imaginary frequencies ignored.
 Zero-point vibrational energy      97728.1 (Joules/Mol)
                                   23.35757 (Kcal/Mol)
 Warning -- explicit consideration of   1 degrees of freedom as
           vibrations may cause significant error
 Vibrational temperatures:    808.10 22699.87
          (Kelvin)

 Zero-point correction=                           0.037223 (Hartree/Particle)
 Thermal correction to Energy=                    0.039765
 Thermal correction to Enthalpy=                  0.040710
 Thermal correction to Gibbs Free Energy=         0.018229
 Sum of electronic and zero-point Energies=           -100.479773
 Sum of electronic and thermal Energies=              -100.477230
 Sum of electronic and thermal Enthalpies=            -100.476286
 Sum of electronic and thermal Free Energies=         -100.498767

                     E (Thermal)             CV                S
                      KCal/Mol        Cal/Mol-Kelvin    Cal/Mol-Kelvin
 Total                   24.953              6.082             47.314
 Electronic               0.000              0.000              1.377
 Translational            0.889              2.981             35.068
 Rotational               0.592              1.987             10.348
 Vibrational             23.472              1.114              0.521
 Vibration     1          0.917              1.114              0.521

 Normal termination of Gaussian 16 at Fri Aug 22 15:39:12 2025.
