 Gaussian 16, Revision C.01,
 Gaussian 16:  ES64L-G16RevC.01  3-Jul-2019

 -----------------------------------------
 # sp b3lyp/6-311g** Force nosymm scf=(qc)
 -----------------------------------------

 -------------------
 Title Card Required
 -------------------
 Symbolic Z-matrix:
 Charge =  0 Multiplicity = 2

                          Input orientation:
 ---------------------------------------------------------------------
 Center     Atomic      Atomic             Coordinates (Angstroms)
 Number     Number       Type             X           Y           Z
 ---------------------------------------------------------------------
      1          1           0        0.000000    0.000000    0.000000
      2          1           0       -1.600000    0.000000    0.000000
      3          9           0        1.150000    0.000000    0.000000
 ---------------------------------------------------------------------

 SCF Done:  E(UB3LYP) =  -100.941659631     a.u. after    6 cycles

 Alpha  occ. eigenvalues --  -24.63445  -1.12573  -0.49753  -0.37417  -0.37138
 Alpha  occ. eigenvalues --   -0.37138
 Alpha virt. eigenvalues --    0.01736   0.21430   0.30045   0.93834   0.93834
 Alpha virt. eigenvalues --    1.00611   1.09223   1.16941   1.16941   1.39034
 Alpha virt. eigenvalues --    1.39034   1.52754   1.85787   2.25678   2.36504

  Beta  occ. eigenvalues --  -24.63084  -1.11665  -0.47554  -0.36811  -0.36811
  Beta virt. eigenvalues --   -0.17139   0.04940   0.26435   0.33271   0.93935
  Beta virt. eigenvalues --    0.93935   1.01470   1.17568   1.28070   1.28070
  Beta virt. eigenvalues --    1.43425   1.43425   1.55715   1.94038   2.31944

 Mulliken charges and spin densities:
               1          2
     1  H    0.311623  -0.020616
     2  H    0.043766   0.916384
     3  F   -0.355390   0.104232
 Sum of Mulliken charges =   0.00000   1.00000

 Dipole moment (field-independent basis, Debye):
    X=             -2.6087    Y=             -0.0000    Z=             -0.0000  Tot=              2.6087
 Quadrupole moment (field-independent basis, Debye-Ang):
   XX=             -7.9308   YY=             -6.9772   ZZ=             -6.9772
   XY=             -0.0000   XZ=             -0.0000   YZ=             -0.0000

  Exact polarizability:      16.965       0.000       2.448      -0.000       0.000       2.448
 Approx polarizability:      20.246       0.000       2.425       0.000       0.000       2.425

 ******    1 imaginary frequencies (negative Signs) ******

                      1                      2                      3
                      A                      A                      A
 Frequencies --   -792.2356              1013.8187              1123.4365
 Red. masses --      1.0116                 1.1040                 1.0224
 Frc consts  --      0.3741                 0.6686                 0.7603
 IR Inten    --     60.7092               128.3809                85.8681

                      4
                      A
 Frequencies --   1123.4365
 Red. masses --      1.0224
 Frc consts  --      0.7603
 IR Inten    --     85.8681

 - Thermochemistry -
 -------------------
 Temperature   298.150 Kelvin.  Pressure   1.00000 Atm.
 Atom     1 has atomic number  1 and mass   1.00783

 Molecular mass:    21.01405 amu.
 Principal axes and moments of inertia in atomic units:
                           1         2         3
     Eigenvalues --     0.00000  29.35184  29.35184
           X            1.00000  -0.00000   0.00000
           Y            0.00000   1.00000   0.00000
           Z            0.00000   0.00000   1.00000
 This molecule is a prolate symmetric top.
 Rotational symmetry number  1.
 Rotational temperature (Kelvin)      2.95089
 Rotational constant (GHZ):          61.486477
    1 imaginary frequencies ignored.
 Zero-point vibrational energy      19503.3 (Joules/Mol)
                                    4.66139 (Kcal/Mol)
 Vibrational temperatures:   1458.66  1616.37  1616.37
          (Kelvin)

 Zero-point correction=                           0.007428 (Hartree/Particle)
 Thermal correction to Energy=                    0.009869
 Thermal correction to Enthalpy=                  0.010813
 Thermal correction to Gibbs Free Energy=        -0.011901
 Sum of electronic and zero-point Energies=           -100.934231
 Sum of electronic and thermal Energies=              -100.931790
 Sum of electronic and thermal Enthalpies=            -100.930846
 Sum of electronic and thermal Free Energies=         -100.953561

                     E (Thermal)             CV                S
                      KCal/Mol        Cal/Mol-Kelvin    Cal/Mol-Kelvin
 Total                    6.193              5.851             47.806
 Electronic               0.000              0.000              1.377
 Translational            0.889              2.981             35.068
 Rotational               0.592              1.987             11.159
 Vibrational              4.712              0.883              0.202

 Normal termination of Gaussian 16 at Fri Aug 22 16:07:27 2025.
