 Gaussian 16, Revision C.01,
 Gaussian 16:  ES64L-G16RevC.01  3-Jul-2019

 -----------------------------------------
 # sp b3lyp/6-311g** Force nosymm scf=(qc)
 -----------------------------------------

 -------------------
 Title Card Required
 -------------------
 Symbolic Z-matrix:
 Charge =  0 Multiplicity = 2

                          Input orientation:
 ---------------------------------------------------------------------
 Center     Atomic      Atomic             Coordinates (Angstroms)
 Number     Number       Type             X           Y           Z
 ---------------------------------------------------------------------
      1          1           0        0.000000    0.000000    0.000000
      2          1           0       -2.900000    0.000000    0.000000
      3          9           0        1.950000    0.000000    0.000000
 ---------------------------------------------------------------------

 SCF Done:  E(UB3LYP) =  -100.791887250     a.u. after   13 cycles

 Alpha  occ. eigenvalues --  -24.67792  -1.14096  -0.46743  -0.39382  -0.39382
 Alpha  occ. eigenvalues --   -0.34177
 Alpha virt. eigenvalues --   -0.14037   0.23032   0.31042   0.89935   0.94916
 Alpha virt. eigenvalues --    0.94916   1.05994   1.23379   1.23379   1.24387
 Alpha virt. eigenvalues --    1.34859   1.34859   1.62919   2.14205   2.28860

  Beta  occ. eigenvalues --  -24.65510  -1.07737  -0.38189  -0.37137  -0.37137
  Beta virt. eigenvalues --   -0.20433  -0.08502   0.23549   0.36382   0.91354
  Beta virt. eigenvalues --    0.95411   0.95411   1.08377   1.22390   1.22390
  Beta virt. eigenvalues --    1.43471   1.43779   1.43779   1.56942   2.12910

 Mulliken charges and spin densities:
               1          2
     1  H    0.200282  -0.706595
     2  H    0.007507   0.989048
     3  F   -0.207789   0.717547
 Sum of Mulliken charges =   0.00000   1.00000

 Dipole moment (field-independent basis, Debye):
    X=             -2.1002    Y=             -0.0000    Z=              0.0000  Tot=              2.1002
 Quadrupole moment (field-independent basis, Debye-Ang):
   XX=             -9.7958   YY=             -7.4917   ZZ=             -7.4917
   XY=              0.0000   XZ=             -0.0000   YZ=             -0.0000

  Exact polarizability:      30.056       0.000       2.068      -0.000      -0.000       2.068
 Approx polarizability:      40.295       0.000       1.956      -0.000       0.000       1.956

 ******    2 imaginary frequencies (negative Signs) ******

                      1                      2                      3
                      A                      A                      A
 Frequencies --  -1234.1090              -245.8615               520.2091
 Red. masses --      1.0536                 1.0579                 1.0234
 Frc consts  --      0.9455                 0.0377                 0.1632
 IR Inten    --    115.3347                 3.4616                35.5782

                      4
                      A
 Frequencies --    520.2091
 Red. masses --      1.0234
 Frc consts  --      0.1632
 IR Inten    --     35.5782

 - Thermochemistry -
 -------------------
 Temperature   298.150 Kelvin.  Pressure   1.00000 Atm.
 Atom     1 has atomic number  1 and mass   1.00783

 Molecular mass:    21.01405 amu.
 Principal axes and moments of inertia in atomic units:
                           1         2         3
     Eigenvalues --     0.00000  90.36156  90.36156
           X            1.00000  -0.00000   0.00000
           Y            0.00000   1.00000   0.00000
           Z            0.00000   0.00000   1.00000
 This molecule is a prolate symmetric top.
 Rotational symmetry number  1.
 Rotational temperature (Kelvin)      0.95853
 Rotational constant (GHZ):          19.972443
    2 imaginary frequencies ignored.
 Zero-point vibrational energy       6223.1 (Joules/Mol)
                                    1.48735 (Kcal/Mol)
 Warning -- explicit consideration of   2 degrees of freedom as
           vibrations may cause significant error
 Vibrational temperatures:    748.46   748.46
          (Kelvin)

 Zero-point correction=                           0.002370 (Hartree/Particle)
 Thermal correction to Energy=                    0.005150
 Thermal correction to Enthalpy=                  0.006094
 Thermal correction to Gibbs Free Energy=        -0.018165
 Sum of electronic and zero-point Energies=           -100.789517
 Sum of electronic and thermal Energies=              -100.786737
 Sum of electronic and thermal Enthalpies=            -100.785793
 Sum of electronic and thermal Free Energies=         -100.810053

                     E (Thermal)             CV                S
                      KCal/Mol        Cal/Mol-Kelvin    Cal/Mol-Kelvin
 Total                    3.232              7.378             51.058
 Electronic               0.000              0.000              1.377
 Translational            0.889              2.981             35.068
 Rotational               0.592              1.987             13.394
 Vibrational              1.750              2.410              1.219
 Vibration     1          0.875              1.205              0.609
 Vibration     2          0.875              1.205              0.609

 Normal termination of Gaussian 16 at Fri Aug 22 16:54:03 2025.
