 Gaussian 16, Revision C.01,
 Gaussian 16:  ES64L-G16RevC.01  3-Jul-2019

 -----------------------------------------
 # sp b3lyp/6-311g** Force nosymm scf=(qc)
 -----------------------------------------

 -------------------
 Title Card Required
 -------------------
 Symbolic Z-matrix:
 Charge =  0 Multiplicity = 2

                          Input orientation:
 ---------------------------------------------------------------------
 Center     Atomic      Atomic             Coordinates (Angstroms)
 Number     Number       Type             X           Y           Z
 ---------------------------------------------------------------------
      1          1           0        0.000000    0.000000    0.000000
      2          1           0       -1.900000    0.000000    0.000000
      3          9           0        2.950000    0.000000    0.000000
 ---------------------------------------------------------------------

 SCF Done:  E(UB3LYP) =  -100.781505359     a.u. after   25 cycles

 Alpha  occ. eigenvalues --  -24.74261  -1.20304  -0.53381  -0.44821  -0.44821
 Alpha  occ. eigenvalues --   -0.33944
 Alpha virt. eigenvalues --   -0.11876   0.25351   0.31341   0.89800   0.92162
 Alpha virt. eigenvalues --    0.92162   1.04224   1.13076   1.23950   1.23950
 Alpha virt. eigenvalues --    1.36338   1.36338   1.54764   2.12700   2.37885

  Beta  occ. eigenvalues --  -24.71230  -1.11614  -0.41787  -0.41787  -0.33979
  Beta virt. eigenvalues --   -0.24974  -0.11363   0.25975   0.31671   0.93622
  Beta virt. eigenvalues --    0.93622   0.98426   1.08001   1.13408   1.23883
  Beta virt. eigenvalues --    1.23883   1.37076   1.37076   1.55364   2.13834

 Mulliken charges and spin densities:
               1          2
     1  H    0.016320  -0.769317
     2  H    0.018124   0.808801
     3  F   -0.034444   0.960515
 Sum of Mulliken charges =  -0.00000   1.00000

 Dipole moment (field-independent basis, Debye):
    X=             -0.6847    Y=             -0.0000    Z=              0.0000  Tot=              0.6847
 Quadrupole moment (field-independent basis, Debye-Ang):
   XX=             -7.2284   YY=             -7.7206   ZZ=             -7.7206
   XY=             -0.0000   XZ=              0.0000   YZ=              0.0000

  Exact polarizability:      60.873      -0.000       2.006       0.000       0.000       2.006
 Approx polarizability:      59.870      -0.000       1.940       0.000      -0.000       1.940

 ******    2 imaginary frequencies (negative Signs) ******

                      1                      2                      3
                      A                      A                      A
 Frequencies --  -1552.1247              -248.5181               648.5071
 Red. masses --      1.0080                 1.1083                 1.0135
 Frc consts  --      1.4307                 0.0403                 0.2511
 IR Inten    --     59.8359                31.0319                 0.0679

                      4
                      A
 Frequencies --    648.5071
 Red. masses --      1.0135
 Frc consts  --      0.2511
 IR Inten    --      0.0679

 - Thermochemistry -
 -------------------
 Temperature   298.150 Kelvin.  Pressure   1.00000 Atm.
 Atom     1 has atomic number  1 and mass   1.00783

 Molecular mass:    21.01405 amu.
 Principal axes and moments of inertia in atomic units:
                           1         2         3
     Eigenvalues --     0.00000 105.47665 105.47665
           X            1.00000  -0.00000   0.00000
           Y            0.00000   1.00000   0.00000
           Z            0.00000   0.00000   1.00000
 This molecule is a prolate symmetric top.
 Rotational symmetry number  1.
 Rotational temperature (Kelvin)      0.82117
 Rotational constant (GHZ):          17.110339
    2 imaginary frequencies ignored.
 Zero-point vibrational energy       7757.9 (Joules/Mol)
                                    1.85417 (Kcal/Mol)
 Vibrational temperatures:    933.06   933.06
          (Kelvin)

 Zero-point correction=                           0.002955 (Hartree/Particle)
 Thermal correction to Energy=                    0.005586
 Thermal correction to Enthalpy=                  0.006530
 Thermal correction to Gibbs Free Energy=        -0.017651
 Sum of electronic and zero-point Energies=           -100.778551
 Sum of electronic and thermal Energies=              -100.775920
 Sum of electronic and thermal Enthalpies=            -100.774976
 Sum of electronic and thermal Free Energies=         -100.799157

                     E (Thermal)             CV                S
                      KCal/Mol        Cal/Mol-Kelvin    Cal/Mol-Kelvin
 Total                    3.505              6.830             50.893
 Electronic               0.000              0.000              1.377
 Translational            0.889              2.981             35.068
 Rotational               0.592              1.987             13.701
 Vibrational              2.024              1.862              0.747

 Normal termination of Gaussian 16 at Fri Aug 22 19:17:12 2025.
