 Gaussian 16, Revision C.01,
 Gaussian 16:  ES64L-G16RevC.01  3-Jul-2019

 -----------------------------------------
 # sp b3lyp/6-311g** Force nosymm scf=(qc)
 -----------------------------------------

 -------------------
 Title Card Required
 -------------------
 Symbolic Z-matrix:
 Charge =  0 Multiplicity = 2

                          Input orientation:
 ---------------------------------------------------------------------
 Center     Atomic      Atomic             Coordinates (Angstroms)
 Number     Number       Type             X           Y           Z
 ---------------------------------------------------------------------
      1          1           0        0.000000    0.000000    0.000000
      2          1           0       -1.000000    0.000000    0.000000
      3          9           0        2.350000    0.000000    0.000000
 ---------------------------------------------------------------------

 SCF Done:  E(UB3LYP) =  -100.907962671     a.u. after    9 cycles

 Alpha  occ. eigenvalues --  -24.75266  -1.21250  -0.54562  -0.45690  -0.45690
 Alpha  occ. eigenvalues --   -0.40099
 Alpha virt. eigenvalues --    0.00325   0.21362   0.39285   0.89325   0.91297
 Alpha virt. eigenvalues --    0.91297   1.07984   1.07984   1.10909   1.39198
 Alpha virt. eigenvalues --    1.64638   1.64638   2.21509   2.35693   2.58470

  Beta  occ. eigenvalues --  -24.72201  -1.12471  -0.42625  -0.42625  -0.39951
  Beta virt. eigenvalues --   -0.25920   0.00979   0.21736   0.39687   0.92738
  Beta virt. eigenvalues --    0.92738   0.97556   1.08347   1.08347   1.14699
  Beta virt. eigenvalues --    1.40160   1.64902   1.64902   2.22024   2.36036

 Mulliken charges and spin densities:
               1          2
     1  H   -0.004920  -0.025786
     2  H    0.026246   0.058343
     3  F   -0.021326   0.967443
 Sum of Mulliken charges =   0.00000   1.00000

 Dipole moment (field-independent basis, Debye):
    X=             -0.3755    Y=              0.0000    Z=              0.0000  Tot=              0.3755
 Quadrupole moment (field-independent basis, Debye-Ang):
   XX=             -5.9692   YY=             -7.2483   ZZ=             -7.2483
   XY=              0.0000   XZ=              0.0000   YZ=             -0.0000

  Exact polarizability:      25.464       0.000       2.060       0.000      -0.000       2.060
 Approx polarizability:      29.760       0.000       2.141      -0.000       0.000       2.141

 ******    1 imaginary frequencies (negative Signs) ******

                      1                      2                      3
                      A                      A                      A
 Frequencies --   -249.2496              1545.3225              1545.3225
 Red. masses --      1.1082                 1.0108                 1.0108
 Frc consts  --      0.0406                 1.4222                 1.4222
 IR Inten    --     27.2220                 0.7597                 0.7597

                      4
                      A
 Frequencies --   1689.1879
 Red. masses --      1.0081
 Frc consts  --      1.6948
 IR Inten    --    196.4997

 - Thermochemistry -
 -------------------
 Temperature   298.150 Kelvin.  Pressure   1.00000 Atm.
 Atom     1 has atomic number  1 and mass   1.00783

 Molecular mass:    21.01405 amu.
 Principal axes and moments of inertia in atomic units:
                           1         2         3
     Eigenvalues --     0.00000  54.65740  54.65740
           X            1.00000  -0.00000   0.00000
           Y            0.00000   1.00000   0.00000
           Z            0.00000   0.00000   1.00000
 This molecule is a prolate symmetric top.
 Rotational symmetry number  1.
 Rotational temperature (Kelvin)      1.58467
 Rotational constant (GHZ):          33.019156
    1 imaginary frequencies ignored.
 Zero-point vibrational energy      28589.7 (Joules/Mol)
                                    6.83311 (Kcal/Mol)
 Vibrational temperatures:   2223.37  2223.37  2430.36
          (Kelvin)

 Zero-point correction=                           0.010889 (Hartree/Particle)
 Thermal correction to Energy=                    0.013260
 Thermal correction to Enthalpy=                  0.014204
 Thermal correction to Gibbs Free Energy=        -0.009013
 Sum of electronic and zero-point Energies=           -100.897073
 Sum of electronic and thermal Energies=              -100.894703
 Sum of electronic and thermal Enthalpies=            -100.893758
 Sum of electronic and thermal Free Energies=         -100.916976

                     E (Thermal)             CV                S
                      KCal/Mol        Cal/Mol-Kelvin    Cal/Mol-Kelvin
 Total                    8.321              5.134             48.865
 Electronic               0.000              0.000              1.377
 Translational            0.889              2.981             35.068
 Rotational               0.592              1.987             12.395
 Vibrational              6.840              0.166              0.025

 Normal termination of Gaussian 16 at Fri Aug 22 17:25:17 2025.
