 Gaussian 16, Revision C.01,
 Gaussian 16:  ES64L-G16RevC.01  3-Jul-2019

 -----------------------------------------
 # sp b3lyp/6-311g** Force nosymm scf=(qc)
 -----------------------------------------

 -------------------
 Title Card Required
 -------------------
 Symbolic Z-matrix:
 Charge =  0 Multiplicity = 2

                          Input orientation:
 ---------------------------------------------------------------------
 Center     Atomic      Atomic             Coordinates (Angstroms)
 Number     Number       Type             X           Y           Z
 ---------------------------------------------------------------------
      1          1           0        0.000000    0.000000    0.000000
      2          1           0       -2.500000    0.000000    0.000000
      3          9           0        0.750000    0.000000    0.000000
 ---------------------------------------------------------------------

 SCF Done:  E(UB3LYP) =  -100.922153147     a.u. after    6 cycles

 Alpha  occ. eigenvalues --  -24.63393  -1.25414  -0.57363  -0.41133  -0.41133
 Alpha  occ. eigenvalues --   -0.34560
 Alpha virt. eigenvalues --    0.07255   0.25446   0.49136   0.93981   0.93981
 Alpha virt. eigenvalues --    0.96398   1.18047   1.22990   1.22990   1.41766
 Alpha virt. eigenvalues --    1.41766   1.42176   2.00237   2.14415   2.67808

  Beta  occ. eigenvalues --  -24.63383  -1.25386  -0.57324  -0.41125  -0.41125
  Beta virt. eigenvalues --   -0.08575   0.08707   0.37825   0.49124   0.93980
  Beta virt. eigenvalues --    0.93980   0.96531   1.28518   1.41747   1.41747
  Beta virt. eigenvalues --    1.45548   1.45548   1.55652   2.00229   2.42628

 Mulliken charges and spin densities:
               1          2
     1  H    0.263062   0.003586
     2  H    0.004859   0.992867
     3  F   -0.267921   0.003547
 Sum of Mulliken charges =   0.00000   1.00000

 Dipole moment (field-independent basis, Debye):
    X=             -1.7192    Y=             -0.0000    Z=             -0.0000  Tot=              1.7192
 Quadrupole moment (field-independent basis, Debye-Ang):
   XX=             -7.2628   YY=             -6.7096   ZZ=             -6.7096
   XY=             -0.0000   XZ=             -0.0000   YZ=              0.0000

  Exact polarizability:       5.879       0.000       2.474      -0.000      -0.000       2.474
 Approx polarizability:       6.093       0.000       2.460       0.000      -0.000       2.460

 ******    2 imaginary frequencies (negative Signs) ******

                      1                      2                      3
                      A                      A                      A
 Frequencies --  -2680.3972             -2680.3972                94.4284
 Red. masses --      1.0362                 1.0362                 1.0532
 Frc consts  --      4.3863                 4.3863                 0.0055
 IR Inten    --    190.0339               190.0339                 0.2968

                      4
                      A
 Frequencies --   7584.8311
 Red. masses --      1.0583
 Frc consts  --     35.8724
 IR Inten    --    125.2721

 - Thermochemistry -
 -------------------
 Temperature   298.150 Kelvin.  Pressure   1.00000 Atm.
 Atom     1 has atomic number  1 and mass   1.00783

 Molecular mass:    21.01405 amu.
 Principal axes and moments of inertia in atomic units:
                           1         2         3
     Eigenvalues --     0.00000  37.27726  37.27726
           X            1.00000  -0.00000   0.00000
           Y            0.00000   1.00000   0.00000
           Z            0.00000   0.00000   1.00000
 This molecule is a prolate symmetric top.
 Rotational symmetry number  1.
 Rotational temperature (Kelvin)      2.32351
 Rotational constant (GHZ):          48.413999
    2 imaginary frequencies ignored.
 Zero-point vibrational energy      45932.2 (Joules/Mol)
                                   10.97805 (Kcal/Mol)
 Warning -- explicit consideration of   1 degrees of freedom as
           vibrations may cause significant error
 Vibrational temperatures:    135.86 10912.88
          (Kelvin)

 Zero-point correction=                           0.017495 (Hartree/Particle)
 Thermal correction to Energy=                    0.020600
 Thermal correction to Enthalpy=                  0.021545
 Thermal correction to Gibbs Free Energy=        -0.002994
 Sum of electronic and zero-point Energies=           -100.904659
 Sum of electronic and thermal Energies=              -100.901553
 Sum of electronic and thermal Enthalpies=            -100.900609
 Sum of electronic and thermal Free Energies=         -100.925147

                     E (Thermal)             CV                S
                      KCal/Mol        Cal/Mol-Kelvin    Cal/Mol-Kelvin
 Total                   12.927              6.921             51.646
 Electronic               0.000              0.000              1.377
 Translational            0.889              2.981             35.068
 Rotational               0.592              1.987             11.634
 Vibrational             11.446              1.953              3.566
 Vibration     1          0.603              1.953              3.566

 Normal termination of Gaussian 16 at Fri Aug 22 15:49:05 2025.
