 Gaussian 16, Revision C.01,
 Gaussian 16:  ES64L-G16RevC.01  3-Jul-2019

 -----------------------------------------
 # sp b3lyp/6-311g** Force nosymm scf=(qc)
 -----------------------------------------

 -------------------
 Title Card Required
 -------------------
 Symbolic Z-matrix:
 Charge =  0 Multiplicity = 2

                          Input orientation:
 ---------------------------------------------------------------------
 Center     Atomic      Atomic             Coordinates (Angstroms)
 Number     Number       Type             X           Y           Z
 ---------------------------------------------------------------------
      1          1           0        0.000000    0.000000    0.000000
      2          1           0       -1.850000    0.000000    0.000000
      3          9           0        1.900000    0.000000    0.000000
 ---------------------------------------------------------------------

 SCF Done:  E(UB3LYP) =  -100.813343619     a.u. after   15 cycles

 Alpha  occ. eigenvalues --  -24.67453  -1.13801  -0.46677  -0.39092  -0.39092
 Alpha  occ. eigenvalues --   -0.37263
 Alpha virt. eigenvalues --   -0.12953   0.23319   0.30278   0.87599   0.94911
 Alpha virt. eigenvalues --    0.94911   1.04012   1.20410   1.20410   1.29593
 Alpha virt. eigenvalues --    1.34124   1.34124   1.67247   2.12446   2.33271

  Beta  occ. eigenvalues --  -24.65199  -1.07532  -0.37928  -0.36878  -0.36878
  Beta virt. eigenvalues --   -0.21469  -0.11074   0.25843   0.30732   0.90268
  Beta virt. eigenvalues --    0.95438   0.95438   1.07900   1.23542   1.23542
  Beta virt. eigenvalues --    1.35283   1.35283   1.37878   1.66465   2.13459

 Mulliken charges and spin densities:
               1          2
     1  H    0.154833  -0.543469
     2  H    0.055550   0.836014
     3  F   -0.210384   0.707455
 Sum of Mulliken charges =  -0.00000   1.00000

 Dipole moment (field-independent basis, Debye):
    X=             -2.4672    Y=              0.0000    Z=             -0.0000  Tot=              2.4672
 Quadrupole moment (field-independent basis, Debye-Ang):
   XX=             -8.5438   YY=             -7.5150   ZZ=             -7.5150
   XY=              0.0000   XZ=             -0.0000   YZ=             -0.0000

  Exact polarizability:      49.226       0.000       2.093      -0.000       0.000       2.093
 Approx polarizability:      63.475       0.000       2.007       0.000       0.000       2.007

 ******    2 imaginary frequencies (negative Signs) ******

                      1                      2                      3
                      A                      A                      A
 Frequencies --  -1851.5749              -608.9709               765.8162
 Red. masses --      1.0188                 1.0955                 1.0176
 Frc consts  --      2.0580                 0.2394                 0.3516
 IR Inten    --    198.3715                23.9562                13.2610

                      4
                      A
 Frequencies --    765.8162
 Red. masses --      1.0176
 Frc consts  --      0.3516
 IR Inten    --     13.2610

 - Thermochemistry -
 -------------------
 Temperature   298.150 Kelvin.  Pressure   1.00000 Atm.
 Atom     1 has atomic number  1 and mass   1.00783

 Molecular mass:    21.01405 amu.
 Principal axes and moments of inertia in atomic units:
                           1         2         3
     Eigenvalues --     0.00000  58.09343  58.09343
           X            1.00000  -0.00000   0.00000
           Y            0.00000   1.00000   0.00000
           Z            0.00000   0.00000   1.00000
 This molecule is a prolate symmetric top.
 Rotational symmetry number  1.
 Rotational temperature (Kelvin)      1.49094
 Rotational constant (GHZ):          31.066182
    2 imaginary frequencies ignored.
 Zero-point vibrational energy       9161.2 (Joules/Mol)
                                    2.18958 (Kcal/Mol)
 Vibrational temperatures:   1101.84  1101.84
          (Kelvin)

 Zero-point correction=                           0.003489 (Hartree/Particle)
 Thermal correction to Energy=                    0.006027
 Thermal correction to Enthalpy=                  0.006972
 Thermal correction to Gibbs Free Energy=        -0.016517
 Sum of electronic and zero-point Energies=           -100.809854
 Sum of electronic and thermal Energies=              -100.807316
 Sum of electronic and thermal Enthalpies=            -100.806372
 Sum of electronic and thermal Free Energies=         -100.829860

                     E (Thermal)             CV                S
                      KCal/Mol        Cal/Mol-Kelvin    Cal/Mol-Kelvin
 Total                    3.782              6.385             49.435
 Electronic               0.000              0.000              1.377
 Translational            0.889              2.981             35.068
 Rotational               0.592              1.987             12.516
 Vibrational              2.301              1.417              0.474

 Normal termination of Gaussian 16 at Fri Aug 22 16:49:54 2025.
