 Gaussian 16, Revision C.01,
 Gaussian 16:  ES64L-G16RevC.01  3-Jul-2019

 -----------------------------------------
 # sp b3lyp/6-311g** Force nosymm scf=(qc)
 -----------------------------------------

 -------------------
 Title Card Required
 -------------------
 Symbolic Z-matrix:
 Charge =  0 Multiplicity = 2

                          Input orientation:
 ---------------------------------------------------------------------
 Center     Atomic      Atomic             Coordinates (Angstroms)
 Number     Number       Type             X           Y           Z
 ---------------------------------------------------------------------
      1          1           0        0.000000    0.000000    0.000000
      2          1           0       -0.950000    0.000000    0.000000
      3          9           0        3.600000    0.000000    0.000000
 ---------------------------------------------------------------------

 SCF Done:  E(UB3LYP) =  -100.914917294     a.u. after  431 cycles

 Alpha  occ. eigenvalues --  -24.76314  -1.22189  -0.55389  -0.46578  -0.46544
 Alpha  occ. eigenvalues --   -0.39595
 Alpha virt. eigenvalues --    0.01521   0.21100   0.40043   0.86005   0.90881
 Alpha virt. eigenvalues --    0.92226   1.01426   1.08726   1.08728   1.41625
 Alpha virt. eigenvalues --    1.69045   1.69048   2.21169   2.36897   2.64734

  Beta  occ. eigenvalues --  -24.73158  -1.13112  -0.43416  -0.43379  -0.39591
  Beta virt. eigenvalues --   -0.26032   0.01529   0.21107   0.40079   0.92381
  Beta virt. eigenvalues --    0.93730   0.95469   1.05529   1.08725   1.08728
  Beta virt. eigenvalues --    1.41630   1.69045   1.69048   2.21178   2.36899

 Mulliken charges and spin densities:
               1          2
     1  H   -0.000258  -0.000256
     2  H   -0.002522  -0.000059
     3  F    0.002780   1.000315
 Sum of Mulliken charges =   0.00000   1.00000

 Dipole moment (field-independent basis, Debye):
    X=              0.0397    Y=             -0.0000    Z=              0.0000  Tot=              0.0397
 Quadrupole moment (field-independent basis, Debye-Ang):
   XX=             -6.2686   YY=             -6.3497   ZZ=             -7.2139
   XY=              0.0000   XZ=             -0.0000   YZ=             -0.0076

  Exact polarizability:      11.262       0.000       2.508       0.000      -0.004       2.043
 Approx polarizability:      14.376       0.000       2.682      -0.000      -0.005       2.100

 ******    1 imaginary frequencies (negative Signs) ******

                      1                      2                      3
                      A                      A                      A
 Frequencies --    -48.3425              1517.1573              1517.8427
 Red. masses --      1.1085                 1.0092                 1.0092
 Frc consts  --      0.0015                 1.3686                 1.3699
 IR Inten    --      0.1155                 0.0001                 0.0001

                      4
                      A
 Frequencies --   2199.9223
 Red. masses --      1.0078
 Frc consts  --      2.8738
 IR Inten    --      0.0923

 - Thermochemistry -
 -------------------
 Temperature   298.150 Kelvin.  Pressure   1.00000 Atm.
 Atom     1 has atomic number  1 and mass   1.00783

 Molecular mass:    21.01405 amu.
 Principal axes and moments of inertia in atomic units:
                           1         2         3
     Eigenvalues --     0.00000 109.68664 109.68664
           X            1.00000  -0.00000   0.00000
           Y            0.00000   1.00000   0.00000
           Z            0.00000   0.00000   1.00000
 This molecule is a prolate symmetric top.
 Rotational symmetry number  1.
 Rotational temperature (Kelvin)      0.78965
 Rotational constant (GHZ):          16.453610
    1 imaginary frequencies ignored.
 Zero-point vibrational energy      31311.8 (Joules/Mol)
                                    7.48370 (Kcal/Mol)
 Vibrational temperatures:   2182.85  2183.84  3165.20
          (Kelvin)

 Zero-point correction=                           0.011926 (Hartree/Particle)
 Thermal correction to Energy=                    0.014296
 Thermal correction to Enthalpy=                  0.015240
 Thermal correction to Gibbs Free Energy=        -0.008634
 Sum of electronic and zero-point Energies=           -100.902991
 Sum of electronic and thermal Energies=              -100.900621
 Sum of electronic and thermal Enthalpies=            -100.899677
 Sum of electronic and thermal Free Energies=         -100.923551

                     E (Thermal)             CV                S
                      KCal/Mol        Cal/Mol-Kelvin    Cal/Mol-Kelvin
 Total                    8.971              5.114             50.247
 Electronic               0.000              0.000              1.377
 Translational            0.889              2.981             35.068
 Rotational               0.592              1.987             13.779
 Vibrational              7.490              0.146              0.022

 Normal termination of Gaussian 16 at Fri Aug 22 22:50:01 2025.
