 Gaussian 16, Revision C.01,
 Gaussian 16:  ES64L-G16RevC.01  3-Jul-2019

 -----------------------------------------
 # sp b3lyp/6-311g** Force nosymm scf=(qc)
 -----------------------------------------

 -------------------
 Title Card Required
 -------------------
 Symbolic Z-matrix:
 Charge =  0 Multiplicity = 2

                          Input orientation:
 ---------------------------------------------------------------------
 Center     Atomic      Atomic             Coordinates (Angstroms)
 Number     Number       Type             X           Y           Z
 ---------------------------------------------------------------------
      1          1           0        0.000000    0.000000    0.000000
      2          1           0       -1.050000    0.000000    0.000000
      3          9           0        3.950000    0.000000    0.000000
 ---------------------------------------------------------------------

 SCF Done:  E(UB3LYP) =  -100.898335581     a.u. after   66 cycles

 Alpha  occ. eigenvalues --  -24.76200  -1.22099  -0.55303  -0.46477  -0.46459
 Alpha  occ. eigenvalues --   -0.38184
 Alpha virt. eigenvalues --   -0.00774   0.21781   0.37468   0.86065   0.90942
 Alpha virt. eigenvalues --    0.91432   1.00941   1.09916   1.09917   1.33593
 Alpha virt. eigenvalues --    1.62823   1.62825   2.19586   2.35105   2.56156

  Beta  occ. eigenvalues --  -24.73044  -1.13026  -0.43314  -0.43296  -0.38183
  Beta virt. eigenvalues --   -0.25953  -0.00772   0.21784   0.37481   0.92442
  Beta virt. eigenvalues --    0.92925   0.95531   1.05089   1.09916   1.09917
  Beta virt. eigenvalues --    1.33595   1.62823   1.62825   2.19589   2.35105

 Mulliken charges and spin densities:
               1          2
     1  H    0.000844  -0.000084
     2  H   -0.001852  -0.000026
     3  F    0.001008   1.000109
 Sum of Mulliken charges =   0.00000   1.00000

 Dipole moment (field-independent basis, Debye):
    X=              0.0204    Y=              0.0000    Z=              0.0000  Tot=              0.0204
 Quadrupole moment (field-independent basis, Debye-Ang):
   XX=             -6.3451   YY=             -6.8958   ZZ=             -6.9004
   XY=             -0.0000   XZ=             -0.0000   YZ=              0.4323

  Exact polarizability:      12.832      -0.000       2.302      -0.000       0.233       2.299
 Approx polarizability:      17.524      -0.000       2.405      -0.000       0.291       2.401

 ******    1 imaginary frequencies (negative Signs) ******

                      1                      2                      3
                      A                      A                      A
 Frequencies --    -60.8314              1410.7486              1544.8547
 Red. masses --      1.1085                 1.0078                 1.0092
 Frc consts  --      0.0024                 1.1818                 1.4191
 IR Inten    --      0.0398                 0.0450                 0.0008

                      4
                      A
 Frequencies --   1544.8999
 Red. masses --      1.0092
 Frc consts  --      1.4191
 IR Inten    --      0.0006

 - Thermochemistry -
 -------------------
 Temperature   298.150 Kelvin.  Pressure   1.00000 Atm.
 Atom     1 has atomic number  1 and mass   1.00783

 Molecular mass:    21.01405 amu.
 Principal axes and moments of inertia in atomic units:
                           1         2         3
     Eigenvalues --     0.00000 132.30250 132.30250
           X            1.00000  -0.00000   0.00000
           Y            0.00000   1.00000   0.00000
           Z            0.00000   0.00000   1.00000
 This molecule is a prolate symmetric top.
 Rotational symmetry number  1.
 Rotational temperature (Kelvin)      0.65467
 Rotational constant (GHZ):          13.641021
    1 imaginary frequencies ignored.
 Zero-point vibrational energy      26919.0 (Joules/Mol)
                                    6.43379 (Kcal/Mol)
 Vibrational temperatures:   2029.75  2222.70  2222.77
          (Kelvin)

 Zero-point correction=                           0.010253 (Hartree/Particle)
 Thermal correction to Energy=                    0.012629
 Thermal correction to Enthalpy=                  0.013573
 Thermal correction to Gibbs Free Energy=        -0.010485
 Sum of electronic and zero-point Energies=           -100.888083
 Sum of electronic and thermal Energies=              -100.885707
 Sum of electronic and thermal Enthalpies=            -100.884763
 Sum of electronic and thermal Free Energies=         -100.908820

                     E (Thermal)             CV                S
                      KCal/Mol        Cal/Mol-Kelvin    Cal/Mol-Kelvin
 Total                    7.925              5.198             50.633
 Electronic               0.000              0.000              1.377
 Translational            0.889              2.981             35.068
 Rotational               0.592              1.987             14.151
 Vibrational              6.443              0.230              0.037

 Normal termination of Gaussian 16 at Sat Aug 23 01:31:02 2025.
