 Gaussian 16, Revision C.01,
 Gaussian 16:  ES64L-G16RevC.01  3-Jul-2019

 -----------------------------------------
 # sp b3lyp/6-311g** Force nosymm scf=(qc)
 -----------------------------------------

 -------------------
 Title Card Required
 -------------------
 Symbolic Z-matrix:
 Charge =  0 Multiplicity = 2

                          Input orientation:
 ---------------------------------------------------------------------
 Center     Atomic      Atomic             Coordinates (Angstroms)
 Number     Number       Type             X           Y           Z
 ---------------------------------------------------------------------
      1          1           0        0.000000    0.000000    0.000000
      2          1           0       -0.700000    0.000000    0.000000
      3          9           0        2.850000    0.000000    0.000000
 ---------------------------------------------------------------------

 SCF Done:  E(UB3LYP) =  -100.933091988     a.u. after   45 cycles

 Alpha  occ. eigenvalues --  -24.76689  -1.22480  -0.55669  -0.47017  -0.46817
 Alpha  occ. eigenvalues --   -0.43924
 Alpha virt. eigenvalues --    0.07246   0.19796   0.49107   0.85809   0.90680
 Alpha virt. eigenvalues --    0.93874   1.08043   1.09105   1.09115   1.57951
 Alpha virt. eigenvalues --    1.86010   1.86021   1.91568   2.38962   3.57134

  Beta  occ. eigenvalues --  -24.73526  -1.13390  -0.44535  -0.43646  -0.43232
  Beta virt. eigenvalues --   -0.26287   0.07306   0.19835   0.49219   0.92178
  Beta virt. eigenvalues --    0.95264   0.95783   1.09106   1.09114   1.11598
  Beta virt. eigenvalues --    1.57963   1.86009   1.86020   1.91598   2.38970

 Mulliken charges and spin densities:
               1          2
     1  H   -0.007322  -0.001579
     2  H   -0.004132  -0.000022
     3  F    0.011454   1.001600
 Sum of Mulliken charges =   0.00000   1.00000

 Dipole moment (field-independent basis, Debye):
    X=              0.1085    Y=             -0.0000    Z=             -0.0000  Tot=              0.1085
 Quadrupole moment (field-independent basis, Debye-Ang):
   XX=             -6.0335   YY=             -6.4597   ZZ=             -6.4601
   XY=              0.0000   XZ=              0.0000   YZ=              0.4317

  Exact polarizability:       8.098       0.000       2.168       0.000       0.228       2.168
 Approx polarizability:       9.008       0.000       2.308       0.000       0.287       2.307

 ******    2 imaginary frequencies (negative Signs) ******

                      1                      2                      3
                      A                      A                      A
 Frequencies --  -1162.3692             -1162.2866                89.2539
 Red. masses --      1.0090                 1.0090                 1.1085
 Frc consts  --      0.8032                 0.8031                 0.0052
 IR Inten    --      0.0194                 0.0218                 0.2713

                      4
                      A
 Frequencies --   5088.1755
 Red. masses --      1.0078
 Frc consts  --     15.3730
 IR Inten    --      0.6958

 - Thermochemistry -
 -------------------
 Temperature   298.150 Kelvin.  Pressure   1.00000 Atm.
 Atom     1 has atomic number  1 and mass   1.00783

 Molecular mass:    21.01405 amu.
 Principal axes and moments of inertia in atomic units:
                           1         2         3
     Eigenvalues --     0.00000  67.51947  67.51947
           X            1.00000  -0.00000   0.00000
           Y            0.00000   1.00000   0.00000
           Z            0.00000   0.00000   1.00000
 This molecule is a prolate symmetric top.
 Rotational symmetry number  1.
 Rotational temperature (Kelvin)      1.28280
 Rotational constant (GHZ):          26.729196
    2 imaginary frequencies ignored.
 Zero-point vibrational energy      30967.9 (Joules/Mol)
                                    7.40151 (Kcal/Mol)
 Warning -- explicit consideration of   1 degrees of freedom as
           vibrations may cause significant error
 Vibrational temperatures:    128.42  7320.75
          (Kelvin)

 Zero-point correction=                           0.011795 (Hartree/Particle)
 Thermal correction to Energy=                    0.014911
 Thermal correction to Enthalpy=                  0.015855
 Thermal correction to Gibbs Free Energy=        -0.009297
 Sum of electronic and zero-point Energies=           -100.921297
 Sum of electronic and thermal Energies=              -100.918181
 Sum of electronic and thermal Enthalpies=            -100.917237
 Sum of electronic and thermal Free Energies=         -100.942389

                     E (Thermal)             CV                S
                      KCal/Mol        Cal/Mol-Kelvin    Cal/Mol-Kelvin
 Total                    9.357              6.925             52.936
 Electronic               0.000              0.000              1.377
 Translational            0.889              2.981             35.068
 Rotational               0.592              1.987             12.815
 Vibrational              7.876              1.957              3.676
 Vibration     1          0.602              1.957              3.676

 Normal termination of Gaussian 16 at Fri Aug 22 18:46:35 2025.
