 Gaussian 16, Revision C.01,
 Gaussian 16:  ES64L-G16RevC.01  3-Jul-2019

 -----------------------------------------
 # sp b3lyp/6-311g** Force nosymm scf=(qc)
 -----------------------------------------

 -------------------
 Title Card Required
 -------------------
 Symbolic Z-matrix:
 Charge =  0 Multiplicity = 2

                          Input orientation:
 ---------------------------------------------------------------------
 Center     Atomic      Atomic             Coordinates (Angstroms)
 Number     Number       Type             X           Y           Z
 ---------------------------------------------------------------------
      1          1           0        0.000000    0.000000    0.000000
      2          1           0       -2.450000    0.000000    0.000000
      3          9           0        2.650000    0.000000    0.000000
 ---------------------------------------------------------------------

 SCF Done:  E(UB3LYP) =  -100.768997565     a.u. after   18 cycles

 Alpha  occ. eigenvalues --  -24.72602  -1.18758  -0.51709  -0.43425  -0.43425
 Alpha  occ. eigenvalues --   -0.33615
 Alpha virt. eigenvalues --   -0.11563   0.25045   0.33199   0.90301   0.93155
 Alpha virt. eigenvalues --    0.93155   1.06065   1.24060   1.24060   1.26650
 Alpha virt. eigenvalues --    1.38274   1.38274   1.41679   2.14703   2.34541

  Beta  occ. eigenvalues --  -24.69687  -1.10437  -0.40514  -0.40514  -0.34765
  Beta virt. eigenvalues --   -0.23921  -0.09685   0.25853   0.34510   0.94569
  Beta virt. eigenvalues --    0.94569   0.98183   1.09482   1.22786   1.22786
  Beta virt. eigenvalues --    1.27129   1.41300   1.41300   1.43389   2.15035

 Mulliken charges and spin densities:
               1          2
     1  H    0.058602  -0.888311
     2  H    0.010292   0.966139
     3  F   -0.068894   0.922172
 Sum of Mulliken charges =  -0.00000   1.00000

 Dipole moment (field-independent basis, Debye):
    X=             -1.0532    Y=             -0.0000    Z=             -0.0000  Tot=              1.0532
 Quadrupole moment (field-independent basis, Debye-Ang):
   XX=             -8.5288   YY=             -7.6318   ZZ=             -7.6318
   XY=             -0.0000   XZ=             -0.0000   YZ=              0.0000

  Exact polarizability:      45.967      -0.000       2.012      -0.000      -0.000       2.012
 Approx polarizability:      46.821      -0.000       1.918      -0.000       0.000       1.918

 ******    2 imaginary frequencies (negative Signs) ******

                      1                      2                      3
                      A                      A                      A
 Frequencies --   -805.8431              -317.1390               312.3050
 Red. masses --      1.0142                 1.1009                 1.0170
 Frc consts  --      0.3880                 0.0652                 0.0584
 IR Inten    --     40.8378                27.8314                 2.7114

                      4
                      A
 Frequencies --    312.3050
 Red. masses --      1.0170
 Frc consts  --      0.0584
 IR Inten    --      2.7114

 - Thermochemistry -
 -------------------
 Temperature   298.150 Kelvin.  Pressure   1.00000 Atm.
 Atom     1 has atomic number  1 and mass   1.00783

 Molecular mass:    21.01405 amu.
 Principal axes and moments of inertia in atomic units:
                           1         2         3
     Eigenvalues --     0.00000 108.51705 108.51705
           X            1.00000  -0.00000   0.00000
           Y            0.00000   1.00000   0.00000
           Z            0.00000   0.00000   1.00000
 This molecule is a prolate symmetric top.
 Rotational symmetry number  1.
 Rotational temperature (Kelvin)      0.79816
 Rotational constant (GHZ):          16.630947
    2 imaginary frequencies ignored.
 Zero-point vibrational energy       3736.0 (Joules/Mol)
                                    0.89292 (Kcal/Mol)
 Warning -- explicit consideration of   2 degrees of freedom as
           vibrations may cause significant error
 Vibrational temperatures:    449.34   449.34
          (Kelvin)

 Zero-point correction=                           0.001423 (Hartree/Particle)
 Thermal correction to Energy=                    0.004593
 Thermal correction to Enthalpy=                  0.005538
 Thermal correction to Gibbs Free Energy=        -0.019598
 Sum of electronic and zero-point Energies=           -100.767575
 Sum of electronic and thermal Energies=              -100.764404
 Sum of electronic and thermal Enthalpies=            -100.763460
 Sum of electronic and thermal Free Energies=         -100.788596

                     E (Thermal)             CV                S
                      KCal/Mol        Cal/Mol-Kelvin    Cal/Mol-Kelvin
 Total                    2.882              8.268             52.903
 Electronic               0.000              0.000              1.377
 Translational            0.889              2.981             35.068
 Rotational               0.592              1.987             13.758
 Vibrational              1.401              3.300              2.700
 Vibration     1          0.701              1.650              1.350
 Vibration     2          0.701              1.650              1.350

 Normal termination of Gaussian 16 at Fri Aug 22 18:14:47 2025.
