 Gaussian 16, Revision C.01,
 Gaussian 16:  ES64L-G16RevC.01  3-Jul-2019

 -----------------------------------------
 # sp b3lyp/6-311g** Force nosymm scf=(qc)
 -----------------------------------------

 -------------------
 Title Card Required
 -------------------
 Symbolic Z-matrix:
 Charge =  0 Multiplicity = 2

                          Input orientation:
 ---------------------------------------------------------------------
 Center     Atomic      Atomic             Coordinates (Angstroms)
 Number     Number       Type             X           Y           Z
 ---------------------------------------------------------------------
      1          1           0        0.000000    0.000000    0.000000
      2          1           0       -2.350000    0.000000    0.000000
      3          9           0        1.500000    0.000000    0.000000
 ---------------------------------------------------------------------

 SCF Done:  E(UB3LYP) =  -100.856961250     a.u. after    8 cycles

 Alpha  occ. eigenvalues --  -24.64020  -1.09740  -0.43542  -0.36187  -0.36187
 Alpha  occ. eigenvalues --   -0.36125
 Alpha virt. eigenvalues --   -0.13003   0.23373   0.26751   0.93950   0.93950
 Alpha virt. eigenvalues --    1.03359   1.09805   1.21319   1.21319   1.26089
 Alpha virt. eigenvalues --    1.32442   1.32442   1.74594   2.11695   2.21392

  Beta  occ. eigenvalues --  -24.63624  -1.08694  -0.42371  -0.35812  -0.35812
  Beta virt. eigenvalues --   -0.16517  -0.07883   0.25454   0.34751   0.93819
  Beta virt. eigenvalues --    0.93819   1.04351   1.10802   1.30726   1.30726
  Beta virt. eigenvalues --    1.40961   1.40961   1.43464   1.74180   2.17567

 Mulliken charges and spin densities:
               1          2
     1  H    0.327652  -0.093468
     2  H    0.025287   0.969198
     3  F   -0.352940   0.124271
 Sum of Mulliken charges =   0.00000   1.00000

 Dipole moment (field-independent basis, Debye):
    X=             -2.8852    Y=             -0.0000    Z=             -0.0000  Tot=              2.8852
 Quadrupole moment (field-independent basis, Debye-Ang):
   XX=             -9.2114   YY=             -7.3207   ZZ=             -7.3207
   XY=             -0.0000   XZ=             -0.0000   YZ=              0.0000

  Exact polarizability:      23.859      -0.000       2.208       0.000      -0.000       2.208
 Approx polarizability:      36.296       0.000       2.137      -0.000      -0.000       2.137

 ******    2 imaginary frequencies (negative Signs) ******

                      1                      2                      3
                      A                      A                      A
 Frequencies --  -1516.9766              -291.9822               988.4230
 Red. masses --      1.0453                 1.0665                 1.0242
 Frc consts  --      1.4172                 0.0536                 0.5895
 IR Inten    --     82.5084                 2.6474                90.9008

                      4
                      A
 Frequencies --    988.4230
 Red. masses --      1.0242
 Frc consts  --      0.5895
 IR Inten    --     90.9008

 - Thermochemistry -
 -------------------
 Temperature   298.150 Kelvin.  Pressure   1.00000 Atm.
 Atom     1 has atomic number  1 and mass   1.00783

 Molecular mass:    21.01405 amu.
 Principal axes and moments of inertia in atomic units:
                           1         2         3
     Eigenvalues --     0.00000  56.50363  56.50363
           X            1.00000  -0.00000   0.00000
           Y            0.00000   1.00000   0.00000
           Z            0.00000   0.00000   1.00000
 This molecule is a prolate symmetric top.
 Rotational symmetry number  1.
 Rotational temperature (Kelvin)      1.53289
 Rotational constant (GHZ):          31.940269
    2 imaginary frequencies ignored.
 Zero-point vibrational energy      11824.2 (Joules/Mol)
                                    2.82604 (Kcal/Mol)
 Vibrational temperatures:   1422.12  1422.12
          (Kelvin)

 Zero-point correction=                           0.004504 (Hartree/Particle)
 Thermal correction to Energy=                    0.006941
 Thermal correction to Enthalpy=                  0.007885
 Thermal correction to Gibbs Free Energy=        -0.015445
 Sum of electronic and zero-point Energies=           -100.852458
 Sum of electronic and thermal Energies=              -100.850020
 Sum of electronic and thermal Enthalpies=            -100.849076
 Sum of electronic and thermal Free Energies=         -100.872406

                     E (Thermal)             CV                S
                      KCal/Mol        Cal/Mol-Kelvin    Cal/Mol-Kelvin
 Total                    4.356              5.748             49.102
 Electronic               0.000              0.000              1.377
 Translational            0.889              2.981             35.068
 Rotational               0.592              1.987             12.461
 Vibrational              2.874              0.780              0.196

 Normal termination of Gaussian 16 at Fri Aug 22 16:25:49 2025.
