 Gaussian 16, Revision C.01,
 Gaussian 16:  ES64L-G16RevC.01  3-Jul-2019

 -----------------------------------------
 # sp b3lyp/6-311g** Force nosymm scf=(qc)
 -----------------------------------------

 -------------------
 Title Card Required
 -------------------
 Symbolic Z-matrix:
 Charge =  0 Multiplicity = 2

                          Input orientation:
 ---------------------------------------------------------------------
 Center     Atomic      Atomic             Coordinates (Angstroms)
 Number     Number       Type             X           Y           Z
 ---------------------------------------------------------------------
      1          1           0        0.000000    0.000000    0.000000
      2          1           0       -0.850000    0.000000    0.000000
      3          9           0        2.250000    0.000000    0.000000
 ---------------------------------------------------------------------

 SCF Done:  E(UB3LYP) =  -100.928522518     a.u. after    7 cycles

 Alpha  occ. eigenvalues --  -24.75419  -1.21399  -0.54819  -0.45820  -0.45820
 Alpha  occ. eigenvalues --   -0.42418
 Alpha virt. eigenvalues --    0.04202   0.20639   0.43417   0.89677   0.91075
 Alpha virt. eigenvalues --    0.91075   1.07100   1.07100   1.12712   1.51143
 Alpha virt. eigenvalues --    1.74414   1.74414   2.11353   2.38155   2.86752

  Beta  occ. eigenvalues --  -24.72344  -1.12594  -0.42745  -0.42745  -0.42386
  Beta virt. eigenvalues --   -0.25958   0.04874   0.21053   0.43729   0.92509
  Beta virt. eigenvalues --    0.92509   0.97911   1.07472   1.07472   1.16569
  Beta virt. eigenvalues --    1.51993   1.74644   1.74644   2.11735   2.38541

 Mulliken charges and spin densities:
               1          2
     1  H   -0.007030  -0.019664
     2  H    0.025534   0.050018
     3  F   -0.018504   0.969646
 Sum of Mulliken charges =   0.00000   1.00000

 Dipole moment (field-independent basis, Debye):
    X=             -0.3079    Y=              0.0000    Z=             -0.0000  Tot=              0.3079
 Quadrupole moment (field-independent basis, Debye-Ang):
   XX=             -5.8750   YY=             -7.0642   ZZ=             -7.0642
   XY=              0.0000   XZ=             -0.0000   YZ=             -0.0000

  Exact polarizability:      19.135       0.000       2.163      -0.000       0.000       2.163
 Approx polarizability:      21.278       0.000       2.128       0.000       0.000       2.128

 ******    1 imaginary frequencies (negative Signs) ******

                      1                      2                      3
                      A                      A                      A
 Frequencies --   -204.9537               901.3769               901.3769
 Red. masses --      1.1085                 1.0103                 1.0103
 Frc consts  --      0.0274                 0.4836                 0.4836
 IR Inten    --     16.7371                 1.3103                 1.3103

                      4
                      A
 Frequencies --   3073.9384
 Red. masses --      1.0078
 Frc consts  --      5.6109
 IR Inten    --    153.9072

 - Thermochemistry -
 -------------------
 Temperature   298.150 Kelvin.  Pressure   1.00000 Atm.
 Atom     1 has atomic number  1 and mass   1.00783

 Molecular mass:    21.01405 amu.
 Principal axes and moments of inertia in atomic units:
                           1         2         3
     Eigenvalues --     0.00000  47.86601  47.86601
           X            1.00000  -0.00000   0.00000
           Y            0.00000   1.00000   0.00000
           Z            0.00000   0.00000   1.00000
 This molecule is a prolate symmetric top.
 Rotational symmetry number  1.
 Rotational temperature (Kelvin)      1.80951
 Rotational constant (GHZ):          37.704023
    1 imaginary frequencies ignored.
 Zero-point vibrational energy      29169.1 (Joules/Mol)
                                    6.97158 (Kcal/Mol)
 Vibrational temperatures:   1296.88  1296.88  4422.71
          (Kelvin)

 Zero-point correction=                           0.011110 (Hartree/Particle)
 Thermal correction to Energy=                    0.013578
 Thermal correction to Enthalpy=                  0.014522
 Thermal correction to Gibbs Free Energy=        -0.008690
 Sum of electronic and zero-point Energies=           -100.917413
 Sum of electronic and thermal Energies=              -100.914945
 Sum of electronic and thermal Enthalpies=            -100.914001
 Sum of electronic and thermal Free Energies=         -100.937213

                     E (Thermal)             CV                S
                      KCal/Mol        Cal/Mol-Kelvin    Cal/Mol-Kelvin
 Total                    8.520              5.965             48.854
 Electronic               0.000              0.000              1.377
 Translational            0.889              2.981             35.068
 Rotational               0.592              1.987             12.131
 Vibrational              7.039              0.997              0.278

 Normal termination of Gaussian 16 at Fri Aug 22 17:15:21 2025.
