 Gaussian 16, Revision C.01,
 Gaussian 16:  ES64L-G16RevC.01  3-Jul-2019

 -----------------------------------------
 # sp b3lyp/6-311g** Force nosymm scf=(qc)
 -----------------------------------------

 -------------------
 Title Card Required
 -------------------
 Symbolic Z-matrix:
 Charge =  0 Multiplicity = 2

                          Input orientation:
 ---------------------------------------------------------------------
 Center     Atomic      Atomic             Coordinates (Angstroms)
 Number     Number       Type             X           Y           Z
 ---------------------------------------------------------------------
      1          1           0        0.000000    0.000000    0.000000
      2          1           0       -1.250000    0.000000    0.000000
      3          9           0        1.500000    0.000000    0.000000
 ---------------------------------------------------------------------

 SCF Done:  E(UB3LYP) =  -100.897375994     a.u. after   12 cycles

 Alpha  occ. eigenvalues --  -24.66710  -1.13685  -0.49859  -0.39353  -0.38871
 Alpha  occ. eigenvalues --   -0.38871
 Alpha virt. eigenvalues --   -0.02450   0.20224   0.30788   0.91899   0.91899
 Alpha virt. eigenvalues --    0.99566   1.07063   1.10655   1.10655   1.49542
 Alpha virt. eigenvalues --    1.49542   1.54967   2.02883   2.23951   2.49100

  Beta  occ. eigenvalues --  -24.64832  -1.08605  -0.42355  -0.37062  -0.37062
  Beta virt. eigenvalues --   -0.22836   0.00670   0.22636   0.32230   0.92418
  Beta virt. eigenvalues --    0.92418   1.04738   1.10370   1.15162   1.15162
  Beta virt. eigenvalues --    1.51530   1.51530   1.59081   2.06964   2.28103

 Mulliken charges and spin densities:
               1          2
     1  H    0.199099  -0.169464
     2  H    0.068264   0.593091
     3  F   -0.267363   0.576373
 Sum of Mulliken charges =  -0.00000   1.00000

 Dipole moment (field-independent basis, Debye):
    X=             -2.3735    Y=             -0.0000    Z=              0.0000  Tot=              2.3735
 Quadrupole moment (field-independent basis, Debye-Ang):
   XX=             -7.7896   YY=             -7.1573   ZZ=             -7.1573
   XY=             -0.0000   XZ=              0.0000   YZ=              0.0000

  Exact polarizability:      33.672      -0.000       2.353       0.000       0.000       2.353
 Approx polarizability:      51.124      -0.000       2.313       0.000      -0.000       2.313

 ******    1 imaginary frequencies (negative Signs) ******

                      1                      2                      3
                      A                      A                      A
 Frequencies --  -2617.3065               245.4420              1196.2909
 Red. masses --      1.0228                 1.0910                 1.0159
 Frc consts  --      4.1279                 0.0387                 0.8566
 IR Inten    --    833.1881                19.0992                13.1384

                      4
                      A
 Frequencies --   1196.2909
 Red. masses --      1.0159
 Frc consts  --      0.8566
 IR Inten    --     13.1384

 - Thermochemistry -
 -------------------
 Temperature   298.150 Kelvin.  Pressure   1.00000 Atm.
 Atom     1 has atomic number  1 and mass   1.00783

 Molecular mass:    21.01405 amu.
 Principal axes and moments of inertia in atomic units:
                           1         2         3
     Eigenvalues --     0.00000  32.19756  32.19756
           X            1.00000  -0.00000   0.00000
           Y            0.00000   1.00000   0.00000
           Z            0.00000   0.00000   1.00000
 This molecule is a prolate symmetric top.
 Rotational symmetry number  1.
 Rotational temperature (Kelvin)      2.69008
 Rotational constant (GHZ):          56.052113
    1 imaginary frequencies ignored.
 Zero-point vibrational energy      15778.9 (Joules/Mol)
                                    3.77124 (Kcal/Mol)
 Warning -- explicit consideration of   1 degrees of freedom as
           vibrations may cause significant error
 Vibrational temperatures:    353.14  1721.20  1721.20
          (Kelvin)

 Zero-point correction=                           0.006010 (Hartree/Particle)
 Thermal correction to Energy=                    0.008897
 Thermal correction to Enthalpy=                  0.009841
 Thermal correction to Gibbs Free Energy=        -0.013742
 Sum of electronic and zero-point Energies=           -100.891366
 Sum of electronic and thermal Energies=              -100.888479
 Sum of electronic and thermal Enthalpies=            -100.887535
 Sum of electronic and thermal Free Energies=         -100.911118

                     E (Thermal)             CV                S
                      KCal/Mol        Cal/Mol-Kelvin    Cal/Mol-Kelvin
 Total                    5.583              7.153             49.636
 Electronic               0.000              0.000              1.377
 Translational            0.889              2.981             35.068
 Rotational               0.592              1.987             11.343
 Vibrational              4.102              2.185              1.847
 Vibration     1          0.660              1.770              1.763

 Normal termination of Gaussian 16 at Fri Aug 22 16:24:49 2025.
