 Gaussian 16, Revision C.01,
 Gaussian 16:  ES64L-G16RevC.01  3-Jul-2019

 -----------------------------------------
 # sp b3lyp/6-311g** Force nosymm scf=(qc)
 -----------------------------------------

 -------------------
 Title Card Required
 -------------------
 Symbolic Z-matrix:
 Charge =  0 Multiplicity = 2

                          Input orientation:
 ---------------------------------------------------------------------
 Center     Atomic      Atomic             Coordinates (Angstroms)
 Number     Number       Type             X           Y           Z
 ---------------------------------------------------------------------
      1          1           0        0.000000    0.000000    0.000000
      2          1           0       -1.150000    0.000000    0.000000
      3          9           0        3.350000    0.000000    0.000000
 ---------------------------------------------------------------------

 SCF Done:  E(UB3LYP) =  -100.880994690     a.u. after   93 cycles

 Alpha  occ. eigenvalues --  -24.76454  -1.22309  -0.55507  -0.46713  -0.46660
 Alpha  occ. eigenvalues --   -0.36844
 Alpha virt. eigenvalues --   -0.02910   0.22525   0.35204   0.85910   0.90785
 Alpha virt. eigenvalues --    0.92667   1.01933   1.11845   1.11849   1.25941
 Alpha virt. eigenvalues --    1.57145   1.57149   2.12542   2.33292   2.55247

  Beta  occ. eigenvalues --  -24.73296  -1.13230  -0.43550  -0.43493  -0.36839
  Beta virt. eigenvalues --   -0.26143  -0.02901   0.22537   0.35252   0.92284
  Beta virt. eigenvalues --    0.94205   0.95372   1.05980   1.11845   1.11849
  Beta virt. eigenvalues --    1.25950   1.57145   1.57149   2.12550   2.33295

 Mulliken charges and spin densities:
               1          2
     1  H   -0.000531  -0.000267
     2  H   -0.003793  -0.000254
     3  F    0.004323   1.000521
 Sum of Mulliken charges =   0.00000   1.00000

 Dipole moment (field-independent basis, Debye):
    X=              0.0616    Y=              0.0000    Z=              0.0000  Tot=              0.0616
 Quadrupole moment (field-independent basis, Debye-Ang):
   XX=             -6.2226   YY=             -6.7303   ZZ=             -7.2972
   XY=             -0.0000   XZ=             -0.0000   YZ=              0.3261

  Exact polarizability:      15.151      -0.000       2.462      -0.000       0.175       2.158
 Approx polarizability:      21.893      -0.000       2.593      -0.000       0.219       2.211

 ******    1 imaginary frequencies (negative Signs) ******

                      1                      2                      3
                      A                      A                      A
 Frequencies --    -31.8287               583.9226              1502.6241
 Red. masses --      1.1085                 1.0078                 1.0100
 Frc consts  --      0.0007                 0.2025                 1.3435
 IR Inten    --      0.2246                 0.2811                 0.0006

                      4
                      A
 Frequencies --   1503.4900
 Red. masses --      1.0100
 Frc consts  --      1.3451
 IR Inten    --      0.0007

 - Thermochemistry -
 -------------------
 Temperature   298.150 Kelvin.  Pressure   1.00000 Atm.
 Atom     1 has atomic number  1 and mass   1.00783

 Molecular mass:    21.01405 amu.
 Principal axes and moments of inertia in atomic units:
                           1         2         3
     Eigenvalues --     0.00000 102.63333 102.63333
           X            1.00000  -0.00000   0.00000
           Y            0.00000   1.00000   0.00000
           Z            0.00000   0.00000   1.00000
 This molecule is a prolate symmetric top.
 Rotational symmetry number  1.
 Rotational temperature (Kelvin)      0.84392
 Rotational constant (GHZ):          17.584358
    1 imaginary frequencies ignored.
 Zero-point vibrational energy      21473.2 (Joules/Mol)
                                    5.13222 (Kcal/Mol)
 Warning -- explicit consideration of   1 degrees of freedom as
           vibrations may cause significant error
 Vibrational temperatures:    840.13  2161.94  2163.19
          (Kelvin)

 Zero-point correction=                           0.008179 (Hartree/Particle)
 Thermal correction to Energy=                    0.010718
 Thermal correction to Enthalpy=                  0.011662
 Thermal correction to Gibbs Free Energy=        -0.012377
 Sum of electronic and zero-point Energies=           -100.872816
 Sum of electronic and thermal Energies=              -100.870277
 Sum of electronic and thermal Enthalpies=            -100.869333
 Sum of electronic and thermal Free Energies=         -100.893371

                     E (Thermal)             CV                S
                      KCal/Mol        Cal/Mol-Kelvin    Cal/Mol-Kelvin
 Total                    6.726              6.182             50.594
 Electronic               0.000              0.000              1.377
 Translational            0.889              2.981             35.068
 Rotational               0.592              1.987             13.647
 Vibrational              5.244              1.214              0.501
 Vibration     1          0.941              1.066              0.478

 Normal termination of Gaussian 16 at Fri Aug 22 20:55:13 2025.
