 Gaussian 16, Revision C.01,
 Gaussian 16:  ES64L-G16RevC.01  3-Jul-2019

 -----------------------------------------
 # sp b3lyp/6-311g** Force nosymm scf=(qc)
 -----------------------------------------

 -------------------
 Title Card Required
 -------------------
 Symbolic Z-matrix:
 Charge =  0 Multiplicity = 2

                          Input orientation:
 ---------------------------------------------------------------------
 Center     Atomic      Atomic             Coordinates (Angstroms)
 Number     Number       Type             X           Y           Z
 ---------------------------------------------------------------------
      1          1           0        0.000000    0.000000    0.000000
      2          1           0       -2.800000    0.000000    0.000000
      3          9           0        2.300000    0.000000    0.000000
 ---------------------------------------------------------------------

 SCF Done:  E(UB3LYP) =  -100.774394738     a.u. after   14 cycles

 Alpha  occ. eigenvalues --  -24.70461  -1.16738  -0.49537  -0.41635  -0.41635
 Alpha  occ. eigenvalues --   -0.33694
 Alpha virt. eigenvalues --   -0.12147   0.24072   0.33258   0.89151   0.94241
 Alpha virt. eigenvalues --    0.94241   1.06532   1.23878   1.23878   1.25427
 Alpha virt. eigenvalues --    1.38007   1.38007   1.48032   2.14836   2.32559

  Beta  occ. eigenvalues --  -24.67750  -1.09060  -0.38941  -0.38941  -0.36219
  Beta virt. eigenvalues --   -0.22495  -0.08614   0.24882   0.35955   0.93778
  Beta virt. eigenvalues --    0.95461   0.95461   1.08747   1.21725   1.21725
  Beta virt. eigenvalues --    1.36925   1.43446   1.43446   1.44280   2.13343

 Mulliken charges and spin densities:
               1          2
     1  H    0.116563  -0.841966
     2  H    0.006624   0.986941
     3  F   -0.123187   0.855025
 Sum of Mulliken charges =   0.00000   1.00000

 Dipole moment (field-independent basis, Debye):
    X=             -1.5170    Y=              0.0000    Z=              0.0000  Tot=              1.5170
 Quadrupole moment (field-independent basis, Debye-Ang):
   XX=             -9.3653   YY=             -7.5646   ZZ=             -7.5646
   XY=              0.0000   XZ=              0.0000   YZ=             -0.0000

  Exact polarizability:      35.332       0.000       2.028       0.000      -0.000       2.028
 Approx polarizability:      42.962       0.000       1.923       0.000       0.000       1.923

 ******    2 imaginary frequencies (negative Signs) ******

                      1                      2                      3
                      A                      A                      A
 Frequencies --   -822.5438              -275.0657               335.8665
 Red. masses --      1.0436                 1.0683                 1.0205
 Frc consts  --      0.4160                 0.0476                 0.0678
 IR Inten    --     86.9473                 6.4557                12.0450

                      4
                      A
 Frequencies --    335.8665
 Red. masses --      1.0205
 Frc consts  --      0.0678
 IR Inten    --     12.0450

 - Thermochemistry -
 -------------------
 Temperature   298.150 Kelvin.  Pressure   1.00000 Atm.
 Atom     1 has atomic number  1 and mass   1.00783

 Molecular mass:    21.01405 amu.
 Principal axes and moments of inertia in atomic units:
                           1         2         3
     Eigenvalues --     0.00000 103.19701 103.19701
           X            1.00000  -0.00000   0.00000
           Y            0.00000   1.00000   0.00000
           Z            0.00000   0.00000   1.00000
 This molecule is a prolate symmetric top.
 Rotational symmetry number  1.
 Rotational temperature (Kelvin)      0.83931
 Rotational constant (GHZ):          17.488309
    2 imaginary frequencies ignored.
 Zero-point vibrational energy       4017.9 (Joules/Mol)
                                    0.96029 (Kcal/Mol)
 Warning -- explicit consideration of   2 degrees of freedom as
           vibrations may cause significant error
 Vibrational temperatures:    483.24   483.24
          (Kelvin)

 Zero-point correction=                           0.001530 (Hartree/Particle)
 Thermal correction to Energy=                    0.004645
 Thermal correction to Enthalpy=                  0.005589
 Thermal correction to Gibbs Free Energy=        -0.019387
 Sum of electronic and zero-point Energies=           -100.772864
 Sum of electronic and thermal Energies=              -100.769750
 Sum of electronic and thermal Enthalpies=            -100.768805
 Sum of electronic and thermal Free Energies=         -100.793781

                     E (Thermal)             CV                S
                      KCal/Mol        Cal/Mol-Kelvin    Cal/Mol-Kelvin
 Total                    2.915              8.176             52.566
 Electronic               0.000              0.000              1.377
 Translational            0.889              2.981             35.068
 Rotational               0.592              1.987             13.658
 Vibrational              1.434              3.208              2.463
 Vibration     1          0.717              1.604              1.232
 Vibration     2          0.717              1.604              1.232

 Normal termination of Gaussian 16 at Fri Aug 22 17:22:38 2025.
