 Gaussian 16, Revision C.01,
 Gaussian 16:  ES64L-G16RevC.01  3-Jul-2019

 -----------------------------------------
 # sp b3lyp/6-311g** Force nosymm scf=(qc)
 -----------------------------------------

 -------------------
 Title Card Required
 -------------------
 Symbolic Z-matrix:
 Charge =  0 Multiplicity = 2

                          Input orientation:
 ---------------------------------------------------------------------
 Center     Atomic      Atomic             Coordinates (Angstroms)
 Number     Number       Type             X           Y           Z
 ---------------------------------------------------------------------
      1          1           0        0.000000    0.000000    0.000000
      2          1           0       -3.050000    0.000000    0.000000
      3          9           0        2.600000    0.000000    0.000000
 ---------------------------------------------------------------------

 SCF Done:  E(UB3LYP) =  -100.766261625     a.u. after   19 cycles

 Alpha  occ. eigenvalues --  -24.72309  -1.18489  -0.51417  -0.43186  -0.43186
 Alpha  occ. eigenvalues --   -0.33050
 Alpha virt. eigenvalues --   -0.10341   0.24155   0.34756   0.90029   0.93308
 Alpha virt. eigenvalues --    0.93308   1.06146   1.24487   1.24487   1.25275
 Alpha virt. eigenvalues --    1.40907   1.40907   1.43295   2.15108   2.36100

  Beta  occ. eigenvalues --  -24.69418  -1.10244  -0.40301  -0.40301  -0.34971
  Beta virt. eigenvalues --   -0.23713  -0.07683   0.24648   0.36852   0.94708
  Beta virt. eigenvalues --    0.94708   0.97365   1.08988   1.22434   1.22434
  Beta virt. eigenvalues --    1.27365   1.44686   1.44737   1.44737   2.14292

 Mulliken charges and spin densities:
               1          2
     1  H    0.073867  -0.907834
     2  H    0.002487   0.993491
     3  F   -0.076354   0.914343
 Sum of Mulliken charges =  -0.00000   1.00000

 Dipole moment (field-independent basis, Debye):
    X=             -1.0496    Y=             -0.0000    Z=              0.0000  Tot=              1.0496
 Quadrupole moment (field-independent basis, Debye-Ang):
   XX=             -8.9961   YY=             -7.5922   ZZ=             -7.5922
   XY=             -0.0000   XZ=              0.0000   YZ=              0.0000

  Exact polarizability:      34.464      -0.000       2.021       0.000      -0.000       2.021
 Approx polarizability:      40.193      -0.000       1.920       0.000      -0.000       1.920

 ******    2 imaginary frequencies (negative Signs) ******

                      1                      2                      3
                      A                      A                      A
 Frequencies --   -590.7661              -199.7693               227.4535
 Red. masses --      1.0433                 1.0686                 1.0200
 Frc consts  --      0.2145                 0.0251                 0.0311
 IR Inten    --     68.2069                 2.8574                 4.9994

                      4
                      A
 Frequencies --    227.4535
 Red. masses --      1.0200
 Frc consts  --      0.0311
 IR Inten    --      4.9994

 - Thermochemistry -
 -------------------
 Temperature   298.150 Kelvin.  Pressure   1.00000 Atm.
 Atom     1 has atomic number  1 and mass   1.00783

 Molecular mass:    21.01405 amu.
 Principal axes and moments of inertia in atomic units:
                           1         2         3
     Eigenvalues --     0.00000 127.47059 127.47059
           X            1.00000  -0.00000   0.00000
           Y            0.00000   1.00000   0.00000
           Z            0.00000   0.00000   1.00000
 This molecule is a prolate symmetric top.
 Rotational symmetry number  1.
 Rotational temperature (Kelvin)      0.67948
 Rotational constant (GHZ):          14.158099
    2 imaginary frequencies ignored.
 Zero-point vibrational energy       2720.9 (Joules/Mol)
                                    0.65032 (Kcal/Mol)
 Warning -- explicit consideration of   2 degrees of freedom as
           vibrations may cause significant error
 Vibrational temperatures:    327.25   327.25
          (Kelvin)

 Zero-point correction=                           0.001036 (Hartree/Particle)
 Thermal correction to Energy=                    0.004435
 Thermal correction to Enthalpy=                  0.005379
 Thermal correction to Gibbs Free Energy=        -0.020431
 Sum of electronic and zero-point Energies=           -100.765225
 Sum of electronic and thermal Energies=              -100.761827
 Sum of electronic and thermal Enthalpies=            -100.760883
 Sum of electronic and thermal Free Energies=         -100.786692

                     E (Thermal)             CV                S
                      KCal/Mol        Cal/Mol-Kelvin    Cal/Mol-Kelvin
 Total                    2.783              8.566             54.321
 Electronic               0.000              0.000              1.377
 Translational            0.889              2.981             35.068
 Rotational               0.592              1.987             14.077
 Vibrational              1.302              3.598              3.798
 Vibration     1          0.651              1.799              1.899
 Vibration     2          0.651              1.799              1.899

 Normal termination of Gaussian 16 at Fri Aug 22 18:04:46 2025.
