 Gaussian 16, Revision C.01,
 Gaussian 16:  ES64L-G16RevC.01  3-Jul-2019

 -----------------------------------------
 # sp b3lyp/6-311g** Force nosymm scf=(qc)
 -----------------------------------------

 -------------------
 Title Card Required
 -------------------
 Symbolic Z-matrix:
 Charge =  0 Multiplicity = 2

                          Input orientation:
 ---------------------------------------------------------------------
 Center     Atomic      Atomic             Coordinates (Angstroms)
 Number     Number       Type             X           Y           Z
 ---------------------------------------------------------------------
      1          1           0        0.000000    0.000000    0.000000
      2          1           0       -0.800000    0.000000    0.000000
      3          9           0        2.900000    0.000000    0.000000
 ---------------------------------------------------------------------

 SCF Done:  E(UB3LYP) =  -100.932625310     a.u. after   58 cycles

 Alpha  occ. eigenvalues --  -24.76686  -1.22484  -0.55673  -0.46964  -0.46822
 Alpha  occ. eigenvalues --   -0.41957
 Alpha virt. eigenvalues --    0.05178   0.20363   0.45478   0.85801   0.90672
 Alpha virt. eigenvalues --    0.93839   1.06748   1.08448   1.08456   1.52578
 Alpha virt. eigenvalues --    1.79116   1.79125   2.06342   2.39016   3.05561

  Beta  occ. eigenvalues --  -24.73523  -1.13396  -0.43911  -0.43651  -0.41836
  Beta virt. eigenvalues --   -0.26293   0.05225   0.20395   0.45583   0.92170
  Beta virt. eigenvalues --    0.95256   0.95700   1.08448   1.08455   1.10377
  Beta virt. eigenvalues --    1.52588   1.79115   1.79124   2.06367   2.39024

 Mulliken charges and spin densities:
               1          2
     1  H   -0.005633  -0.001228
     2  H   -0.004834  -0.000195
     3  F    0.010467   1.001423
 Sum of Mulliken charges =   0.00000   1.00000

 Dipole moment (field-independent basis, Debye):
    X=              0.1063    Y=             -0.0000    Z=             -0.0000  Tot=              0.1063
 Quadrupole moment (field-independent basis, Debye-Ang):
   XX=             -6.0728   YY=             -6.3546   ZZ=             -6.8396
   XY=             -0.0000   XZ=             -0.0000   YZ=              0.3572

  Exact polarizability:       9.435       0.000       2.348       0.000       0.189       2.091
 Approx polarizability:      10.970      -0.000       2.514       0.000       0.238       2.191

                      1                      2                      3
                      A                      A                      A
 Frequencies --     73.5741              1078.9504              1081.1977
 Red. masses --      1.1085                 1.0093                 1.0093
 Frc consts  --      0.0035                 0.6923                 0.6951
 IR Inten    --      0.3255                 0.0076                 0.0067

                      4
                      A
 Frequencies --   3695.4946
 Red. masses --      1.0078
 Frc consts  --      8.1092
 IR Inten    --      0.7155

 - Thermochemistry -
 -------------------
 Temperature   298.150 Kelvin.  Pressure   1.00000 Atm.
 Atom     1 has atomic number  1 and mass   1.00783

 Molecular mass:    21.01405 amu.
 Principal axes and moments of inertia in atomic units:
                           1         2         3
     Eigenvalues --     0.00000  72.01933  72.01933
           X            1.00000  -0.00000   0.00000
           Y            0.00000   1.00000   0.00000
           Z            0.00000   0.00000   1.00000
 This molecule is a prolate symmetric top.
 Rotational symmetry number  1.
 Rotational temperature (Kelvin)      1.20265
 Rotational constant (GHZ):          25.059122
 Zero-point vibrational energy      35464.6 (Joules/Mol)
                                    8.47624 (Kcal/Mol)
 Warning -- explicit consideration of   1 degrees of freedom as
           vibrations may cause significant error
 Vibrational temperatures:    105.86  1552.37  1555.60  5316.99
          (Kelvin)

 Zero-point correction=                           0.013508 (Hartree/Particle)
 Thermal correction to Energy=                    0.016709
 Thermal correction to Enthalpy=                  0.017653
 Thermal correction to Gibbs Free Energy=        -0.007804
 Sum of electronic and zero-point Energies=           -100.919118
 Sum of electronic and thermal Energies=              -100.915917
 Sum of electronic and thermal Enthalpies=            -100.914973
 Sum of electronic and thermal Free Energies=         -100.940430

                     E (Thermal)             CV                S
                      KCal/Mol        Cal/Mol-Kelvin    Cal/Mol-Kelvin
 Total                   10.485              7.529             53.579
 Electronic               0.000              0.000              1.377
 Translational            0.889              2.981             35.068
 Rotational               0.592              1.987             12.943
 Vibrational              9.004              2.561              4.191
 Vibration     1          0.599              1.966              4.055

 Normal termination of Gaussian 16 at Fri Aug 22 18:57:39 2025.
