 Gaussian 16, Revision C.01,
 Gaussian 16:  ES64L-G16RevC.01  3-Jul-2019

 -----------------------------------------
 # sp b3lyp/6-311g** Force nosymm scf=(qc)
 -----------------------------------------

 -------------------
 Title Card Required
 -------------------
 Symbolic Z-matrix:
 Charge =  0 Multiplicity = 2

                          Input orientation:
 ---------------------------------------------------------------------
 Center     Atomic      Atomic             Coordinates (Angstroms)
 Number     Number       Type             X           Y           Z
 ---------------------------------------------------------------------
      1          1           0        0.000000    0.000000    0.000000
      2          1           0       -2.200000    0.000000    0.000000
      3          9           0        2.700000    0.000000    0.000000
 ---------------------------------------------------------------------

 SCF Done:  E(UB3LYP) =  -100.772551985     a.u. after   21 cycles

 Alpha  occ. eigenvalues --  -24.72911  -1.19045  -0.52022  -0.43682  -0.43682
 Alpha  occ. eigenvalues --   -0.33946
 Alpha virt. eigenvalues --   -0.12031   0.25201   0.32598   0.90349   0.92981
 Alpha virt. eigenvalues --    0.92981   1.05790   1.23888   1.23888   1.24082
 Alpha virt. eigenvalues --    1.36945   1.36945   1.43558   2.12914   2.34461

  Beta  occ. eigenvalues --  -24.69973  -1.10649  -0.40746  -0.40746  -0.34573
  Beta virt. eigenvalues --   -0.24138  -0.10698   0.26181   0.33341   0.94406
  Beta virt. eigenvalues --    0.94406   0.98459   1.09399   1.23160   1.23160
  Beta virt. eigenvalues --    1.24364   1.39141   1.39141   1.45034   2.13806

 Mulliken charges and spin densities:
               1          2
     1  H    0.045290  -0.858037
     2  H    0.016452   0.928073
     3  F   -0.061742   0.929964
 Sum of Mulliken charges =  -0.00000   1.00000

 Dipole moment (field-independent basis, Debye):
    X=             -1.0256    Y=              0.0000    Z=              0.0000  Tot=              1.0256
 Quadrupole moment (field-independent basis, Debye-Ang):
   XX=             -8.1533   YY=             -7.6617   ZZ=             -7.6617
   XY=              0.0000   XZ=              0.0000   YZ=             -0.0000

  Exact polarizability:      54.337       0.000       2.007       0.000      -0.000       2.007
 Approx polarizability:      52.948       0.000       1.921       0.000       0.000       1.921

 ******    2 imaginary frequencies (negative Signs) ******

                      1                      2                      3
                      A                      A                      A
 Frequencies --  -1067.5629              -324.0655               415.9620
 Red. masses --      1.0094                 1.1066                 1.0157
 Frc consts  --      0.6778                 0.0685                 0.1035
 IR Inten    --     37.9641                38.3538                 1.3341

                      4
                      A
 Frequencies --    415.9620
 Red. masses --      1.0157
 Frc consts  --      0.1035
 IR Inten    --      1.3341

 - Thermochemistry -
 -------------------
 Temperature   298.150 Kelvin.  Pressure   1.00000 Atm.
 Atom     1 has atomic number  1 and mass   1.00783

 Molecular mass:    21.01405 amu.
 Principal axes and moments of inertia in atomic units:
                           1         2         3
     Eigenvalues --     0.00000 102.67919 102.67919
           X            1.00000  -0.00000   0.00000
           Y            0.00000   1.00000   0.00000
           Z            0.00000   0.00000   1.00000
 This molecule is a prolate symmetric top.
 Rotational symmetry number  1.
 Rotational temperature (Kelvin)      0.84354
 Rotational constant (GHZ):          17.576504
    2 imaginary frequencies ignored.
 Zero-point vibrational energy       4976.0 (Joules/Mol)
                                    1.18929 (Kcal/Mol)
 Warning -- explicit consideration of   2 degrees of freedom as
           vibrations may cause significant error
 Vibrational temperatures:    598.48   598.48
          (Kelvin)

 Zero-point correction=                           0.001895 (Hartree/Particle)
 Thermal correction to Energy=                    0.004844
 Thermal correction to Enthalpy=                  0.005788
 Thermal correction to Gibbs Free Energy=        -0.018873
 Sum of electronic and zero-point Energies=           -100.770657
 Sum of electronic and thermal Energies=              -100.767708
 Sum of electronic and thermal Enthalpies=            -100.766764
 Sum of electronic and thermal Free Energies=         -100.791425

                     E (Thermal)             CV                S
                      KCal/Mol        Cal/Mol-Kelvin    Cal/Mol-Kelvin
 Total                    3.040              7.839             51.905
 Electronic               0.000              0.000              1.377
 Translational            0.889              2.981             35.068
 Rotational               0.592              1.987             13.648
 Vibrational              1.558              2.871              1.812
 Vibration     1          0.779              1.436              0.906
 Vibration     2          0.779              1.436              0.906

 Normal termination of Gaussian 16 at Fri Aug 22 18:25:36 2025.
