 Gaussian 16, Revision C.01,
 Gaussian 16:  ES64L-G16RevC.01  3-Jul-2019

 -----------------------------------------
 # sp b3lyp/6-311g** Force nosymm scf=(qc)
 -----------------------------------------

 -------------------
 Title Card Required
 -------------------
 Symbolic Z-matrix:
 Charge =  0 Multiplicity = 2

                          Input orientation:
 ---------------------------------------------------------------------
 Center     Atomic      Atomic             Coordinates (Angstroms)
 Number     Number       Type             X           Y           Z
 ---------------------------------------------------------------------
      1          1           0        0.000000    0.000000    0.000000
      2          1           0       -3.600000    0.000000    0.000000
      3          9           0        3.850000    0.000000    0.000000
 ---------------------------------------------------------------------

 SCF Done:  E(UB3LYP) =  -100.758639785     a.u. after   56 cycles

 Alpha  occ. eigenvalues --  -24.75791  -1.21724  -0.54915  -0.46108  -0.46108
 Alpha  occ. eigenvalues --   -0.32264
 Alpha virt. eigenvalues --   -0.06548   0.24295   0.37646   0.86768   0.91227
 Alpha virt. eigenvalues --    0.91227   1.01209   1.25237   1.25237   1.25342
 Alpha virt. eigenvalues --    1.45688   1.45907   1.45907   2.14954   2.41488

  Beta  occ. eigenvalues --  -24.72651  -1.12697  -0.42960  -0.42960  -0.32516
  Beta virt. eigenvalues --   -0.25687  -0.06290   0.24114   0.38068   0.92724
  Beta virt. eigenvalues --    0.92724   0.96096   1.05314   1.24961   1.24961
  Beta virt. eigenvalues --    1.25050   1.46106   1.46313   1.46313   2.14972

 Mulliken charges and spin densities:
               1          2
     1  H    0.003957  -0.993865
     2  H    0.000068   0.998326
     3  F   -0.004025   0.995540
 Sum of Mulliken charges =  -0.00000   1.00000

 Dipole moment (field-independent basis, Debye):
    X=             -0.0813    Y=              0.0000    Z=             -0.0000  Tot=              0.0813
 Quadrupole moment (field-independent basis, Debye-Ang):
   XX=             -7.0086   YY=             -7.6223   ZZ=             -7.6223
   XY=              0.0000   XZ=             -0.0000   YZ=             -0.0000

  Exact polarizability:      13.938      -0.000       2.032      -0.000      -0.000       2.032
 Approx polarizability:      10.294       0.000       1.936      -0.000       0.000       1.936

 ******    2 imaginary frequencies (negative Signs) ******

                      1                      2                      3
                      A                      A                      A
 Frequencies --   -185.1191               -76.5170                60.7645
 Red. masses --      1.0156                 1.0992                 1.0172
 Frc consts  --      0.0205                 0.0038                 0.0022
 IR Inten    --      1.9988                 0.6444                 0.0152

                      4
                      A
 Frequencies --     60.7646
 Red. masses --      1.0172
 Frc consts  --      0.0022
 IR Inten    --      0.0152

 - Thermochemistry -
 -------------------
 Temperature   298.150 Kelvin.  Pressure   1.00000 Atm.
 Atom     1 has atomic number  1 and mass   1.00783

 Molecular mass:    21.01405 amu.
 Principal axes and moments of inertia in atomic units:
                           1         2         3
     Eigenvalues --     0.00000 231.06010 231.06010
           X            1.00000  -0.00000   0.00000
           Y            0.00000   1.00000   0.00000
           Z            0.00000   0.00000   1.00000
 This molecule is a prolate symmetric top.
 Rotational symmetry number  1.
 Rotational temperature (Kelvin)      0.37485
 Rotational constant (GHZ):           7.810700
    2 imaginary frequencies ignored.
 Zero-point vibrational energy        726.9 (Joules/Mol)
                                    0.17373 (Kcal/Mol)
 Warning -- explicit consideration of   2 degrees of freedom as
           vibrations may cause significant error
 Vibrational temperatures:     87.43    87.43
          (Kelvin)

 Zero-point correction=                           0.000277 (Hartree/Particle)
 Thermal correction to Energy=                    0.004262
 Thermal correction to Enthalpy=                  0.005207
 Thermal correction to Gibbs Free Energy=        -0.023572
 Sum of electronic and zero-point Energies=           -100.758363
 Sum of electronic and thermal Energies=              -100.754377
 Sum of electronic and thermal Enthalpies=            -100.753433
 Sum of electronic and thermal Free Energies=         -100.782212

                     E (Thermal)             CV                S
                      KCal/Mol        Cal/Mol-Kelvin    Cal/Mol-Kelvin
 Total                    2.675              8.914             60.569
 Electronic               0.000              0.000              1.377
 Translational            0.889              2.981             35.068
 Rotational               0.592              1.987             15.259
 Vibrational              1.193              3.946              8.864
 Vibration     1          0.597              1.973              4.432
 Vibration     2          0.597              1.973              4.432

 Normal termination of Gaussian 16 at Sat Aug 23 01:11:16 2025.
