 Gaussian 16, Revision C.01,
 Gaussian 16:  ES64L-G16RevC.01  3-Jul-2019

 -----------------------------------------
 # sp b3lyp/6-311g** Force nosymm scf=(qc)
 -----------------------------------------

 -------------------
 Title Card Required
 -------------------
 Symbolic Z-matrix:
 Charge =  0 Multiplicity = 2

                          Input orientation:
 ---------------------------------------------------------------------
 Center     Atomic      Atomic             Coordinates (Angstroms)
 Number     Number       Type             X           Y           Z
 ---------------------------------------------------------------------
      1          1           0        0.000000    0.000000    0.000000
      2          1           0       -1.600000    0.000000    0.000000
      3          9           0        2.150000    0.000000    0.000000
 ---------------------------------------------------------------------

 SCF Done:  E(UB3LYP) =  -100.818862659     a.u. after   13 cycles

 Alpha  occ. eigenvalues --  -24.70461  -1.16757  -0.49723  -0.41653  -0.41653
 Alpha  occ. eigenvalues --   -0.37024
 Alpha virt. eigenvalues --   -0.11688   0.23140   0.31166   0.85538   0.93955
 Alpha virt. eigenvalues --    0.93955   1.02750   1.18711   1.18711   1.23759
 Alpha virt. eigenvalues --    1.36636   1.36636   1.73757   2.16822   2.41697

  Beta  occ. eigenvalues --  -24.67782  -1.09185  -0.38994  -0.38994  -0.36595
  Beta virt. eigenvalues --   -0.23489  -0.10481   0.25277   0.30752   0.89747
  Beta virt. eigenvalues --    0.95114   0.95114   1.06754   1.20168   1.20168
  Beta virt. eigenvalues --    1.28201   1.37377   1.37377   1.74741   2.17752

 Mulliken charges and spin densities:
               1          2
     1  H    0.070250  -0.452678
     2  H    0.055533   0.609361
     3  F   -0.125783   0.843317
 Sum of Mulliken charges =  -0.00000   1.00000

 Dipole moment (field-independent basis, Debye):
    X=             -1.7803    Y=             -0.0000    Z=             -0.0000  Tot=              1.7803
 Quadrupole moment (field-independent basis, Debye-Ang):
   XX=             -7.7440   YY=             -7.5955   ZZ=             -7.5955
   XY=              0.0000   XZ=              0.0000   YZ=             -0.0000

  Exact polarizability:      56.673       0.000       2.069       0.000       0.000       2.069
 Approx polarizability:      81.054      -0.000       2.017      -0.000       0.000       2.017

 ******    2 imaginary frequencies (negative Signs) ******

                      1                      2                      3
                      A                      A                      A
 Frequencies --  -2072.0506              -468.9626               978.8653
 Red. masses --      1.0102                 1.1057                 1.0148
 Frc consts  --      2.5553                 0.1433                 0.5729
 IR Inten    --    508.0283                34.3962                 1.3897

                      4
                      A
 Frequencies --    978.8653
 Red. masses --      1.0148
 Frc consts  --      0.5729
 IR Inten    --      1.3897

 - Thermochemistry -
 -------------------
 Temperature   298.150 Kelvin.  Pressure   1.00000 Atm.
 Atom     1 has atomic number  1 and mass   1.00783

 Molecular mass:    21.01405 amu.
 Principal axes and moments of inertia in atomic units:
                           1         2         3
     Eigenvalues --     0.00000  61.23903  61.23903
           X            1.00000  -0.00000   0.00000
           Y            0.00000   1.00000   0.00000
           Z            0.00000   0.00000   1.00000
 This molecule is a prolate symmetric top.
 Rotational symmetry number  1.
 Rotational temperature (Kelvin)      1.41436
 Rotational constant (GHZ):          29.470442
    2 imaginary frequencies ignored.
 Zero-point vibrational energy      11709.8 (Joules/Mol)
                                    2.79872 (Kcal/Mol)
 Vibrational temperatures:   1408.37  1408.37
          (Kelvin)

 Zero-point correction=                           0.004460 (Hartree/Particle)
 Thermal correction to Energy=                    0.006900
 Thermal correction to Enthalpy=                  0.007845
 Thermal correction to Gibbs Free Energy=        -0.015565
 Sum of electronic and zero-point Energies=           -100.814403
 Sum of electronic and thermal Energies=              -100.811962
 Sum of electronic and thermal Enthalpies=            -100.811018
 Sum of electronic and thermal Free Energies=         -100.834428

                     E (Thermal)             CV                S
                      KCal/Mol        Cal/Mol-Kelvin    Cal/Mol-Kelvin
 Total                    4.330              5.770             49.270
 Electronic               0.000              0.000              1.377
 Translational            0.889              2.981             35.068
 Rotational               0.592              1.987             12.621
 Vibrational              2.849              0.802              0.204

 Normal termination of Gaussian 16 at Fri Aug 22 17:07:17 2025.
