 Gaussian 16, Revision C.01,
 Gaussian 16:  ES64L-G16RevC.01  3-Jul-2019

 -----------------------------------------
 # sp b3lyp/6-311g** Force nosymm scf=(qc)
 -----------------------------------------

 -------------------
 Title Card Required
 -------------------
 Symbolic Z-matrix:
 Charge =  0 Multiplicity = 2

                          Input orientation:
 ---------------------------------------------------------------------
 Center     Atomic      Atomic             Coordinates (Angstroms)
 Number     Number       Type             X           Y           Z
 ---------------------------------------------------------------------
      1          1           0        0.000000    0.000000    0.000000
      2          1           0       -2.800000    0.000000    0.000000
      3          9           0        3.400000    0.000000    0.000000
 ---------------------------------------------------------------------

 SCF Done:  E(UB3LYP) =  -100.760970024     a.u. after   24 cycles

 Alpha  occ. eigenvalues --  -24.75235  -1.21208  -0.54356  -0.45639  -0.45639
 Alpha  occ. eigenvalues --   -0.32563
 Alpha virt. eigenvalues --   -0.08739   0.25236   0.35101   0.87949   0.91574
 Alpha virt. eigenvalues --    0.91574   1.02092   1.25003   1.25003   1.26168
 Alpha virt. eigenvalues --    1.42781   1.42781   1.43134   2.15887   2.38651

  Beta  occ. eigenvalues --  -24.72131  -1.12294  -0.42529  -0.42529  -0.33032
  Beta virt. eigenvalues --   -0.25411  -0.08085   0.25032   0.36063   0.93060
  Beta virt. eigenvalues --    0.93060   0.97042   1.06087   1.24450   1.24450
  Beta virt. eigenvalues --    1.25541   1.43821   1.43821   1.44153   2.16375

 Mulliken charges and spin densities:
               1          2
     1  H    0.013171  -0.971088
     2  H    0.001338   0.987175
     3  F   -0.014509   0.983914
 Sum of Mulliken charges =  -0.00000   1.00000

 Dipole moment (field-independent basis, Debye):
    X=             -0.2714    Y=             -0.0000    Z=              0.0000  Tot=              0.2714
 Quadrupole moment (field-independent basis, Debye-Ang):
   XX=             -7.3994   YY=             -7.6424   ZZ=             -7.6424
   XY=              0.0000   XZ=              0.0000   YZ=             -0.0000

  Exact polarizability:      30.993       0.000       2.026       0.000      -0.000       2.026
 Approx polarizability:      24.561       0.000       1.929       0.000       0.000       1.929

 ******    2 imaginary frequencies (negative Signs) ******

                      1                      2                      3
                      A                      A                      A
 Frequencies --   -459.1223              -150.1474               163.7033
 Red. masses --      1.0096                 1.1064                 1.0158
 Frc consts  --      0.1254                 0.0147                 0.0160
 IR Inten    --      9.5767                 6.6337                 0.1404

                      4
                      A
 Frequencies --    163.7033
 Red. masses --      1.0158
 Frc consts  --      0.0160
 IR Inten    --      0.1404

 - Thermochemistry -
 -------------------
 Temperature   298.150 Kelvin.  Pressure   1.00000 Atm.
 Atom     1 has atomic number  1 and mass   1.00783

 Molecular mass:    21.01405 amu.
 Principal axes and moments of inertia in atomic units:
                           1         2         3
     Eigenvalues --     0.00000 164.04297 164.04297
           X            1.00000  -0.00000   0.00000
           Y            0.00000   1.00000   0.00000
           Z            0.00000   0.00000   1.00000
 This molecule is a prolate symmetric top.
 Rotational symmetry number  1.
 Rotational temperature (Kelvin)      0.52800
 Rotational constant (GHZ):          11.001637
    2 imaginary frequencies ignored.
 Zero-point vibrational energy       1958.3 (Joules/Mol)
                                    0.46805 (Kcal/Mol)
 Warning -- explicit consideration of   2 degrees of freedom as
           vibrations may cause significant error
 Vibrational temperatures:    235.53   235.53
          (Kelvin)

 Zero-point correction=                           0.000746 (Hartree/Particle)
 Thermal correction to Energy=                    0.004346
 Thermal correction to Enthalpy=                  0.005290
 Thermal correction to Gibbs Free Energy=        -0.021335
 Sum of electronic and zero-point Energies=           -100.760224
 Sum of electronic and thermal Energies=              -100.756624
 Sum of electronic and thermal Enthalpies=            -100.755680
 Sum of electronic and thermal Free Energies=         -100.782305

                     E (Thermal)             CV                S
                      KCal/Mol        Cal/Mol-Kelvin    Cal/Mol-Kelvin
 Total                    2.727              8.742             56.037
 Electronic               0.000              0.000              1.377
 Translational            0.889              2.981             35.068
 Rotational               0.592              1.987             14.579
 Vibrational              1.246              3.774              5.013
 Vibration     1          0.623              1.887              2.507
 Vibration     2          0.623              1.887              2.507

 Normal termination of Gaussian 16 at Fri Aug 22 21:17:47 2025.
