 Gaussian 16, Revision C.01,
 Gaussian 16:  ES64L-G16RevC.01  3-Jul-2019

 -----------------------------------------
 # sp b3lyp/6-311g** Force nosymm scf=(qc)
 -----------------------------------------

 -------------------
 Title Card Required
 -------------------
 Symbolic Z-matrix:
 Charge =  0 Multiplicity = 2

                          Input orientation:
 ---------------------------------------------------------------------
 Center     Atomic      Atomic             Coordinates (Angstroms)
 Number     Number       Type             X           Y           Z
 ---------------------------------------------------------------------
      1          1           0        0.000000    0.000000    0.000000
      2          1           0       -3.400000    0.000000    0.000000
      3          9           0        1.850000    0.000000    0.000000
 ---------------------------------------------------------------------

 SCF Done:  E(UB3LYP) =  -100.799049354     a.u. after   19 cycles

 Alpha  occ. eigenvalues --  -24.64887  -1.07522  -0.38982  -0.36641  -0.36641
 Alpha  occ. eigenvalues --   -0.33646
 Alpha virt. eigenvalues --   -0.19605   0.19736   0.27436   0.92211   0.95047
 Alpha virt. eigenvalues --    0.95047   1.08049   1.23142   1.23142   1.23819
 Alpha virt. eigenvalues --    1.23819   1.23918   1.62149   2.11701   2.14639

  Beta  occ. eigenvalues --  -24.66927  -1.13163  -0.45763  -0.38637  -0.38637
  Beta virt. eigenvalues --   -0.15037  -0.05339   0.27389   0.39290   0.91572
  Beta virt. eigenvalues --    0.94888   0.94888   1.05853   1.34071   1.34071
  Beta virt. eigenvalues --    1.46780   1.46780   1.46965   1.67698   2.26744

 Mulliken charges and spin densities:
               1          2
     1  H    0.239866   0.643247
     2  H    0.002031   0.998040
     3  F   -0.241897  -0.641287
 Sum of Mulliken charges =   0.00000   1.00000

 Dipole moment (field-independent basis, Debye):
    X=             -2.2243    Y=             -0.0000    Z=              0.0000  Tot=              2.2243
 Quadrupole moment (field-independent basis, Debye-Ang):
   XX=            -10.1873   YY=             -7.4443   ZZ=             -7.4443
   XY=             -0.0000   XZ=              0.0000   YZ=             -0.0000

  Exact polarizability:      24.752      -0.000       2.087       0.000       0.000       2.087
 Approx polarizability:      37.728      -0.000       1.976       0.000       0.000       1.976

 ******    1 imaginary frequencies (negative Signs) ******

                      1                      2                      3
                      A                      A                      A
 Frequencies --  -1401.9002                45.2013               603.4111
 Red. masses --      1.0588                 1.0528                 1.0267
 Frc consts  --      1.2260                 0.0013                 0.2203
 IR Inten    --    123.6709                 0.5176                53.2331

                      4
                      A
 Frequencies --    603.4111
 Red. masses --      1.0267
 Frc consts  --      0.2203
 IR Inten    --     53.2331

 - Thermochemistry -
 -------------------
 Temperature   298.150 Kelvin.  Pressure   1.00000 Atm.
 Atom     1 has atomic number  1 and mass   1.00783

 Molecular mass:    21.01405 amu.
 Principal axes and moments of inertia in atomic units:
                           1         2         3
     Eigenvalues --     0.00000 102.81417 102.81417
           X            1.00000  -0.00000   0.00000
           Y            0.00000   1.00000   0.00000
           Z            0.00000   0.00000   1.00000
 This molecule is a prolate symmetric top.
 Rotational symmetry number  1.
 Rotational temperature (Kelvin)      0.84243
 Rotational constant (GHZ):          17.553430
    1 imaginary frequencies ignored.
 Zero-point vibrational energy       7488.8 (Joules/Mol)
                                    1.78986 (Kcal/Mol)
 Warning -- explicit consideration of   3 degrees of freedom as
           vibrations may cause significant error
 Vibrational temperatures:     65.03   868.17   868.17
          (Kelvin)

 Zero-point correction=                           0.002852 (Hartree/Particle)
 Thermal correction to Energy=                    0.006374
 Thermal correction to Enthalpy=                  0.007318
 Thermal correction to Gibbs Free Energy=        -0.019289
 Sum of electronic and zero-point Energies=           -100.796197
 Sum of electronic and thermal Energies=              -100.792675
 Sum of electronic and thermal Enthalpies=            -100.791731
 Sum of electronic and thermal Free Energies=         -100.818339

                     E (Thermal)             CV                S
                      KCal/Mol        Cal/Mol-Kelvin    Cal/Mol-Kelvin
 Total                    4.000              8.996             56.000
 Electronic               0.000              0.000              1.377
 Translational            0.889              2.981             35.068
 Rotational               0.592              1.987             13.650
 Vibrational              2.518              4.028              5.905
 Vibration     1          0.595              1.979              5.017
 Vibration     2          0.962              1.025              0.444
 Vibration     3          0.962              1.025              0.444

 Normal termination of Gaussian 16 at Fri Aug 22 16:48:08 2025.
