 Gaussian 16, Revision C.01,
 Gaussian 16:  ES64L-G16RevC.01  3-Jul-2019

 -----------------------------------------
 # sp b3lyp/6-311g** Force nosymm scf=(qc)
 -----------------------------------------

 -------------------
 Title Card Required
 -------------------
 Symbolic Z-matrix:
 Charge =  0 Multiplicity = 2

                          Input orientation:
 ---------------------------------------------------------------------
 Center     Atomic      Atomic             Coordinates (Angstroms)
 Number     Number       Type             X           Y           Z
 ---------------------------------------------------------------------
      1          1           0        0.000000    0.000000    0.000000
      2          1           0       -1.600000    0.000000    0.000000
      3          9           0        0.850000    0.000000    0.000000
 ---------------------------------------------------------------------

 SCF Done:  E(UB3LYP) =  -100.963938928     a.u. after    6 cycles

 Alpha  occ. eigenvalues --  -24.63500  -1.20748  -0.55627  -0.39873  -0.39873
 Alpha  occ. eigenvalues --   -0.36484
 Alpha virt. eigenvalues --    0.10661   0.21961   0.41411   0.94408   0.94408
 Alpha virt. eigenvalues --    0.97689   1.18127   1.18127   1.21633   1.41527
 Alpha virt. eigenvalues --    1.41527   1.53839   2.04253   2.20865   2.61627

  Beta  occ. eigenvalues --  -24.63356  -1.20374  -0.54711  -0.39753  -0.39753
  Beta virt. eigenvalues --   -0.13511   0.12447   0.29560   0.44551   0.94505
  Beta virt. eigenvalues --    0.94505   0.98000   1.30231   1.30873   1.30873
  Beta virt. eigenvalues --    1.46518   1.46518   1.58965   2.13806   2.29799

 Mulliken charges and spin densities:
               1          2
     1  H    0.264490   0.009952
     2  H    0.020734   0.957560
     3  F   -0.285224   0.032487
 Sum of Mulliken charges =   0.00000   1.00000

 Dipole moment (field-independent basis, Debye):
    X=             -1.9744    Y=             -0.0000    Z=             -0.0000  Tot=              1.9744
 Quadrupole moment (field-independent basis, Debye-Ang):
   XX=             -7.3638   YY=             -6.7277   ZZ=             -6.7277
   XY=             -0.0000   XZ=             -0.0000   YZ=              0.0000

  Exact polarizability:       9.323      -0.000       2.531      -0.000      -0.000       2.531
 Approx polarizability:       9.500       0.000       2.532       0.000      -0.000       2.532

 ******    2 imaginary frequencies (negative Signs) ******

                      1                      2                      3
                      A                      A                      A
 Frequencies --  -1334.7787             -1334.7787               547.2154
 Red. masses --      1.0271                 1.0271                 1.0529
 Frc consts  --      1.0781                 1.0781                 0.1858
 IR Inten    --    131.1227               131.1227                 0.0354

                      4
                      A
 Frequencies --   5248.7961
 Red. masses --      1.0587
 Frc consts  --     17.1849
 IR Inten    --    193.7730

 - Thermochemistry -
 -------------------
 Temperature   298.150 Kelvin.  Pressure   1.00000 Atm.
 Atom     1 has atomic number  1 and mass   1.00783

 Molecular mass:    21.01405 amu.
 Principal axes and moments of inertia in atomic units:
                           1         2         3
     Eigenvalues --     0.00000  22.32364  22.32364
           X            1.00000  -0.00000   0.00000
           Y            0.00000   1.00000   0.00000
           Z            0.00000   0.00000   1.00000
 This molecule is a prolate symmetric top.
 Rotational symmetry number  1.
 Rotational temperature (Kelvin)      3.87992
 Rotational constant (GHZ):          80.844385
    2 imaginary frequencies ignored.
 Zero-point vibrational energy      34667.8 (Joules/Mol)
                                    8.28581 (Kcal/Mol)
 Warning -- explicit consideration of   1 degrees of freedom as
           vibrations may cause significant error
 Vibrational temperatures:    787.32  7551.85
          (Kelvin)

 Zero-point correction=                           0.013204 (Hartree/Particle)
 Thermal correction to Energy=                    0.015756
 Thermal correction to Enthalpy=                  0.016700
 Thermal correction to Gibbs Free Energy=        -0.005921
 Sum of electronic and zero-point Energies=           -100.950735
 Sum of electronic and thermal Energies=              -100.948183
 Sum of electronic and thermal Enthalpies=            -100.947239
 Sum of electronic and thermal Free Energies=         -100.969860

                     E (Thermal)             CV                S
                      KCal/Mol        Cal/Mol-Kelvin    Cal/Mol-Kelvin
 Total                    9.887              6.114             47.611
 Electronic               0.000              0.000              1.377
 Translational            0.889              2.981             35.068
 Rotational               0.592              1.987             10.615
 Vibrational              8.406              1.146              0.550
 Vibration     1          0.902              1.146              0.550

 Normal termination of Gaussian 16 at Fri Aug 22 15:53:11 2025.
