 Gaussian 16, Revision C.01,
 Gaussian 16:  ES64L-G16RevC.01  3-Jul-2019

 -----------------------------------------
 # sp b3lyp/6-311g** Force nosymm scf=(qc)
 -----------------------------------------

 -------------------
 Title Card Required
 -------------------
 Symbolic Z-matrix:
 Charge =  0 Multiplicity = 2

                          Input orientation:
 ---------------------------------------------------------------------
 Center     Atomic      Atomic             Coordinates (Angstroms)
 Number     Number       Type             X           Y           Z
 ---------------------------------------------------------------------
      1          1           0        0.000000    0.000000    0.000000
      2          1           0       -1.650000    0.000000    0.000000
      3          9           0        2.550000    0.000000    0.000000
 ---------------------------------------------------------------------

 SCF Done:  E(UB3LYP) =  -100.804959508     a.u. after   20 cycles

 Alpha  occ. eigenvalues --  -24.72944  -1.19082  -0.52092  -0.43723  -0.43723
 Alpha  occ. eigenvalues --   -0.35396
 Alpha virt. eigenvalues --   -0.11863   0.24219   0.30898   0.89405   0.92898
 Alpha virt. eigenvalues --    0.92898   1.03265   1.12667   1.20896   1.20896
 Alpha virt. eigenvalues --    1.36651   1.36651   1.68892   2.15848   2.42150

  Beta  occ. eigenvalues --  -24.70021  -1.10737  -0.40804  -0.40804  -0.35054
  Beta virt. eigenvalues --   -0.24481  -0.11240   0.25741   0.30599   0.94302
  Beta virt. eigenvalues --    0.94302   0.96025   1.05879   1.16178   1.21423
  Beta virt. eigenvalues --    1.21423   1.37215   1.37215   1.69536   2.16866

 Mulliken charges and spin densities:
               1          2
     1  H    0.027487  -0.524610
     2  H    0.036705   0.600340
     3  F   -0.064191   0.924270
 Sum of Mulliken charges =   0.00000   1.00000

 Dipole moment (field-independent basis, Debye):
    X=             -1.1220    Y=              0.0000    Z=             -0.0000  Tot=              1.1220
 Quadrupole moment (field-independent basis, Debye-Ang):
   XX=             -7.2812   YY=             -7.6936   ZZ=             -7.6936
   XY=              0.0000   XZ=             -0.0000   YZ=              0.0000

  Exact polarizability:      62.412       0.000       2.027      -0.000      -0.000       2.027
 Approx polarizability:      79.839      -0.000       1.984       0.000      -0.000       1.984

 ******    2 imaginary frequencies (negative Signs) ******

                      1                      2                      3
                      A                      A                      A
 Frequencies --  -1990.9859              -336.8812               941.2830
 Red. masses --      1.0083                 1.1080                 1.0135
 Frc consts  --      2.3549                 0.0741                 0.5291
 IR Inten    --    298.0488                43.2527                 0.1036

                      4
                      A
 Frequencies --    941.2830
 Red. masses --      1.0135
 Frc consts  --      0.5291
 IR Inten    --      0.1036

 - Thermochemistry -
 -------------------
 Temperature   298.150 Kelvin.  Pressure   1.00000 Atm.
 Atom     1 has atomic number  1 and mass   1.00783

 Molecular mass:    21.01405 amu.
 Principal axes and moments of inertia in atomic units:
                           1         2         3
     Eigenvalues --     0.00000  79.02466  79.02466
           X            1.00000  -0.00000   0.00000
           Y            0.00000   1.00000   0.00000
           Z            0.00000   0.00000   1.00000
 This molecule is a prolate symmetric top.
 Rotational symmetry number  1.
 Rotational temperature (Kelvin)      1.09604
 Rotational constant (GHZ):          22.837696
    2 imaginary frequencies ignored.
 Zero-point vibrational energy      11260.2 (Joules/Mol)
                                    2.69126 (Kcal/Mol)
 Vibrational temperatures:   1354.30  1354.30
          (Kelvin)

 Zero-point correction=                           0.004289 (Hartree/Particle)
 Thermal correction to Energy=                    0.006742
 Thermal correction to Enthalpy=                  0.007686
 Thermal correction to Gibbs Free Energy=        -0.015980
 Sum of electronic and zero-point Energies=           -100.800671
 Sum of electronic and thermal Energies=              -100.798218
 Sum of electronic and thermal Enthalpies=            -100.797274
 Sum of electronic and thermal Free Energies=         -100.820940

                     E (Thermal)             CV                S
                      KCal/Mol        Cal/Mol-Kelvin    Cal/Mol-Kelvin
 Total                    4.230              5.860             49.810
 Electronic               0.000              0.000              1.377
 Translational            0.889              2.981             35.068
 Rotational               0.592              1.987             13.127
 Vibrational              2.749              0.892              0.237

 Normal termination of Gaussian 16 at Fri Aug 22 17:53:26 2025.
