 Gaussian 16, Revision C.01,
 Gaussian 16:  ES64L-G16RevC.01  3-Jul-2019

 -----------------------------------------
 # sp b3lyp/6-311g** Force nosymm scf=(qc)
 -----------------------------------------

 -------------------
 Title Card Required
 -------------------
 Symbolic Z-matrix:
 Charge =  0 Multiplicity = 2

                          Input orientation:
 ---------------------------------------------------------------------
 Center     Atomic      Atomic             Coordinates (Angstroms)
 Number     Number       Type             X           Y           Z
 ---------------------------------------------------------------------
      1          1           0        0.000000    0.000000    0.000000
      2          1           0       -1.450000    0.000000    0.000000
      3          9           0        2.150000    0.000000    0.000000
 ---------------------------------------------------------------------

 SCF Done:  E(UB3LYP) =  -100.836816425     a.u. after   11 cycles

 Alpha  occ. eigenvalues --  -24.71414  -1.17681  -0.50778  -0.42477  -0.42477
 Alpha  occ. eigenvalues --   -0.37434
 Alpha virt. eigenvalues --   -0.09942   0.22744   0.31658   0.86135   0.93322
 Alpha virt. eigenvalues --    0.93322   1.03347   1.15910   1.15910   1.25009
 Alpha virt. eigenvalues --    1.40686   1.40686   1.84728   2.21182   2.46742

  Beta  occ. eigenvalues --  -24.68658  -1.09870  -0.39737  -0.39737  -0.36859
  Beta virt. eigenvalues --   -0.24219  -0.08575   0.24272   0.31692   0.91232
  Beta virt. eigenvalues --    0.94553   0.94553   1.07013   1.17228   1.17228
  Beta virt. eigenvalues --    1.28936   1.41483   1.41483   1.85992   2.22318

 Mulliken charges and spin densities:
               1          2
     1  H    0.051597  -0.292784
     2  H    0.054460   0.425080
     3  F   -0.106057   0.867704
 Sum of Mulliken charges =  -0.00000   1.00000

 Dipole moment (field-independent basis, Debye):
    X=             -1.5147    Y=             -0.0000    Z=             -0.0000  Tot=              1.5147
 Quadrupole moment (field-independent basis, Debye-Ang):
   XX=             -7.3140   YY=             -7.5637   ZZ=             -7.5637
   XY=             -0.0000   XZ=             -0.0000   YZ=             -0.0000

  Exact polarizability:      53.683      -0.000       2.099      -0.000       0.000       2.099
 Approx polarizability:      80.831       0.000       2.067       0.000       0.000       2.067

 ******    2 imaginary frequencies (negative Signs) ******

                      1                      2                      3
                      A                      A                      A
 Frequencies --  -2057.2685              -395.6307              1160.0172
 Red. masses --      1.0105                 1.1053                 1.0139
 Frc consts  --      2.5197                 0.1019                 0.8038
 IR Inten    --    908.1037                20.5559                 0.3862

                      4
                      A
 Frequencies --   1160.0172
 Red. masses --      1.0139
 Frc consts  --      0.8038
 IR Inten    --      0.3862

 - Thermochemistry -
 -------------------
 Temperature   298.150 Kelvin.  Pressure   1.00000 Atm.
 Atom     1 has atomic number  1 and mass   1.00783

 Molecular mass:    21.01405 amu.
 Principal axes and moments of inertia in atomic units:
                           1         2         3
     Eigenvalues --     0.00000  57.57275  57.57275
           X            1.00000  -0.00000   0.00000
           Y            0.00000   1.00000   0.00000
           Z            0.00000   0.00000   1.00000
 This molecule is a prolate symmetric top.
 Rotational symmetry number  1.
 Rotational temperature (Kelvin)      1.50443
 Rotational constant (GHZ):          31.347142
    2 imaginary frequencies ignored.
 Zero-point vibrational energy      13876.9 (Joules/Mol)
                                    3.31666 (Kcal/Mol)
 Vibrational temperatures:   1669.01  1669.01
          (Kelvin)

 Zero-point correction=                           0.005285 (Hartree/Particle)
 Thermal correction to Energy=                    0.007685
 Thermal correction to Enthalpy=                  0.008629
 Thermal correction to Gibbs Free Energy=        -0.014671
 Sum of electronic and zero-point Energies=           -100.831531
 Sum of electronic and thermal Energies=              -100.829131
 Sum of electronic and thermal Enthalpies=            -100.828187
 Sum of electronic and thermal Free Energies=         -100.851488

                     E (Thermal)             CV                S
                      KCal/Mol        Cal/Mol-Kelvin    Cal/Mol-Kelvin
 Total                    4.823              5.433             49.041
 Electronic               0.000              0.000              1.377
 Translational            0.889              2.981             35.068
 Rotational               0.592              1.987             12.498
 Vibrational              3.341              0.465              0.098

 Normal termination of Gaussian 16 at Fri Aug 22 17:07:09 2025.
