 Gaussian 16, Revision C.01,
 Gaussian 16:  ES64L-G16RevC.01  3-Jul-2019

 -----------------------------------------
 # sp b3lyp/6-311g** Force nosymm scf=(qc)
 -----------------------------------------

 -------------------
 Title Card Required
 -------------------
 Symbolic Z-matrix:
 Charge =  0 Multiplicity = 2

                          Input orientation:
 ---------------------------------------------------------------------
 Center     Atomic      Atomic             Coordinates (Angstroms)
 Number     Number       Type             X           Y           Z
 ---------------------------------------------------------------------
      1          1           0        0.000000    0.000000    0.000000
      2          1           0       -2.150000    0.000000    0.000000
      3          9           0        1.100000    0.000000    0.000000
 ---------------------------------------------------------------------

 SCF Done:  E(UB3LYP) =  -100.949585490     a.u. after    6 cycles

 Alpha  occ. eigenvalues --  -24.63921  -1.13598  -0.49591  -0.37793  -0.37793
 Alpha  occ. eigenvalues --   -0.35984
 Alpha virt. eigenvalues --   -0.00271   0.24439   0.30791   0.93860   0.93860
 Alpha virt. eigenvalues --    0.99599   1.15954   1.21472   1.21472   1.35605
 Alpha virt. eigenvalues --    1.35605   1.43707   1.78878   2.13300   2.33395

  Beta  occ. eigenvalues --  -24.63844  -1.13407  -0.49201  -0.37725  -0.37725
  Beta virt. eigenvalues --   -0.12559   0.02293   0.30695   0.35266   0.93863
  Beta virt. eigenvalues --    0.93863   0.99896   1.24988   1.35267   1.35267
  Beta virt. eigenvalues --    1.41672   1.41672   1.53738   1.79236   2.30838

 Mulliken charges and spin densities:
               1          2
     1  H    0.327838   0.001169
     2  H    0.016511   0.976577
     3  F   -0.344349   0.022254
 Sum of Mulliken charges =  -0.00000   1.00000

 Dipole moment (field-independent basis, Debye):
    X=             -2.3530    Y=              0.0000    Z=              0.0000  Tot=              2.3530
 Quadrupole moment (field-independent basis, Debye-Ang):
   XX=             -8.0924   YY=             -7.0232   ZZ=             -7.0232
   XY=              0.0000   XZ=              0.0000   YZ=             -0.0000

  Exact polarizability:      12.169       0.000       2.411      -0.000       0.000       2.411
 Approx polarizability:      14.242       0.000       2.382       0.000       0.000       2.382

 ******    1 imaginary frequencies (negative Signs) ******

                      1                      2                      3
                      A                      A                      A
 Frequencies --   -176.7555              1146.5267              1146.5267
 Red. masses --      1.0497                 1.0277                 1.0277
 Frc consts  --      0.0193                 0.7959                 0.7959
 IR Inten    --      5.6676               129.2813               129.2813

                      4
                      A
 Frequencies --   1869.3466
 Red. masses --      1.0619
 Frc consts  --      2.1863
 IR Inten    --    170.0007

 - Thermochemistry -
 -------------------
 Temperature   298.150 Kelvin.  Pressure   1.00000 Atm.
 Atom     1 has atomic number  1 and mass   1.00783

 Molecular mass:    21.01405 amu.
 Principal axes and moments of inertia in atomic units:
                           1         2         3
     Eigenvalues --     0.00000  39.10317  39.10317
           X            1.00000  -0.00000   0.00000
           Y            0.00000   1.00000   0.00000
           Z            0.00000   0.00000   1.00000
 This molecule is a prolate symmetric top.
 Rotational symmetry number  1.
 Rotational temperature (Kelvin)      2.21501
 Rotational constant (GHZ):          46.153318
    1 imaginary frequencies ignored.
 Zero-point vibrational energy      24896.7 (Joules/Mol)
                                    5.95045 (Kcal/Mol)
 Vibrational temperatures:   1649.60  1649.60  2689.57
          (Kelvin)

 Zero-point correction=                           0.009483 (Hartree/Particle)
 Thermal correction to Energy=                    0.011886
 Thermal correction to Enthalpy=                  0.012830
 Thermal correction to Gibbs Free Energy=        -0.010110
 Sum of electronic and zero-point Energies=           -100.940103
 Sum of electronic and thermal Energies=              -100.937700
 Sum of electronic and thermal Enthalpies=            -100.936756
 Sum of electronic and thermal Free Energies=         -100.959695

                     E (Thermal)             CV                S
                      KCal/Mol        Cal/Mol-Kelvin    Cal/Mol-Kelvin
 Total                    7.458              5.473             48.280
 Electronic               0.000              0.000              1.377
 Translational            0.889              2.981             35.068
 Rotational               0.592              1.987             11.729
 Vibrational              5.977              0.505              0.105

 Normal termination of Gaussian 16 at Fri Aug 22 16:05:26 2025.
