 Gaussian 16, Revision C.01,
 Gaussian 16:  ES64L-G16RevC.01  3-Jul-2019

 -----------------------------------------
 # sp b3lyp/6-311g** Force nosymm scf=(qc)
 -----------------------------------------

 -------------------
 Title Card Required
 -------------------
 Symbolic Z-matrix:
 Charge =  0 Multiplicity = 2

                          Input orientation:
 ---------------------------------------------------------------------
 Center     Atomic      Atomic             Coordinates (Angstroms)
 Number     Number       Type             X           Y           Z
 ---------------------------------------------------------------------
      1          1           0        0.000000    0.000000    0.000000
      2          1           0       -3.350000    0.000000    0.000000
      3          9           0        3.650000    0.000000    0.000000
 ---------------------------------------------------------------------

 SCF Done:  E(UB3LYP) =  -100.759067976     a.u. after   33 cycles

 Alpha  occ. eigenvalues --  -24.75604  -1.21551  -0.54728  -0.45950  -0.45950
 Alpha  occ. eigenvalues --   -0.32327
 Alpha virt. eigenvalues --   -0.07118   0.24488   0.37042   0.87183   0.91345
 Alpha virt. eigenvalues --    0.91345   1.01488   1.25183   1.25183   1.25436
 Alpha virt. eigenvalues --    1.44964   1.45175   1.45175   2.15268   2.40734

  Beta  occ. eigenvalues --  -24.72476  -1.12560  -0.42815  -0.42815  -0.32681
  Beta virt. eigenvalues --   -0.25595  -0.06722   0.24277   0.37702   0.92838
  Beta virt. eigenvalues --    0.92838   0.96415   1.05548   1.24783   1.24783
  Beta virt. eigenvalues --    1.25014   1.45577   1.45809   1.45809   2.15402

 Mulliken charges and spin densities:
               1          2
     1  H    0.007283  -0.988642
     2  H    0.000198   0.996906
     3  F   -0.007481   0.991735
 Sum of Mulliken charges =  -0.00000   1.00000

 Dipole moment (field-independent basis, Debye):
    X=             -0.1438    Y=              0.0000    Z=             -0.0000  Tot=              0.1438
 Quadrupole moment (field-independent basis, Debye-Ang):
   XX=             -7.1813   YY=             -7.6256   ZZ=             -7.6256
   XY=             -0.0000   XZ=              0.0000   YZ=              0.0000

  Exact polarizability:      20.050       0.000       2.045       0.000       0.000       2.045
 Approx polarizability:      15.101      -0.000       1.934       0.000      -0.000       1.934

 ******    2 imaginary frequencies (negative Signs) ******

                      1                      2                      3
                      A                      A                      A
 Frequencies --   -248.2642              -101.8392                76.9241
 Red. masses --      1.0153                 1.0996                 1.0169
 Frc consts  --      0.0369                 0.0067                 0.0035
 IR Inten    --      4.9070                 1.6482                 0.0395

                      4
                      A
 Frequencies --     76.9246
 Red. masses --      1.0169
 Frc consts  --      0.0035
 IR Inten    --      0.0395

 - Thermochemistry -
 -------------------
 Temperature   298.150 Kelvin.  Pressure   1.00000 Atm.
 Atom     1 has atomic number  1 and mass   1.00783

 Molecular mass:    21.01405 amu.
 Principal axes and moments of inertia in atomic units:
                           1         2         3
     Eigenvalues --     0.00000 204.72170 204.72170
           X            1.00000  -0.00000   0.00000
           Y            0.00000   1.00000   0.00000
           Z            0.00000   0.00000   1.00000
 This molecule is a prolate symmetric top.
 Rotational symmetry number  1.
 Rotational temperature (Kelvin)      0.42308
 Rotational constant (GHZ):           8.815583
    2 imaginary frequencies ignored.
 Zero-point vibrational energy        920.2 (Joules/Mol)
                                    0.21994 (Kcal/Mol)
 Warning -- explicit consideration of   2 degrees of freedom as
           vibrations may cause significant error
 Vibrational temperatures:    110.68   110.68
          (Kelvin)

 Zero-point correction=                           0.000350 (Hartree/Particle)
 Thermal correction to Energy=                    0.004270
 Thermal correction to Enthalpy=                  0.005215
 Thermal correction to Gibbs Free Energy=        -0.023008
 Sum of electronic and zero-point Energies=           -100.758717
 Sum of electronic and thermal Energies=              -100.754798
 Sum of electronic and thermal Enthalpies=            -100.753853
 Sum of electronic and thermal Free Energies=         -100.782076

                     E (Thermal)             CV                S
                      KCal/Mol        Cal/Mol-Kelvin    Cal/Mol-Kelvin
 Total                    2.680              8.897             59.400
 Electronic               0.000              0.000              1.377
 Translational            0.889              2.981             35.068
 Rotational               0.592              1.987             15.019
 Vibrational              1.199              3.929              7.936
 Vibration     1          0.599              1.965              3.968
 Vibration     2          0.599              1.965              3.968

 Normal termination of Gaussian 16 at Fri Aug 22 23:37:51 2025.
