 Gaussian 16, Revision C.01,
 Gaussian 16:  ES64L-G16RevC.01  3-Jul-2019

 -----------------------------------------
 # sp b3lyp/6-311g** Force nosymm scf=(qc)
 -----------------------------------------

 -------------------
 Title Card Required
 -------------------
 Symbolic Z-matrix:
 Charge =  0 Multiplicity = 2

                          Input orientation:
 ---------------------------------------------------------------------
 Center     Atomic      Atomic             Coordinates (Angstroms)
 Number     Number       Type             X           Y           Z
 ---------------------------------------------------------------------
      1          1           0        0.000000    0.000000    0.000000
      2          1           0       -2.000000    0.000000    0.000000
      3          9           0        1.450000    0.000000    0.000000
 ---------------------------------------------------------------------

 SCF Done:  E(UB3LYP) =  -100.870761523     a.u. after   10 cycles

 Alpha  occ. eigenvalues --  -24.63719  -1.09872  -0.44543  -0.37093  -0.36087
 Alpha  occ. eigenvalues --   -0.36087
 Alpha virt. eigenvalues --   -0.10430   0.23197   0.27300   0.93981   0.93981
 Alpha virt. eigenvalues --    1.02678   1.06074   1.19994   1.19994   1.33834
 Alpha virt. eigenvalues --    1.33834   1.34982   1.72430   2.10070   2.27022

  Beta  occ. eigenvalues --  -24.63198  -1.08505  -0.42589  -0.35596  -0.35596
  Beta virt. eigenvalues --   -0.17651  -0.06223   0.26190   0.32669   0.93861
  Beta virt. eigenvalues --    0.93861   1.04531   1.09712   1.31304   1.31304
  Beta virt. eigenvalues --    1.38277   1.38277   1.47148   1.72707   2.17510

 Mulliken charges and spin densities:
               1          2
     1  H    0.315516  -0.100873
     2  H    0.042913   0.938797
     3  F   -0.358429   0.162076
 Sum of Mulliken charges =   0.00000   1.00000

 Dipole moment (field-independent basis, Debye):
    X=             -2.9856    Y=              0.0000    Z=              0.0000  Tot=              2.9856
 Quadrupole moment (field-independent basis, Debye-Ang):
   XX=             -8.7658   YY=             -7.2662   ZZ=             -7.2662
   XY=              0.0000   XZ=              0.0000   YZ=             -0.0000

  Exact polarizability:      25.564      -0.000       2.253      -0.000      -0.000       2.253
 Approx polarizability:      36.363       0.000       2.190       0.000       0.000       2.190

 ******    2 imaginary frequencies (negative Signs) ******

                      1                      2                      3
                      A                      A                      A
 Frequencies --  -1685.8148              -353.7164              1020.9031
 Red. masses --      1.0353                 1.0770                 1.0223
 Frc consts  --      1.7336                 0.0794                 0.6277
 IR Inten    --    102.3610                 0.0507                76.0533

                      4
                      A
 Frequencies --   1020.9031
 Red. masses --      1.0223
 Frc consts  --      0.6277
 IR Inten    --     76.0533

 - Thermochemistry -
 -------------------
 Temperature   298.150 Kelvin.  Pressure   1.00000 Atm.
 Atom     1 has atomic number  1 and mass   1.00783

 Molecular mass:    21.01405 amu.
 Principal axes and moments of inertia in atomic units:
                           1         2         3
     Eigenvalues --     0.00000  46.25982  46.25982
           X            1.00000  -0.00000   0.00000
           Y            0.00000   1.00000   0.00000
           Z            0.00000   0.00000   1.00000
 This molecule is a prolate symmetric top.
 Rotational symmetry number  1.
 Rotational temperature (Kelvin)      1.87234
 Rotational constant (GHZ):          39.013146
    2 imaginary frequencies ignored.
 Zero-point vibrational energy      12212.7 (Joules/Mol)
                                    2.91891 (Kcal/Mol)
 Vibrational temperatures:   1468.85  1468.85
          (Kelvin)

 Zero-point correction=                           0.004652 (Hartree/Particle)
 Thermal correction to Energy=                    0.007080
 Thermal correction to Enthalpy=                  0.008024
 Thermal correction to Gibbs Free Energy=        -0.015106
 Sum of electronic and zero-point Energies=           -100.866110
 Sum of electronic and thermal Energies=              -100.863682
 Sum of electronic and thermal Enthalpies=            -100.862737
 Sum of electronic and thermal Free Energies=         -100.885867

                     E (Thermal)             CV                S
                      KCal/Mol        Cal/Mol-Kelvin    Cal/Mol-Kelvin
 Total                    4.443              5.678             48.681
 Electronic               0.000              0.000              1.377
 Translational            0.889              2.981             35.068
 Rotational               0.592              1.987             12.063
 Vibrational              2.962              0.710              0.172

 Normal termination of Gaussian 16 at Fri Aug 22 16:22:48 2025.
