 Gaussian 16, Revision C.01,
 Gaussian 16:  ES64L-G16RevC.01  3-Jul-2019

 -----------------------------------------
 # sp b3lyp/6-311g** Force nosymm scf=(qc)
 -----------------------------------------

 -------------------
 Title Card Required
 -------------------
 Symbolic Z-matrix:
 Charge =  0 Multiplicity = 2

                          Input orientation:
 ---------------------------------------------------------------------
 Center     Atomic      Atomic             Coordinates (Angstroms)
 Number     Number       Type             X           Y           Z
 ---------------------------------------------------------------------
      1          1           0        0.000000    0.000000    0.000000
      2          1           0       -2.050000    0.000000    0.000000
      3          9           0        2.600000    0.000000    0.000000
 ---------------------------------------------------------------------

 SCF Done:  E(UB3LYP) =  -100.778392376     a.u. after   21 cycles

 Alpha  occ. eigenvalues --  -24.72447  -1.18609  -0.51557  -0.43290  -0.43290
 Alpha  occ. eigenvalues --   -0.34461
 Alpha virt. eigenvalues --   -0.12503   0.25018   0.32132   0.90269   0.93247
 Alpha virt. eigenvalues --    0.93247   1.05937   1.20856   1.23470   1.23470
 Alpha virt. eigenvalues --    1.35746   1.35746   1.47433   2.11657   2.34859

  Beta  occ. eigenvalues --  -24.69547  -1.10335  -0.40395  -0.40395  -0.34851
  Beta virt. eigenvalues --   -0.23908  -0.11361   0.26437   0.32378   0.94650
  Beta virt. eigenvalues --    0.94650   0.97856   1.09150   1.22505   1.23078
  Beta virt. eigenvalues --    1.23078   1.37608   1.37608   1.48390   2.12507

 Mulliken charges and spin densities:
               1          2
     1  H    0.048021  -0.803377
     2  H    0.024063   0.886147
     3  F   -0.072084   0.917230
 Sum of Mulliken charges =  -0.00000   1.00000

 Dipole moment (field-independent basis, Debye):
    X=             -1.1928    Y=             -0.0000    Z=             -0.0000  Tot=              1.1928
 Quadrupole moment (field-independent basis, Debye-Ang):
   XX=             -8.0897   YY=             -7.6684   ZZ=             -7.6684
   XY=             -0.0000   XZ=             -0.0000   YZ=              0.0000

  Exact polarizability:      58.653      -0.000       2.006      -0.000      -0.000       2.006
 Approx polarizability:      60.174      -0.000       1.926      -0.000       0.000       1.926

 ******    2 imaginary frequencies (negative Signs) ******

                      1                      2                      3
                      A                      A                      A
 Frequencies --  -1302.8374              -357.4583               520.4257
 Red. masses --      1.0090                 1.1071                 1.0153
 Frc consts  --      1.0091                 0.0833                 0.1620
 IR Inten    --     58.5112                46.3890                 1.2738

                      4
                      A
 Frequencies --    520.4257
 Red. masses --      1.0153
 Frc consts  --      0.1620
 IR Inten    --      1.2738

 - Thermochemistry -
 -------------------
 Temperature   298.150 Kelvin.  Pressure   1.00000 Atm.
 Atom     1 has atomic number  1 and mass   1.00783

 Molecular mass:    21.01405 amu.
 Principal axes and moments of inertia in atomic units:
                           1         2         3
     Eigenvalues --     0.00000  93.07621  93.07621
           X            1.00000  -0.00000   0.00000
           Y            0.00000   1.00000   0.00000
           Z            0.00000   0.00000   1.00000
 This molecule is a prolate symmetric top.
 Rotational symmetry number  1.
 Rotational temperature (Kelvin)      0.93057
 Rotational constant (GHZ):          19.389930
    2 imaginary frequencies ignored.
 Zero-point vibrational energy       6225.7 (Joules/Mol)
                                    1.48797 (Kcal/Mol)
 Warning -- explicit consideration of   2 degrees of freedom as
           vibrations may cause significant error
 Vibrational temperatures:    748.78   748.78
          (Kelvin)

 Zero-point correction=                           0.002371 (Hartree/Particle)
 Thermal correction to Energy=                    0.005151
 Thermal correction to Enthalpy=                  0.006095
 Thermal correction to Gibbs Free Energy=        -0.018192
 Sum of electronic and zero-point Energies=           -100.776021
 Sum of electronic and thermal Energies=              -100.773242
 Sum of electronic and thermal Enthalpies=            -100.772298
 Sum of electronic and thermal Free Energies=         -100.796584

                     E (Thermal)             CV                S
                      KCal/Mol        Cal/Mol-Kelvin    Cal/Mol-Kelvin
 Total                    3.232              7.378             51.116
 Electronic               0.000              0.000              1.377
 Translational            0.889              2.981             35.068
 Rotational               0.592              1.987             13.452
 Vibrational              1.751              2.410              1.218
 Vibration     1          0.875              1.205              0.609
 Vibration     2          0.875              1.205              0.609

 Normal termination of Gaussian 16 at Fri Aug 22 18:03:47 2025.
