 Gaussian 16, Revision C.01,
 Gaussian 16:  ES64L-G16RevC.01  3-Jul-2019

 -----------------------------------------
 # sp b3lyp/6-311g** Force nosymm scf=(qc)
 -----------------------------------------

 -------------------
 Title Card Required
 -------------------
 Symbolic Z-matrix:
 Charge =  0 Multiplicity = 2

                          Input orientation:
 ---------------------------------------------------------------------
 Center     Atomic      Atomic             Coordinates (Angstroms)
 Number     Number       Type             X           Y           Z
 ---------------------------------------------------------------------
      1          1           0        0.000000    0.000000    0.000000
      2          1           0       -3.400000    0.000000    0.000000
      3          9           0        1.700000    0.000000    0.000000
 ---------------------------------------------------------------------

 SCF Done:  E(UB3LYP) =  -100.814592447     a.u. after    9 cycles

 Alpha  occ. eigenvalues --  -24.64195  -1.08809  -0.40935  -0.35967  -0.35967
 Alpha  occ. eigenvalues --   -0.34165
 Alpha virt. eigenvalues --   -0.18758   0.19877   0.27524   0.94888   0.94888
 Alpha virt. eigenvalues --    0.96547   1.07404   1.23338   1.23338   1.23426
 Alpha virt. eigenvalues --    1.27605   1.27605   1.70303   2.13162   2.16158

  Beta  occ. eigenvalues --  -24.64215  -1.08863  -0.40955  -0.35986  -0.35986
  Beta virt. eigenvalues --   -0.18846  -0.07124   0.22864   0.37895   0.94900
  Beta virt. eigenvalues --    0.94900   0.96604   1.07415   1.27768   1.27768
  Beta virt. eigenvalues --    1.45186   1.45671   1.45671   1.70426   2.15931

 Mulliken charges and spin densities:
               1          2
     1  H    0.325102   0.009653
     2  H    0.003355   0.996517
     3  F   -0.328458  -0.006170
 Sum of Mulliken charges =  -0.00000   1.00000

 Dipole moment (field-independent basis, Debye):
    X=             -2.8058    Y=              0.0000    Z=              0.0000  Tot=              2.8058
 Quadrupole moment (field-independent basis, Debye-Ang):
   XX=            -10.5698   YY=             -7.4196   ZZ=             -7.4196
   XY=              0.0000   XZ=             -0.0000   YZ=             -0.0000

  Exact polarizability:      21.191       0.000       2.103      -0.000      -0.000       2.103
 Approx polarizability:      47.824       0.000       2.016       0.000       0.000       2.016

 ******    2 imaginary frequencies (negative Signs) ******

                      1                      2                      3
                      A                      A                      A
 Frequencies --  -1189.1743              -105.9064               864.5427
 Red. masses --      1.0570                 1.0545                 1.0281
 Frc consts  --      0.8807                 0.0070                 0.4527
 IR Inten    --     44.1981                 0.7070               100.1617

                      4
                      A
 Frequencies --    864.5427
 Red. masses --      1.0281
 Frc consts  --      0.4527
 IR Inten    --    100.1617

 - Thermochemistry -
 -------------------
 Temperature   298.150 Kelvin.  Pressure   1.00000 Atm.
 Atom     1 has atomic number  1 and mass   1.00783

 Molecular mass:    21.01405 amu.
 Principal axes and moments of inertia in atomic units:
                           1         2         3
     Eigenvalues --     0.00000  96.03000  96.03000
           X            1.00000  -0.00000   0.00000
           Y            0.00000   1.00000   0.00000
           Z            0.00000   0.00000   1.00000
 This molecule is a prolate symmetric top.
 Rotational symmetry number  1.
 Rotational temperature (Kelvin)      0.90195
 Rotational constant (GHZ):          18.793514
    2 imaginary frequencies ignored.
 Zero-point vibrational energy      10342.2 (Joules/Mol)
                                    2.47185 (Kcal/Mol)
 Vibrational temperatures:   1243.88  1243.88
          (Kelvin)

 Zero-point correction=                           0.003939 (Hartree/Particle)
 Thermal correction to Energy=                    0.006423
 Thermal correction to Enthalpy=                  0.007367
 Thermal correction to Gibbs Free Energy=        -0.016523
 Sum of electronic and zero-point Energies=           -100.810653
 Sum of electronic and thermal Energies=              -100.808169
 Sum of electronic and thermal Enthalpies=            -100.807225
 Sum of electronic and thermal Free Energies=         -100.831116

                     E (Thermal)             CV                S
                      KCal/Mol        Cal/Mol-Kelvin    Cal/Mol-Kelvin
 Total                    4.030              6.068             50.281
 Electronic               0.000              0.000              1.377
 Translational            0.889              2.981             35.068
 Rotational               0.592              1.987             13.515
 Vibrational              2.549              1.100              0.321

 Normal termination of Gaussian 16 at Fri Aug 22 16:38:42 2025.
