 Gaussian 16, Revision C.01,
 Gaussian 16:  ES64L-G16RevC.01  3-Jul-2019

 -----------------------------------------
 # sp b3lyp/6-311g** Force nosymm scf=(qc)
 -----------------------------------------

 -------------------
 Title Card Required
 -------------------
 Symbolic Z-matrix:
 Charge =  0 Multiplicity = 2

                          Input orientation:
 ---------------------------------------------------------------------
 Center     Atomic      Atomic             Coordinates (Angstroms)
 Number     Number       Type             X           Y           Z
 ---------------------------------------------------------------------
      1          1           0        0.000000    0.000000    0.000000
      2          1           0       -1.000000    0.000000    0.000000
      3          9           0        3.050000    0.000000    0.000000
 ---------------------------------------------------------------------

 SCF Done:  E(UB3LYP) =  -100.906718420     a.u. after    7 cycles

 Alpha  occ. eigenvalues --  -24.76163  -1.22062  -0.55291  -0.46430  -0.46430
 Alpha  occ. eigenvalues --   -0.39262
 Alpha virt. eigenvalues --    0.00084   0.21197   0.38416   0.89416   0.90954
 Alpha virt. eigenvalues --    0.90954   1.04180   1.08832   1.08832   1.37269
 Alpha virt. eigenvalues --    1.65478   1.65478   2.22910   2.36392   2.58680

  Beta  occ. eigenvalues --  -24.73022  -1.13029  -0.43281  -0.43281  -0.39236
  Beta virt. eigenvalues --   -0.26144   0.00233   0.21315   0.38773   0.92445
  Beta virt. eigenvalues --    0.92445   0.98225   1.08441   1.08874   1.08874
  Beta virt. eigenvalues --    1.37325   1.65512   1.65512   2.23013   2.36452

 Mulliken charges and spin densities:
               1          2
     1  H   -0.009034  -0.004147
     2  H    0.009209   0.008834
     3  F   -0.000175   0.995313
 Sum of Mulliken charges =   0.00000   1.00000

 Dipole moment (field-independent basis, Debye):
    X=             -0.0548    Y=             -0.0000    Z=             -0.0000  Tot=              0.0548
 Quadrupole moment (field-independent basis, Debye-Ang):
   XX=             -5.5304   YY=             -7.2709   ZZ=             -7.2709
   XY=             -0.0000   XZ=             -0.0000   YZ=             -0.0000

  Exact polarizability:      15.369      -0.000       2.060       0.000       0.000       2.060
 Approx polarizability:      18.833      -0.000       2.112       0.000       0.000       2.112

 ******    1 imaginary frequencies (negative Signs) ******

                      1                      2                      3
                      A                      A                      A
 Frequencies --    -75.3746              1533.9440              1533.9440
 Red. masses --      1.1085                 1.0098                 1.0098
 Frc consts  --      0.0037                 1.3999                 1.3999
 IR Inten    --      0.5994                 0.0862                 0.0862

                      4
                      A
 Frequencies --   1782.2045
 Red. masses --      1.0078
 Frc consts  --      1.8860
 IR Inten    --      7.1799

 - Thermochemistry -
 -------------------
 Temperature   298.150 Kelvin.  Pressure   1.00000 Atm.
 Atom     1 has atomic number  1 and mass   1.00783

 Molecular mass:    21.01405 amu.
 Principal axes and moments of inertia in atomic units:
                           1         2         3
     Eigenvalues --     0.00000  83.81140  83.81140
           X            1.00000  -0.00000   0.00000
           Y            0.00000   1.00000   0.00000
           Z            0.00000   0.00000   1.00000
 This molecule is a prolate symmetric top.
 Rotational symmetry number  1.
 Rotational temperature (Kelvin)      1.03344
 Rotational constant (GHZ):          21.533362
    1 imaginary frequencies ignored.
 Zero-point vibrational energy      29010.0 (Joules/Mol)
                                    6.93356 (Kcal/Mol)
 Vibrational temperatures:   2207.00  2207.00  2564.19
          (Kelvin)

 Zero-point correction=                           0.011049 (Hartree/Particle)
 Thermal correction to Energy=                    0.013420
 Thermal correction to Enthalpy=                  0.014364
 Thermal correction to Gibbs Free Energy=        -0.009256
 Sum of electronic and zero-point Energies=           -100.895669
 Sum of electronic and thermal Energies=              -100.893299
 Sum of electronic and thermal Enthalpies=            -100.892354
 Sum of electronic and thermal Free Energies=         -100.915975

                     E (Thermal)             CV                S
                      KCal/Mol        Cal/Mol-Kelvin    Cal/Mol-Kelvin
 Total                    8.421              5.128             49.713
 Electronic               0.000              0.000              1.377
 Translational            0.889              2.981             35.068
 Rotational               0.592              1.987             13.244
 Vibrational              6.940              0.160              0.024

 Normal termination of Gaussian 16 at Fri Aug 22 19:39:00 2025.
