 Gaussian 16, Revision C.01,
 Gaussian 16:  ES64L-G16RevC.01  3-Jul-2019

 -----------------------------------------
 # sp b3lyp/6-311g** Force nosymm scf=(qc)
 -----------------------------------------

 -------------------
 Title Card Required
 -------------------
 Symbolic Z-matrix:
 Charge =  0 Multiplicity = 2

                          Input orientation:
 ---------------------------------------------------------------------
 Center     Atomic      Atomic             Coordinates (Angstroms)
 Number     Number       Type             X           Y           Z
 ---------------------------------------------------------------------
      1          1           0        0.000000    0.000000    0.000000
      2          1           0       -2.550000    0.000000    0.000000
      3          9           0        3.800000    0.000000    0.000000
 ---------------------------------------------------------------------

 SCF Done:  E(UB3LYP) =  -100.762104261     a.u. after   34 cycles

 Alpha  occ. eigenvalues --  -24.75792  -1.21726  -0.54916  -0.46110  -0.46110
 Alpha  occ. eigenvalues --   -0.32536
 Alpha virt. eigenvalues --   -0.09098   0.25715   0.34850   0.86844   0.91223
 Alpha virt. eigenvalues --    0.91223   1.01236   1.25096   1.25096   1.26643
 Alpha virt. eigenvalues --    1.42016   1.42016   1.43305   2.15962   2.37143

  Beta  occ. eigenvalues --  -24.72653  -1.12702  -0.42964  -0.42964  -0.32718
  Beta virt. eigenvalues --   -0.25700  -0.08824   0.25537   0.35237   0.92719
  Beta virt. eigenvalues --    0.92719   0.96166   1.05344   1.24891   1.24891
  Beta virt. eigenvalues --    1.26407   1.42420   1.42420   1.43705   2.16147

 Mulliken charges and spin densities:
               1          2
     1  H    0.003159  -0.968917
     2  H    0.001116   0.973757
     3  F   -0.004275   0.995159
 Sum of Mulliken charges =   0.00000   1.00000

 Dipole moment (field-independent basis, Debye):
    X=             -0.0971    Y=             -0.0000    Z=              0.0000  Tot=              0.0971
 Quadrupole moment (field-independent basis, Debye-Ang):
   XX=             -6.8218   YY=             -7.6627   ZZ=             -7.6627
   XY=             -0.0000   XZ=              0.0000   YZ=              0.0000

  Exact polarizability:      23.026      -0.000       2.020       0.000      -0.000       2.020
 Approx polarizability:      17.140      -0.000       1.931       0.000      -0.000       1.931

 ******    2 imaginary frequencies (negative Signs) ******

                      1                      2                      3
                      A                      A                      A
 Frequencies --   -617.1833               -95.3963               226.9317
 Red. masses --      1.0079                 1.1084                 1.0138
 Frc consts  --      0.2262                 0.0059                 0.0308
 IR Inten    --      1.5598                 1.7281                 0.0070

                      4
                      A
 Frequencies --    226.9317
 Red. masses --      1.0138
 Frc consts  --      0.0308
 IR Inten    --      0.0070

 - Thermochemistry -
 -------------------
 Temperature   298.150 Kelvin.  Pressure   1.00000 Atm.
 Atom     1 has atomic number  1 and mass   1.00783

 Molecular mass:    21.01405 amu.
 Principal axes and moments of inertia in atomic units:
                           1         2         3
     Eigenvalues --     0.00000 179.30831 179.30831
           X            1.00000  -0.00000   0.00000
           Y            0.00000   1.00000   0.00000
           Z            0.00000   0.00000   1.00000
 This molecule is a prolate symmetric top.
 Rotational symmetry number  1.
 Rotational temperature (Kelvin)      0.48304
 Rotational constant (GHZ):          10.065017
    2 imaginary frequencies ignored.
 Zero-point vibrational energy       2714.7 (Joules/Mol)
                                    0.64883 (Kcal/Mol)
 Warning -- explicit consideration of   2 degrees of freedom as
           vibrations may cause significant error
 Vibrational temperatures:    326.50   326.50
          (Kelvin)

 Zero-point correction=                           0.001034 (Hartree/Particle)
 Thermal correction to Energy=                    0.004434
 Thermal correction to Enthalpy=                  0.005378
 Thermal correction to Gibbs Free Energy=        -0.020758
 Sum of electronic and zero-point Energies=           -100.761070
 Sum of electronic and thermal Energies=              -100.757670
 Sum of electronic and thermal Enthalpies=            -100.756726
 Sum of electronic and thermal Free Energies=         -100.782862

                     E (Thermal)             CV                S
                      KCal/Mol        Cal/Mol-Kelvin    Cal/Mol-Kelvin
 Total                    2.782              8.568             55.007
 Electronic               0.000              0.000              1.377
 Translational            0.889              2.981             35.068
 Rotational               0.592              1.987             14.755
 Vibrational              1.301              3.600              3.806
 Vibration     1          0.651              1.800              1.903
 Vibration     2          0.651              1.800              1.903

 Normal termination of Gaussian 16 at Sat Aug 23 00:50:35 2025.
