 Gaussian 16, Revision C.01,
 Gaussian 16:  ES64L-G16RevC.01  3-Jul-2019

 -----------------------------------------
 # sp b3lyp/6-311g** Force nosymm scf=(qc)
 -----------------------------------------

 -------------------
 Title Card Required
 -------------------
 Symbolic Z-matrix:
 Charge =  0 Multiplicity = 2

                          Input orientation:
 ---------------------------------------------------------------------
 Center     Atomic      Atomic             Coordinates (Angstroms)
 Number     Number       Type             X           Y           Z
 ---------------------------------------------------------------------
      1          1           0        0.000000    0.000000    0.000000
      2          1           0       -1.650000    0.000000    0.000000
      3          9           0        1.650000    0.000000    0.000000
 ---------------------------------------------------------------------

 SCF Done:  E(UB3LYP) =  -100.848262244     a.u. after   14 cycles

 Alpha  occ. eigenvalues --  -24.65661  -1.12077  -0.46018  -0.38433  -0.37656
 Alpha  occ. eigenvalues --   -0.37656
 Alpha virt. eigenvalues --   -0.10368   0.21896   0.29155   0.90825   0.94279
 Alpha virt. eigenvalues --    0.94279   1.03648   1.17677   1.17677   1.36565
 Alpha virt. eigenvalues --    1.36565   1.38439   1.79543   2.15731   2.37214

  Beta  occ. eigenvalues --  -24.63922  -1.07339  -0.39843  -0.35972  -0.35972
  Beta virt. eigenvalues --   -0.21577  -0.07596   0.24947   0.29886   0.94347
  Beta virt. eigenvalues --    0.94347   0.94502   1.07193   1.23748   1.23748
  Beta virt. eigenvalues --    1.37340   1.37340   1.44849   1.81812   2.17544

 Mulliken charges and spin densities:
               1          2
     1  H    0.211426  -0.333652
     2  H    0.069032   0.790295
     3  F   -0.280458   0.543358
 Sum of Mulliken charges =   0.00000   1.00000

 Dipole moment (field-independent basis, Debye):
    X=             -2.8120    Y=             -0.0000    Z=             -0.0000  Tot=              2.8120
 Quadrupole moment (field-independent basis, Debye-Ang):
   XX=             -8.3649   YY=             -7.3662   ZZ=             -7.3662
   XY=             -0.0000   XZ=             -0.0000   YZ=              0.0000

  Exact polarizability:      41.797      -0.000       2.203      -0.000      -0.000       2.203
 Approx polarizability:      59.286       0.000       2.130       0.000       0.000       2.130

 ******    2 imaginary frequencies (negative Signs) ******

                      1                      2                      3
                      A                      A                      A
 Frequencies --  -2367.8062              -577.1766               960.0467
 Red. masses --      1.0230                 1.0907                 1.0179
 Frc consts  --      3.3793                 0.2141                 0.5528
 IR Inten    --    324.0644                 0.4702                22.5188

                      4
                      A
 Frequencies --    960.0467
 Red. masses --      1.0179
 Frc consts  --      0.5528
 IR Inten    --     22.5188

 - Thermochemistry -
 -------------------
 Temperature   298.150 Kelvin.  Pressure   1.00000 Atm.
 Atom     1 has atomic number  1 and mass   1.00783

 Molecular mass:    21.01405 amu.
 Principal axes and moments of inertia in atomic units:
                           1         2         3
     Eigenvalues --     0.00000  44.76220  44.76220
           X            1.00000  -0.00000   0.00000
           Y            0.00000   1.00000   0.00000
           Z            0.00000   0.00000   1.00000
 This molecule is a prolate symmetric top.
 Rotational symmetry number  1.
 Rotational temperature (Kelvin)      1.93498
 Rotational constant (GHZ):          40.318418
    2 imaginary frequencies ignored.
 Zero-point vibrational energy      11484.7 (Joules/Mol)
                                    2.74491 (Kcal/Mol)
 Vibrational temperatures:   1381.29  1381.29
          (Kelvin)

 Zero-point correction=                           0.004374 (Hartree/Particle)
 Thermal correction to Energy=                    0.006821
 Thermal correction to Enthalpy=                  0.007765
 Thermal correction to Gibbs Free Energy=        -0.015356
 Sum of electronic and zero-point Energies=           -100.843888
 Sum of electronic and thermal Energies=              -100.841442
 Sum of electronic and thermal Enthalpies=            -100.840497
 Sum of electronic and thermal Free Energies=         -100.863619

                     E (Thermal)             CV                S
                      KCal/Mol        Cal/Mol-Kelvin    Cal/Mol-Kelvin
 Total                    4.280              5.814             48.663
 Electronic               0.000              0.000              1.377
 Translational            0.889              2.981             35.068
 Rotational               0.592              1.987             11.998
 Vibrational              2.799              0.846              0.220

 Normal termination of Gaussian 16 at Fri Aug 22 16:33:58 2025.
