 Gaussian 16, Revision C.01,
 Gaussian 16:  ES64L-G16RevC.01  3-Jul-2019

 -----------------------------------------
 # sp b3lyp/6-311g** Force nosymm scf=(qc)
 -----------------------------------------

 -------------------
 Title Card Required
 -------------------
 Symbolic Z-matrix:
 Charge =  0 Multiplicity = 2

                          Input orientation:
 ---------------------------------------------------------------------
 Center     Atomic      Atomic             Coordinates (Angstroms)
 Number     Number       Type             X           Y           Z
 ---------------------------------------------------------------------
      1          1           0        0.000000    0.000000    0.000000
      2          1           0       -3.750000    0.000000    0.000000
      3          9           0        0.500000    0.000000    0.000000
 ---------------------------------------------------------------------

 SCF Done:  E(UB3LYP) =  -100.268959103     a.u. after    6 cycles

 Alpha  occ. eigenvalues --  -24.63031  -1.42356  -0.63507  -0.44337  -0.44337
 Alpha  occ. eigenvalues --   -0.33117
 Alpha virt. eigenvalues --    0.08033   0.24790   0.62076   0.88991   0.90148
 Alpha virt. eigenvalues --    0.90148   1.24271   1.24388   1.24388   1.36318
 Alpha virt. eigenvalues --    1.58513   1.58513   2.00243   2.14606   3.76630

  Beta  occ. eigenvalues --  -24.63031  -1.42356  -0.63508  -0.44337  -0.44337
  Beta virt. eigenvalues --   -0.05131   0.08286   0.38754   0.62061   0.88988
  Beta virt. eigenvalues --    0.90147   0.90147   1.35951   1.48380   1.48963
  Beta virt. eigenvalues --    1.48963   1.58513   1.58513   2.00195   2.46118

 Mulliken charges and spin densities:
               1          2
     1  H    0.126659   0.000295
     2  H    0.000452   0.999499
     3  F   -0.127111   0.000206
 Sum of Mulliken charges =   0.00000   1.00000

 Dipole moment (field-independent basis, Debye):
    X=             -1.2967    Y=             -0.0000    Z=              0.0000  Tot=              1.2967
 Quadrupole moment (field-independent basis, Debye-Ang):
   XX=             -6.6699   YY=             -6.4388   ZZ=             -6.4388
   XY=              0.0000   XZ=              0.0000   YZ=              0.0000

  Exact polarizability:       2.880      -0.000       2.411       0.000      -0.000       2.411
 Approx polarizability:       3.054       0.000       2.387      -0.000      -0.000       2.387

 ******    3 imaginary frequencies (negative Signs) ******

                      1                      2                      3
                      A                      A                      A
 Frequencies --  -9606.0975             -9606.0975               -28.3616
 Red. masses --      1.0466                 1.0466                 1.0532
 Frc consts  --     56.9027                56.9027                 0.0005
 IR Inten    --    285.3271               285.3271                 0.0118

                      4
                      A
 Frequencies --  19159.4002
 Red. masses --      1.0583
 Frc consts  --    228.8901
 IR Inten    --     76.1675

 - Thermochemistry -
 -------------------
 Temperature   298.150 Kelvin.  Pressure   1.00000 Atm.
 Atom     1 has atomic number  1 and mass   1.00783

 Molecular mass:    21.01405 amu.
 Principal axes and moments of inertia in atomic units:
                           1         2         3
     Eigenvalues --     0.00000  62.01240  62.01240
           X            1.00000  -0.00000   0.00000
           Y            0.00000   1.00000   0.00000
           Z            0.00000   0.00000   1.00000
 This molecule is a prolate symmetric top.
 Rotational symmetry number  1.
 Rotational temperature (Kelvin)      1.39672
 Rotational constant (GHZ):          29.102908
    3 imaginary frequencies ignored.
 Zero-point vibrational energy     114598.7 (Joules/Mol)
                                   27.38974 (Kcal/Mol)
 Vibrational temperatures:  27566.10
          (Kelvin)

 Zero-point correction=                           0.043648 (Hartree/Particle)
 Thermal correction to Energy=                    0.046009
 Thermal correction to Enthalpy=                  0.046953
 Thermal correction to Gibbs Free Energy=         0.023628
 Sum of electronic and zero-point Energies=           -100.225311
 Sum of electronic and thermal Energies=              -100.222950
 Sum of electronic and thermal Enthalpies=            -100.222006
 Sum of electronic and thermal Free Energies=         -100.245331

                     E (Thermal)             CV                S
                      KCal/Mol        Cal/Mol-Kelvin    Cal/Mol-Kelvin
 Total                   28.871              4.968             49.091
 Electronic               0.000              0.000              1.377
 Translational            0.889              2.981             35.068
 Rotational               0.592              1.987             12.646
 Vibrational             27.390              0.000              0.000

 Normal termination of Gaussian 16 at Fri Aug 22 15:38:05 2025.
