 Gaussian 16, Revision C.01,
 Gaussian 16:  ES64L-G16RevC.01  3-Jul-2019

 -----------------------------------------
 # sp b3lyp/6-311g** Force nosymm scf=(qc)
 -----------------------------------------

 -------------------
 Title Card Required
 -------------------
 Symbolic Z-matrix:
 Charge =  0 Multiplicity = 2

                          Input orientation:
 ---------------------------------------------------------------------
 Center     Atomic      Atomic             Coordinates (Angstroms)
 Number     Number       Type             X           Y           Z
 ---------------------------------------------------------------------
      1          1           0        0.000000    0.000000    0.000000
      2          1           0       -3.100000    0.000000    0.000000
      3          9           0        2.900000    0.000000    0.000000
 ---------------------------------------------------------------------

 SCF Done:  E(UB3LYP) =  -100.762427751     a.u. after   24 cycles

 Alpha  occ. eigenvalues --  -24.73718  -1.19804  -0.52836  -0.44367  -0.44367
 Alpha  occ. eigenvalues --   -0.32745
 Alpha virt. eigenvalues --   -0.09129   0.24421   0.35244   0.89743   0.92495
 Alpha virt. eigenvalues --    0.92495   1.04529   1.24784   1.24784   1.25408
 Alpha virt. eigenvalues --    1.42495   1.42495   1.43058   2.15302   2.38663

  Beta  occ. eigenvalues --  -24.70717  -1.11212  -0.41365  -0.41365  -0.34012
  Beta virt. eigenvalues --   -0.24566  -0.07422   0.24526   0.37005   0.93947
  Beta virt. eigenvalues --    0.93947   0.98285   1.08203   1.23335   1.23335
  Beta virt. eigenvalues --    1.24485   1.44862   1.45002   1.45002   2.15505

 Mulliken charges and spin densities:
               1          2
     1  H    0.043330  -0.944896
     2  H    0.001458   0.994325
     3  F   -0.044788   0.950571
 Sum of Mulliken charges =  -0.00000   1.00000

 Dipole moment (field-independent basis, Debye):
    X=             -0.6882    Y=             -0.0000    Z=              0.0000  Tot=              0.6882
 Quadrupole moment (field-independent basis, Debye-Ang):
   XX=             -8.4258   YY=             -7.6135   ZZ=             -7.6135
   XY=             -0.0000   XZ=             -0.0000   YZ=             -0.0000

  Exact polarizability:      34.577      -0.000       2.022      -0.000      -0.000       2.022
 Approx polarizability:      35.836      -0.000       1.923      -0.000      -0.000       1.923

 ******    2 imaginary frequencies (negative Signs) ******

                      1                      2                      3
                      A                      A                      A
 Frequencies --   -454.1763              -178.3510               167.4137
 Red. masses --      1.0348                 1.0776                 1.0188
 Frc consts  --      0.1258                 0.0202                 0.0168
 IR Inten    --     43.9204                 3.4715                 1.7046

                      4
                      A
 Frequencies --    167.4137
 Red. masses --      1.0188
 Frc consts  --      0.0168
 IR Inten    --      1.7046

 - Thermochemistry -
 -------------------
 Temperature   298.150 Kelvin.  Pressure   1.00000 Atm.
 Atom     1 has atomic number  1 and mass   1.00783

 Molecular mass:    21.01405 amu.
 Principal axes and moments of inertia in atomic units:
                           1         2         3
     Eigenvalues --     0.00000 146.15978 146.15978
           X            1.00000  -0.00000   0.00000
           Y            0.00000   1.00000   0.00000
           Z            0.00000   0.00000   1.00000
 This molecule is a prolate symmetric top.
 Rotational symmetry number  1.
 Rotational temperature (Kelvin)      0.59260
 Rotational constant (GHZ):          12.347728
    2 imaginary frequencies ignored.
 Zero-point vibrational energy       2002.7 (Joules/Mol)
                                    0.47866 (Kcal/Mol)
 Warning -- explicit consideration of   2 degrees of freedom as
           vibrations may cause significant error
 Vibrational temperatures:    240.87   240.87
          (Kelvin)

 Zero-point correction=                           0.000763 (Hartree/Particle)
 Thermal correction to Energy=                    0.004350
 Thermal correction to Enthalpy=                  0.005295
 Thermal correction to Gibbs Free Energy=        -0.021181
 Sum of electronic and zero-point Energies=           -100.761665
 Sum of electronic and thermal Energies=              -100.758077
 Sum of electronic and thermal Enthalpies=            -100.757133
 Sum of electronic and thermal Free Energies=         -100.783609

                     E (Thermal)             CV                S
                      KCal/Mol        Cal/Mol-Kelvin    Cal/Mol-Kelvin
 Total                    2.730              8.733             55.723
 Electronic               0.000              0.000              1.377
 Translational            0.889              2.981             35.068
 Rotational               0.592              1.987             14.349
 Vibrational              1.249              3.765              4.929
 Vibration     1          0.624              1.883              2.464
 Vibration     2          0.624              1.883              2.464

 Normal termination of Gaussian 16 at Fri Aug 22 19:04:22 2025.
