 Gaussian 16, Revision C.01,
 Gaussian 16:  ES64L-G16RevC.01  3-Jul-2019

 -----------------------------------------
 # sp b3lyp/6-311g** Force nosymm scf=(qc)
 -----------------------------------------

 -------------------
 Title Card Required
 -------------------
 Symbolic Z-matrix:
 Charge =  0 Multiplicity = 2

                          Input orientation:
 ---------------------------------------------------------------------
 Center     Atomic      Atomic             Coordinates (Angstroms)
 Number     Number       Type             X           Y           Z
 ---------------------------------------------------------------------
      1          1           0        0.000000    0.000000    0.000000
      2          1           0       -1.250000    0.000000    0.000000
      3          9           0        2.300000    0.000000    0.000000
 ---------------------------------------------------------------------

 SCF Done:  E(UB3LYP) =  -100.865581447     a.u. after   15 cycles

 Alpha  occ. eigenvalues --  -24.73916  -1.20014  -0.53234  -0.44573  -0.44573
 Alpha  occ. eigenvalues --   -0.37784
 Alpha virt. eigenvalues --   -0.05922   0.22525   0.33949   0.88413   0.92052
 Alpha virt. eigenvalues --    0.92052   1.07146   1.12102   1.12102   1.25211
 Alpha virt. eigenvalues --    1.49917   1.49917   2.01326   2.28257   2.53402

  Beta  occ. eigenvalues --  -24.70950  -1.11549  -0.41612  -0.41612  -0.37406
  Beta virt. eigenvalues --   -0.25383  -0.04954   0.23122   0.34418   0.93446
  Beta virt. eigenvalues --    0.93446   0.95824   1.09999   1.12756   1.12756
  Beta virt. eigenvalues --    1.27853   1.50441   1.50441   2.02104   2.29085

 Mulliken charges and spin densities:
               1          2
     1  H    0.012654  -0.086919
     2  H    0.037677   0.151597
     3  F   -0.050331   0.935322
 Sum of Mulliken charges =  -0.00000   1.00000

 Dipole moment (field-independent basis, Debye):
    X=             -0.8009    Y=             -0.0000    Z=              0.0000  Tot=              0.8009
 Quadrupole moment (field-independent basis, Debye-Ang):
   XX=             -6.4921   YY=             -7.4834   ZZ=             -7.4834
   XY=             -0.0000   XZ=              0.0000   YZ=              0.0000

  Exact polarizability:      43.231      -0.000       2.122       0.000      -0.000       2.122
 Approx polarizability:      58.579       0.000       2.119      -0.000       0.000       2.119

 ******    2 imaginary frequencies (negative Signs) ******

                      1                      2                      3
                      A                      A                      A
 Frequencies --  -1232.2669              -224.3230              1378.6449
 Red. masses --      1.0122                 1.1032                 1.0122
 Frc consts  --      0.9056                 0.0327                 1.1336
 IR Inten    --    633.2274                 4.3567                 0.0103

                      4
                      A
 Frequencies --   1378.6449
 Red. masses --      1.0122
 Frc consts  --      1.1336
 IR Inten    --      0.0103

 - Thermochemistry -
 -------------------
 Temperature   298.150 Kelvin.  Pressure   1.00000 Atm.
 Atom     1 has atomic number  1 and mass   1.00783

 Molecular mass:    21.01405 amu.
 Principal axes and moments of inertia in atomic units:
                           1         2         3
     Eigenvalues --     0.00000  58.48822  58.48822
           X            1.00000  -0.00000   0.00000
           Y            0.00000   1.00000   0.00000
           Z            0.00000   0.00000   1.00000
 This molecule is a prolate symmetric top.
 Rotational symmetry number  1.
 Rotational temperature (Kelvin)      1.48088
 Rotational constant (GHZ):          30.856490
    2 imaginary frequencies ignored.
 Zero-point vibrational energy      16492.3 (Joules/Mol)
                                    3.94174 (Kcal/Mol)
 Vibrational temperatures:   1983.56  1983.56
          (Kelvin)

 Zero-point correction=                           0.006282 (Hartree/Particle)
 Thermal correction to Energy=                    0.008658
 Thermal correction to Enthalpy=                  0.009602
 Thermal correction to Gibbs Free Energy=        -0.013686
 Sum of electronic and zero-point Energies=           -100.859300
 Sum of electronic and thermal Energies=              -100.856923
 Sum of electronic and thermal Enthalpies=            -100.855979
 Sum of electronic and thermal Free Energies=         -100.879267

                     E (Thermal)             CV                S
                      KCal/Mol        Cal/Mol-Kelvin    Cal/Mol-Kelvin
 Total                    5.433              5.196             49.014
 Electronic               0.000              0.000              1.377
 Translational            0.889              2.981             35.068
 Rotational               0.592              1.987             12.529
 Vibrational              3.952              0.228              0.039

 Normal termination of Gaussian 16 at Fri Aug 22 17:21:07 2025.
