 Gaussian 16, Revision C.01,
 Gaussian 16:  ES64L-G16RevC.01  3-Jul-2019

 -----------------------------------------
 # sp b3lyp/6-311g** Force nosymm scf=(qc)
 -----------------------------------------

 -------------------
 Title Card Required
 -------------------
 Symbolic Z-matrix:
 Charge =  0 Multiplicity = 2

                          Input orientation:
 ---------------------------------------------------------------------
 Center     Atomic      Atomic             Coordinates (Angstroms)
 Number     Number       Type             X           Y           Z
 ---------------------------------------------------------------------
      1          1           0        0.000000    0.000000    0.000000
      2          1           0       -0.900000    0.000000    0.000000
      3          9           0        1.050000    0.000000    0.000000
 ---------------------------------------------------------------------

 SCF Done:  E(UB3LYP) =  -100.953498293     a.u. after    6 cycles

 Alpha  occ. eigenvalues --  -24.65745  -1.17456  -0.59077  -0.39984  -0.39984
 Alpha  occ. eigenvalues --   -0.36611
 Alpha virt. eigenvalues --    0.12277   0.18667   0.46032   0.88808   0.88808
 Alpha virt. eigenvalues --    0.96984   1.08292   1.08292   1.43580   1.67366
 Alpha virt. eigenvalues --    1.67366   1.67377   2.19247   2.29195   3.04583

  Beta  occ. eigenvalues --  -24.64451  -1.14185  -0.52275  -0.38811  -0.38811
  Beta virt. eigenvalues --   -0.19218   0.14345   0.20688   0.51319   0.90522
  Beta virt. eigenvalues --    0.90522   0.99680   1.13162   1.13162   1.46137
  Beta virt. eigenvalues --    1.71559   1.71559   1.75002   2.18428   2.40498

 Mulliken charges and spin densities:
               1          2
     1  H    0.276062  -0.029035
     2  H    0.007033   0.685941
     3  F   -0.283095   0.343093
 Sum of Mulliken charges =   0.00000   1.00000

 Dipole moment (field-independent basis, Debye):
    X=             -1.8601    Y=             -0.0000    Z=             -0.0000  Tot=              1.8601
 Quadrupole moment (field-independent basis, Debye-Ang):
   XX=             -7.5871   YY=             -6.6687   ZZ=             -6.6687
   XY=             -0.0000   XZ=             -0.0000   YZ=             -0.0000

  Exact polarizability:      15.846       0.000       2.556       0.000       0.000       2.556
 Approx polarizability:      19.549       0.000       2.587       0.000       0.000       2.587

 ******    2 imaginary frequencies (negative Signs) ******

                      1                      2                      3
                      A                      A                      A
 Frequencies --   -711.8290              -711.8290              1448.2026
 Red. masses --      1.0162                 1.0162                 1.0659
 Frc consts  --      0.3034                 0.3034                 1.3171
 IR Inten    --     38.8570                38.8570                17.8362

                      4
                      A
 Frequencies --   1900.2037
 Red. masses --      1.0458
 Frc consts  --      2.2249
 IR Inten    --    138.7304

 - Thermochemistry -
 -------------------
 Temperature   298.150 Kelvin.  Pressure   1.00000 Atm.
 Atom     1 has atomic number  1 and mass   1.00783

 Molecular mass:    21.01405 amu.
 Principal axes and moments of inertia in atomic units:
                           1         2         3
     Eigenvalues --     0.00000  16.09967  16.09967
           X            1.00000  -0.00000   0.00000
           Y            0.00000   1.00000   0.00000
           Z            0.00000   0.00000   1.00000
 This molecule is a prolate symmetric top.
 Rotational symmetry number  1.
 Rotational temperature (Kelvin)      5.37986
 Rotational constant (GHZ):         112.097992
    2 imaginary frequencies ignored.
 Zero-point vibrational energy      20027.9 (Joules/Mol)
                                    4.78679 (Kcal/Mol)
 Vibrational temperatures:   2083.64  2733.97
          (Kelvin)

 Zero-point correction=                           0.007628 (Hartree/Particle)
 Thermal correction to Energy=                    0.009996
 Thermal correction to Enthalpy=                  0.010940
 Thermal correction to Gibbs Free Energy=        -0.011120
 Sum of electronic and zero-point Energies=           -100.945870
 Sum of electronic and thermal Energies=              -100.943503
 Sum of electronic and thermal Enthalpies=            -100.942558
 Sum of electronic and thermal Free Energies=         -100.964618

                     E (Thermal)             CV                S
                      KCal/Mol        Cal/Mol-Kelvin    Cal/Mol-Kelvin
 Total                    6.272              5.075             46.428
 Electronic               0.000              0.000              1.377
 Translational            0.889              2.981             35.068
 Rotational               0.592              1.987              9.966
 Vibrational              4.791              0.107              0.017

 Normal termination of Gaussian 16 at Fri Aug 22 16:02:09 2025.
