 Gaussian 16, Revision C.01,
 Gaussian 16:  ES64L-G16RevC.01  3-Jul-2019

 -----------------------------------------
 # sp b3lyp/6-311g** Force nosymm scf=(qc)
 -----------------------------------------

 -------------------
 Title Card Required
 -------------------
 Symbolic Z-matrix:
 Charge =  0 Multiplicity = 2

                          Input orientation:
 ---------------------------------------------------------------------
 Center     Atomic      Atomic             Coordinates (Angstroms)
 Number     Number       Type             X           Y           Z
 ---------------------------------------------------------------------
      1          1           0        0.000000    0.000000    0.000000
      2          1           0       -2.250000    0.000000    0.000000
      3          9           0        3.550000    0.000000    0.000000
 ---------------------------------------------------------------------

 SCF Done:  E(UB3LYP) =  -100.766736770     a.u. after   31 cycles

 Alpha  occ. eigenvalues --  -24.75573  -1.21522  -0.54696  -0.45926  -0.45926
 Alpha  occ. eigenvalues --   -0.32837
 Alpha virt. eigenvalues --   -0.10308   0.25881   0.33502   0.87444   0.91357
 Alpha virt. eigenvalues --    0.91357   1.01632   1.24512   1.24965   1.24965
 Alpha virt. eigenvalues --    1.39643   1.39643   1.44536   2.14432   2.35536

  Beta  occ. eigenvalues --  -24.72450  -1.12546  -0.42795  -0.42795  -0.33015
  Beta virt. eigenvalues --   -0.25604  -0.09957   0.25724   0.34040   0.92849
  Beta virt. eigenvalues --    0.92849   0.96651   1.05693   1.24308   1.24748
  Beta virt. eigenvalues --    1.24748   1.40165   1.40165   1.44993   2.14957

 Mulliken charges and spin densities:
               1          2
     1  H    0.005003  -0.926078
     2  H    0.003573   0.935851
     3  F   -0.008576   0.990227
 Sum of Mulliken charges =   0.00000   1.00000

 Dipole moment (field-independent basis, Debye):
    X=             -0.1944    Y=              0.0000    Z=              0.0000  Tot=              0.1944
 Quadrupole moment (field-independent basis, Debye-Ang):
   XX=             -6.8476   YY=             -7.6922   ZZ=             -7.6922
   XY=              0.0000   XZ=             -0.0000   YZ=             -0.0000

  Exact polarizability:      36.956      -0.000       1.986       0.000      -0.000       1.986
 Approx polarizability:      28.536       0.000       1.930      -0.000      -0.000       1.930

 ******    2 imaginary frequencies (negative Signs) ******

                      1                      2                      3
                      A                      A                      A
 Frequencies --   -953.6726              -132.3578               365.8742
 Red. masses --      1.0079                 1.1085                 1.0134
 Frc consts  --      0.5401                 0.0114                 0.0799
 IR Inten    --      5.4969                 5.5643                 0.0182

                      4
                      A
 Frequencies --    365.8742
 Red. masses --      1.0134
 Frc consts  --      0.0799
 IR Inten    --      0.0182

 - Thermochemistry -
 -------------------
 Temperature   298.150 Kelvin.  Pressure   1.00000 Atm.
 Atom     1 has atomic number  1 and mass   1.00783

 Molecular mass:    21.01405 amu.
 Principal axes and moments of inertia in atomic units:
                           1         2         3
     Eigenvalues --     0.00000 151.33742 151.33742
           X            1.00000  -0.00000   0.00000
           Y            0.00000   1.00000   0.00000
           Z            0.00000   0.00000   1.00000
 This molecule is a prolate symmetric top.
 Rotational symmetry number  1.
 Rotational temperature (Kelvin)      0.57232
 Rotational constant (GHZ):          11.925280
    2 imaginary frequencies ignored.
 Zero-point vibrational energy       4376.8 (Joules/Mol)
                                    1.04609 (Kcal/Mol)
 Warning -- explicit consideration of   2 degrees of freedom as
           vibrations may cause significant error
 Vibrational temperatures:    526.41   526.41
          (Kelvin)

 Zero-point correction=                           0.001667 (Hartree/Particle)
 Thermal correction to Energy=                    0.004716
 Thermal correction to Enthalpy=                  0.005660
 Thermal correction to Gibbs Free Energy=        -0.019550
 Sum of electronic and zero-point Energies=           -100.765070
 Sum of electronic and thermal Energies=              -100.762021
 Sum of electronic and thermal Enthalpies=            -100.761077
 Sum of electronic and thermal Free Energies=         -100.786286

                     E (Thermal)             CV                S
                      KCal/Mol        Cal/Mol-Kelvin    Cal/Mol-Kelvin
 Total                    2.959              8.053             53.058
 Electronic               0.000              0.000              1.377
 Translational            0.889              2.981             35.068
 Rotational               0.592              1.987             14.418
 Vibrational              1.478              3.085              2.194
 Vibration     1          0.739              1.542              1.097
 Vibration     2          0.739              1.542              1.097

 Normal termination of Gaussian 16 at Fri Aug 22 22:39:23 2025.
