 Gaussian 16, Revision C.01,
 Gaussian 16:  ES64L-G16RevC.01  3-Jul-2019

 -----------------------------------------
 # sp b3lyp/6-311g** Force nosymm scf=(qc)
 -----------------------------------------

 -------------------
 Title Card Required
 -------------------
 Symbolic Z-matrix:
 Charge =  0 Multiplicity = 2

                          Input orientation:
 ---------------------------------------------------------------------
 Center     Atomic      Atomic             Coordinates (Angstroms)
 Number     Number       Type             X           Y           Z
 ---------------------------------------------------------------------
      1          1           0        0.000000    0.000000    0.000000
      2          1           0       -1.650000    0.000000    0.000000
      3          9           0        3.000000    0.000000    0.000000
 ---------------------------------------------------------------------

 SCF Done:  E(UB3LYP) =  -100.801288358     a.u. after   30 cycles

 Alpha  occ. eigenvalues --  -24.74884  -1.20885  -0.54012  -0.45354  -0.45354
 Alpha  occ. eigenvalues --   -0.34222
 Alpha virt. eigenvalues --   -0.11292   0.24929   0.30223   0.89545   0.91755
 Alpha virt. eigenvalues --    0.91755   1.03821   1.06295   1.22097   1.22097
 Alpha virt. eigenvalues --    1.37717   1.37717   1.70265   2.17108   2.42968

  Beta  occ. eigenvalues --  -24.71818  -1.12088  -0.42284  -0.42284  -0.34058
  Beta virt. eigenvalues --   -0.25404  -0.11003   0.25428   0.30449   0.93225
  Beta virt. eigenvalues --    0.93225   0.98209   1.05984   1.08446   1.22287
  Beta virt. eigenvalues --    1.22287   1.37979   1.37979   1.70653   2.17969

 Mulliken charges and spin densities:
               1          2
     1  H    0.004558  -0.536285
     2  H    0.019312   0.564748
     3  F   -0.023871   0.971537
 Sum of Mulliken charges =   0.00000   1.00000

 Dipole moment (field-independent basis, Debye):
    X=             -0.5170    Y=             -0.0000    Z=              0.0000  Tot=              0.5170
 Quadrupole moment (field-independent basis, Debye-Ang):
   XX=             -6.5434   YY=             -7.7453   ZZ=             -7.7453
   XY=             -0.0000   XZ=              0.0000   YZ=              0.0000

  Exact polarizability:      57.521      -0.000       2.024       0.000      -0.000       2.024
 Approx polarizability:      66.917      -0.000       1.985       0.000      -0.000       1.985

 ******    2 imaginary frequencies (negative Signs) ******

                      1                      2                      3
                      A                      A                      A
 Frequencies --  -1994.1712              -210.6131               961.7605
 Red. masses --      1.0079                 1.1084                 1.0123
 Frc consts  --      2.3615                 0.0290                 0.5517
 IR Inten    --    133.9881                22.6678                 0.0064

                      4
                      A
 Frequencies --    961.7605
 Red. masses --      1.0123
 Frc consts  --      0.5517
 IR Inten    --      0.0064

 - Thermochemistry -
 -------------------
 Temperature   298.150 Kelvin.  Pressure   1.00000 Atm.
 Atom     1 has atomic number  1 and mass   1.00783

 Molecular mass:    21.01405 amu.
 Principal axes and moments of inertia in atomic units:
                           1         2         3
     Eigenvalues --     0.00000 100.10925 100.10925
           X            1.00000  -0.00000   0.00000
           Y            0.00000   1.00000   0.00000
           Z            0.00000   0.00000   1.00000
 This molecule is a prolate symmetric top.
 Rotational symmetry number  1.
 Rotational temperature (Kelvin)      0.86519
 Rotational constant (GHZ):          18.027717
    2 imaginary frequencies ignored.
 Zero-point vibrational energy      11505.2 (Joules/Mol)
                                    2.74981 (Kcal/Mol)
 Vibrational temperatures:   1383.76  1383.76
          (Kelvin)

 Zero-point correction=                           0.004382 (Hartree/Particle)
 Thermal correction to Energy=                    0.006828
 Thermal correction to Enthalpy=                  0.007772
 Thermal correction to Gibbs Free Energy=        -0.016108
 Sum of electronic and zero-point Energies=           -100.796906
 Sum of electronic and thermal Energies=              -100.794460
 Sum of electronic and thermal Enthalpies=            -100.793516
 Sum of electronic and thermal Free Energies=         -100.817397

                     E (Thermal)             CV                S
                      KCal/Mol        Cal/Mol-Kelvin    Cal/Mol-Kelvin
 Total                    4.285              5.810             50.261
 Electronic               0.000              0.000              1.377
 Translational            0.889              2.981             35.068
 Rotational               0.592              1.987             13.597
 Vibrational              2.803              0.842              0.218

 Normal termination of Gaussian 16 at Fri Aug 22 19:30:56 2025.
