 Gaussian 16, Revision C.01,
 Gaussian 16:  ES64L-G16RevC.01  3-Jul-2019

 -----------------------------------------
 # sp b3lyp/6-311g** Force nosymm scf=(qc)
 -----------------------------------------

 -------------------
 Title Card Required
 -------------------
 Symbolic Z-matrix:
 Charge =  0 Multiplicity = 2

                          Input orientation:
 ---------------------------------------------------------------------
 Center     Atomic      Atomic             Coordinates (Angstroms)
 Number     Number       Type             X           Y           Z
 ---------------------------------------------------------------------
      1          1           0        0.000000    0.000000    0.000000
      2          1           0       -2.500000    0.000000    0.000000
      3          9           0        1.900000    0.000000    0.000000
 ---------------------------------------------------------------------

 SCF Done:  E(UB3LYP) =  -100.798153360     a.u. after   14 cycles

 Alpha  occ. eigenvalues --  -24.67271  -1.13557  -0.46210  -0.38925  -0.38925
 Alpha  occ. eigenvalues --   -0.35122
 Alpha virt. eigenvalues --   -0.14219   0.23736   0.30094   0.91120   0.95007
 Alpha virt. eigenvalues --    0.95007   1.06218   1.22520   1.22520   1.25445
 Alpha virt. eigenvalues --    1.34298   1.34298   1.65309   2.13447   2.27654

  Beta  occ. eigenvalues --  -24.65092  -1.07507  -0.38358  -0.36787  -0.36787
  Beta virt. eigenvalues --   -0.20164  -0.09885   0.24530   0.34654   0.92701
  Beta virt. eigenvalues --    0.95367   0.95367   1.08634   1.23076   1.23076
  Beta virt. eigenvalues --    1.41128   1.41128   1.42536   1.60019   2.13253

 Mulliken charges and spin densities:
               1          2
     1  H    0.203411  -0.654742
     2  H    0.019281   0.969886
     3  F   -0.222692   0.684855
 Sum of Mulliken charges =   0.00000   1.00000

 Dipole moment (field-independent basis, Debye):
    X=             -2.3096    Y=             -0.0000    Z=              0.0000  Tot=              2.3096
 Quadrupole moment (field-independent basis, Debye-Ang):
   XX=             -9.4681   YY=             -7.4955   ZZ=             -7.4955
   XY=              0.0000   XZ=             -0.0000   YZ=             -0.0000

  Exact polarizability:      35.829       0.000       2.077      -0.000      -0.000       2.077
 Approx polarizability:      44.855       0.000       1.970      -0.000       0.000       1.970

 ******    2 imaginary frequencies (negative Signs) ******

                      1                      2                      3
                      A                      A                      A
 Frequencies --  -1373.1951              -390.1354               578.2816
 Red. masses --      1.0466                 1.0651                 1.0216
 Frc consts  --      1.1628                 0.0955                 0.2013
 IR Inten    --     98.7661                13.4194                34.0052

                      4
                      A
 Frequencies --    578.2816
 Red. masses --      1.0216
 Frc consts  --      0.2013
 IR Inten    --     34.0052

 - Thermochemistry -
 -------------------
 Temperature   298.150 Kelvin.  Pressure   1.00000 Atm.
 Atom     1 has atomic number  1 and mass   1.00783

 Molecular mass:    21.01405 amu.
 Principal axes and moments of inertia in atomic units:
                           1         2         3
     Eigenvalues --     0.00000  75.81846  75.81846
           X            1.00000  -0.00000   0.00000
           Y            0.00000   1.00000   0.00000
           Z            0.00000   0.00000   1.00000
 This molecule is a prolate symmetric top.
 Rotational symmetry number  1.
 Rotational temperature (Kelvin)      1.14239
 Rotational constant (GHZ):          23.803454
    2 imaginary frequencies ignored.
 Zero-point vibrational energy       6917.8 (Joules/Mol)
                                    1.65339 (Kcal/Mol)
 Warning -- explicit consideration of   2 degrees of freedom as
           vibrations may cause significant error
 Vibrational temperatures:    832.02   832.02
          (Kelvin)

 Zero-point correction=                           0.002635 (Hartree/Particle)
 Thermal correction to Energy=                    0.005340
 Thermal correction to Enthalpy=                  0.006284
 Thermal correction to Gibbs Free Energy=        -0.017695
 Sum of electronic and zero-point Energies=           -100.795519
 Sum of electronic and thermal Energies=              -100.792813
 Sum of electronic and thermal Enthalpies=            -100.791869
 Sum of electronic and thermal Free Energies=         -100.815848

                     E (Thermal)             CV                S
                      KCal/Mol        Cal/Mol-Kelvin    Cal/Mol-Kelvin
 Total                    3.351              7.125             50.468
 Electronic               0.000              0.000              1.377
 Translational            0.889              2.981             35.068
 Rotational               0.592              1.987             13.045
 Vibrational              1.870              2.156              0.977
 Vibration     1          0.935              1.078              0.489
 Vibration     2          0.935              1.078              0.489

 Normal termination of Gaussian 16 at Fri Aug 22 16:50:28 2025.
