 Gaussian 16, Revision C.01,
 Gaussian 16:  ES64L-G16RevC.01  3-Jul-2019

 -----------------------------------------
 # sp b3lyp/6-311g** Force nosymm scf=(qc)
 -----------------------------------------

 -------------------
 Title Card Required
 -------------------
 Symbolic Z-matrix:
 Charge =  0 Multiplicity = 2

                          Input orientation:
 ---------------------------------------------------------------------
 Center     Atomic      Atomic             Coordinates (Angstroms)
 Number     Number       Type             X           Y           Z
 ---------------------------------------------------------------------
      1          1           0        0.000000    0.000000    0.000000
      2          1           0       -2.050000    0.000000    0.000000
      3          9           0        3.200000    0.000000    0.000000
 ---------------------------------------------------------------------

 SCF Done:  E(UB3LYP) =  -100.773326188     a.u. after   29 cycles

 Alpha  occ. eigenvalues --  -24.74946  -1.20940  -0.54066  -0.45397  -0.45397
 Alpha  occ. eigenvalues --   -0.33350
 Alpha virt. eigenvalues --   -0.11300   0.25691   0.32202   0.88778   0.91745
 Alpha virt. eigenvalues --    0.91745   1.02845   1.18755   1.24602   1.24602
 Alpha virt. eigenvalues --    1.37602   1.37602   1.48873   2.12871   2.36253

  Beta  occ. eigenvalues --  -24.71866  -1.12097  -0.42311  -0.42311  -0.33502
  Beta virt. eigenvalues --   -0.25303  -0.10815   0.25803   0.32824   0.93223
  Beta virt. eigenvalues --    0.93223   0.97734   1.06819   1.18650   1.24386
  Beta virt. eigenvalues --    1.24386   1.38332   1.38332   1.49443   2.13873

 Mulliken charges and spin densities:
               1          2
     1  H    0.010781  -0.856979
     2  H    0.009881   0.880523
     3  F   -0.020662   0.976455
 Sum of Mulliken charges =   0.00000   1.00000

 Dipole moment (field-independent basis, Debye):
    X=             -0.4354    Y=              0.0000    Z=              0.0000  Tot=              0.4354
 Quadrupole moment (field-independent basis, Debye-Ang):
   XX=             -7.0806   YY=             -7.7121   ZZ=             -7.7121
   XY=              0.0000   XZ=             -0.0000   YZ=             -0.0000

  Exact polarizability:      53.015       0.000       2.009      -0.000      -0.000       2.009
 Approx polarizability:      45.591       0.000       1.932      -0.000       0.000       1.932

 ******    2 imaginary frequencies (negative Signs) ******

                      1                      2                      3
                      A                      A                      A
 Frequencies --  -1272.5052              -192.4536               507.7441
 Red. masses --      1.0079                 1.1084                 1.0135
 Frc consts  --      0.9616                 0.0242                 0.1539
 IR Inten    --     22.8909                18.0260                 0.0392

                      4
                      A
 Frequencies --    507.7441
 Red. masses --      1.0135
 Frc consts  --      0.1539
 IR Inten    --      0.0392

 - Thermochemistry -
 -------------------
 Temperature   298.150 Kelvin.  Pressure   1.00000 Atm.
 Atom     1 has atomic number  1 and mass   1.00783

 Molecular mass:    21.01405 amu.
 Principal axes and moments of inertia in atomic units:
                           1         2         3
     Eigenvalues --     0.00000 123.72696 123.72696
           X            1.00000  -0.00000   0.00000
           Y            0.00000   1.00000   0.00000
           Z            0.00000   0.00000   1.00000
 This molecule is a prolate symmetric top.
 Rotational symmetry number  1.
 Rotational temperature (Kelvin)      0.70004
 Rotational constant (GHZ):          14.586484
    2 imaginary frequencies ignored.
 Zero-point vibrational energy       6074.0 (Joules/Mol)
                                    1.45171 (Kcal/Mol)
 Warning -- explicit consideration of   2 degrees of freedom as
           vibrations may cause significant error
 Vibrational temperatures:    730.53   730.53
          (Kelvin)

 Zero-point correction=                           0.002313 (Hartree/Particle)
 Thermal correction to Energy=                    0.005111
 Thermal correction to Enthalpy=                  0.006055
 Thermal correction to Gibbs Free Energy=        -0.018529
 Sum of electronic and zero-point Energies=           -100.771013
 Sum of electronic and thermal Energies=              -100.768215
 Sum of electronic and thermal Enthalpies=            -100.767271
 Sum of electronic and thermal Free Energies=         -100.791855

                     E (Thermal)             CV                S
                      KCal/Mol        Cal/Mol-Kelvin    Cal/Mol-Kelvin
 Total                    3.207              7.434             51.742
 Electronic               0.000              0.000              1.377
 Translational            0.889              2.981             35.068
 Rotational               0.592              1.987             14.018
 Vibrational              1.726              2.466              1.278
 Vibration     1          0.863              1.233              0.639
 Vibration     2          0.863              1.233              0.639

 Normal termination of Gaussian 16 at Fri Aug 22 20:23:11 2025.
