 Gaussian 16, Revision C.01,
 Gaussian 16:  ES64L-G16RevC.01  3-Jul-2019

 -----------------------------------------
 # sp b3lyp/6-311g** Force nosymm scf=(qc)
 -----------------------------------------

 -------------------
 Title Card Required
 -------------------
 Symbolic Z-matrix:
 Charge =  0 Multiplicity = 2

                          Input orientation:
 ---------------------------------------------------------------------
 Center     Atomic      Atomic             Coordinates (Angstroms)
 Number     Number       Type             X           Y           Z
 ---------------------------------------------------------------------
      1          1           0        0.000000    0.000000    0.000000
      2          1           0       -2.350000    0.000000    0.000000
      3          9           0        2.700000    0.000000    0.000000
 ---------------------------------------------------------------------

 SCF Done:  E(UB3LYP) =  -100.769650573     a.u. after   21 cycles

 Alpha  occ. eigenvalues --  -24.72874  -1.19012  -0.51984  -0.43652  -0.43652
 Alpha  occ. eigenvalues --   -0.33687
 Alpha virt. eigenvalues --   -0.11676   0.25167   0.32991   0.90317   0.93000
 Alpha virt. eigenvalues --    0.93000   1.05815   1.24041   1.24041   1.26177
 Alpha virt. eigenvalues --    1.37871   1.37871   1.41812   2.14167   2.34505

  Beta  occ. eigenvalues --  -24.69938  -1.10623  -0.40719  -0.40719  -0.34594
  Beta virt. eigenvalues --   -0.24095  -0.10065   0.25980   0.34089   0.94425
  Beta virt. eigenvalues --    0.94425   0.98431   1.09415   1.23006   1.23006
  Beta virt. eigenvalues --    1.26146   1.40504   1.40504   1.43621   2.14839

 Mulliken charges and spin densities:
               1          2
     1  H    0.050570  -0.883689
     2  H    0.012097   0.954440
     3  F   -0.062666   0.929249
 Sum of Mulliken charges =  -0.00000   1.00000

 Dipole moment (field-independent basis, Debye):
    X=             -1.0012    Y=              0.0000    Z=              0.0000  Tot=              1.0012
 Quadrupole moment (field-independent basis, Debye-Ang):
   XX=             -8.3382   YY=             -7.6457   ZZ=             -7.6457
   XY=              0.0000   XZ=              0.0000   YZ=             -0.0000

  Exact polarizability:      49.281       0.000       2.010       0.000      -0.000       2.010
 Approx polarizability:      48.493       0.000       1.919       0.000      -0.000       1.919

 ******    2 imaginary frequencies (negative Signs) ******

                      1                      2                      3
                      A                      A                      A
 Frequencies --   -888.5546              -315.5534               342.9233
 Red. masses --      1.0111                 1.1046                 1.0163
 Frc consts  --      0.4703                 0.0648                 0.0704
 IR Inten    --     35.4312                32.2214                 1.8936

                      4
                      A
 Frequencies --    342.9233
 Red. masses --      1.0163
 Frc consts  --      0.0704
 IR Inten    --      1.8936

 - Thermochemistry -
 -------------------
 Temperature   298.150 Kelvin.  Pressure   1.00000 Atm.
 Atom     1 has atomic number  1 and mass   1.00783

 Molecular mass:    21.01405 amu.
 Principal axes and moments of inertia in atomic units:
                           1         2         3
     Eigenvalues --     0.00000 107.65328 107.65328
           X            1.00000  -0.00000   0.00000
           Y            0.00000   1.00000   0.00000
           Z            0.00000   0.00000   1.00000
 This molecule is a prolate symmetric top.
 Rotational symmetry number  1.
 Rotational temperature (Kelvin)      0.80456
 Rotational constant (GHZ):          16.764386
    2 imaginary frequencies ignored.
 Zero-point vibrational energy       4102.3 (Joules/Mol)
                                    0.98047 (Kcal/Mol)
 Warning -- explicit consideration of   2 degrees of freedom as
           vibrations may cause significant error
 Vibrational temperatures:    493.39   493.39
          (Kelvin)

 Zero-point correction=                           0.001562 (Hartree/Particle)
 Thermal correction to Energy=                    0.004661
 Thermal correction to Enthalpy=                  0.005605
 Thermal correction to Gibbs Free Energy=        -0.019379
 Sum of electronic and zero-point Energies=           -100.768088
 Sum of electronic and thermal Energies=              -100.764989
 Sum of electronic and thermal Enthalpies=            -100.764045
 Sum of electronic and thermal Free Energies=         -100.789029

                     E (Thermal)             CV                S
                      KCal/Mol        Cal/Mol-Kelvin    Cal/Mol-Kelvin
 Total                    2.925              8.147             52.584
 Electronic               0.000              0.000              1.377
 Translational            0.889              2.981             35.068
 Rotational               0.592              1.987             13.742
 Vibrational              1.444              3.179              2.397
 Vibration     1          0.722              1.590              1.199
 Vibration     2          0.722              1.590              1.199

 Normal termination of Gaussian 16 at Fri Aug 22 18:25:46 2025.
