 Gaussian 16, Revision C.01,
 Gaussian 16:  ES64L-G16RevC.01  3-Jul-2019

 -----------------------------------------
 # sp b3lyp/6-311g** Force nosymm scf=(qc)
 -----------------------------------------

 -------------------
 Title Card Required
 -------------------
 Symbolic Z-matrix:
 Charge =  0 Multiplicity = 2

                          Input orientation:
 ---------------------------------------------------------------------
 Center     Atomic      Atomic             Coordinates (Angstroms)
 Number     Number       Type             X           Y           Z
 ---------------------------------------------------------------------
      1          1           0        0.000000    0.000000    0.000000
      2          1           0       -1.350000    0.000000    0.000000
      3          9           0        3.750000    0.000000    0.000000
 ---------------------------------------------------------------------

 SCF Done:  E(UB3LYP) =  -100.845004669     a.u. after  218 cycles

 Alpha  occ. eigenvalues --  -24.76280  -1.22173  -0.55374  -0.46556  -0.46530
 Alpha  occ. eigenvalues --   -0.34815
 Alpha virt. eigenvalues --   -0.07167   0.23904   0.31972   0.86003   0.90880
 Alpha virt. eigenvalues --    0.91562   1.00982   1.13008   1.16647   1.16649
 Alpha virt. eigenvalues --    1.47215   1.47218   1.94122   2.27089   2.51304

  Beta  occ. eigenvalues --  -24.73125  -1.13098  -0.43393  -0.43366  -0.34814
  Beta virt. eigenvalues --   -0.26022  -0.07165   0.23909   0.31989   0.92380
  Beta virt. eigenvalues --    0.93055   0.95469   1.05118   1.13014   1.16647
  Beta virt. eigenvalues --    1.16649   1.47215   1.47218   1.94125   2.27090

 Mulliken charges and spin densities:
               1          2
     1  H    0.000846   0.000007
     2  H   -0.002352  -0.000179
     3  F    0.001506   1.000171
 Sum of Mulliken charges =   0.00000   1.00000

 Dipole moment (field-independent basis, Debye):
    X=              0.0312    Y=              0.0000    Z=             -0.0000  Tot=              0.0312
 Quadrupole moment (field-independent basis, Debye-Ang):
   XX=             -6.3002   YY=             -6.8871   ZZ=             -7.5249
   XY=              0.0000   XZ=              0.0000   YZ=              0.2918

  Exact polarizability:      19.131       0.000       2.474       0.000       0.159       2.127
 Approx polarizability:      32.496       0.000       2.581       0.000       0.197       2.152

 ******    2 imaginary frequencies (negative Signs) ******

                      1                      2                      3
                      A                      A                      A
 Frequencies --  -1088.2852               -62.1511              1350.4305
 Red. masses --      1.0078                 1.1085                 1.0101
 Frc consts  --      0.7033                 0.0025                 1.0854
 IR Inten    --      0.1035                 0.0786                 0.0068

                      4
                      A
 Frequencies --   1354.9262
 Red. masses --      1.0101
 Frc consts  --      1.0926
 IR Inten    --      0.0015

 - Thermochemistry -
 -------------------
 Temperature   298.150 Kelvin.  Pressure   1.00000 Atm.
 Atom     1 has atomic number  1 and mass   1.00783

 Molecular mass:    21.01405 amu.
 Principal axes and moments of inertia in atomic units:
                           1         2         3
     Eigenvalues --     0.00000 130.70226 130.70226
           X            1.00000  -0.00000   0.00000
           Y            0.00000   1.00000   0.00000
           Z            0.00000   0.00000   1.00000
 This molecule is a prolate symmetric top.
 Rotational symmetry number  1.
 Rotational temperature (Kelvin)      0.66268
 Rotational constant (GHZ):          13.808033
    2 imaginary frequencies ignored.
 Zero-point vibrational energy      16181.6 (Joules/Mol)
                                    3.86750 (Kcal/Mol)
 Vibrational temperatures:   1942.97  1949.44
          (Kelvin)

 Zero-point correction=                           0.006163 (Hartree/Particle)
 Thermal correction to Energy=                    0.008542
 Thermal correction to Enthalpy=                  0.009486
 Thermal correction to Gibbs Free Energy=        -0.014564
 Sum of electronic and zero-point Energies=           -100.838841
 Sum of electronic and thermal Energies=              -100.836463
 Sum of electronic and thermal Enthalpies=            -100.835519
 Sum of electronic and thermal Free Energies=         -100.859568

                     E (Thermal)             CV                S
                      KCal/Mol        Cal/Mol-Kelvin    Cal/Mol-Kelvin
 Total                    5.360              5.216             50.616
 Electronic               0.000              0.000              1.377
 Translational            0.889              2.981             35.068
 Rotational               0.592              1.987             14.127
 Vibrational              3.879              0.248              0.044

 Normal termination of Gaussian 16 at Sat Aug 23 00:17:12 2025.
