 Gaussian 16, Revision C.01,
 Gaussian 16:  ES64L-G16RevC.01  3-Jul-2019

 -----------------------------------------
 # sp b3lyp/6-311g** Force nosymm scf=(qc)
 -----------------------------------------

 -------------------
 Title Card Required
 -------------------
 Symbolic Z-matrix:
 Charge =  0 Multiplicity = 2

                          Input orientation:
 ---------------------------------------------------------------------
 Center     Atomic      Atomic             Coordinates (Angstroms)
 Number     Number       Type             X           Y           Z
 ---------------------------------------------------------------------
      1          1           0        0.000000    0.000000    0.000000
      2          1           0       -1.450000    0.000000    0.000000
      3          9           0        1.350000    0.000000    0.000000
 ---------------------------------------------------------------------

 SCF Done:  E(UB3LYP) =  -100.904693508     a.u. after   11 cycles

 Alpha  occ. eigenvalues --  -24.64076  -1.11387  -0.48517  -0.38141  -0.36842
 Alpha  occ. eigenvalues --   -0.36842
 Alpha virt. eigenvalues --   -0.02880   0.20444   0.29121   0.93166   0.93166
 Alpha virt. eigenvalues --    1.01698   1.04283   1.14058   1.14058   1.42130
 Alpha virt. eigenvalues --    1.42130   1.53471   1.87763   2.20946   2.42156

  Beta  occ. eigenvalues --  -24.63069  -1.08756  -0.43726  -0.35896  -0.35896
  Beta virt. eigenvalues --   -0.20839   0.00697   0.24018   0.31288   0.93327
  Beta virt. eigenvalues --    0.93327   1.04438   1.09809   1.21891   1.21891
  Beta virt. eigenvalues --    1.45039   1.45039   1.57085   1.93804   2.26410

 Mulliken charges and spin densities:
               1          2
     1  H    0.279332  -0.116814
     2  H    0.066789   0.810560
     3  F   -0.346122   0.306254
 Sum of Mulliken charges =   0.00000   1.00000

 Dipole moment (field-independent basis, Debye):
    X=             -2.8305    Y=             -0.0000    Z=              0.0000  Tot=              2.8305
 Quadrupole moment (field-independent basis, Debye-Ang):
   XX=             -8.1019   YY=             -7.1000   ZZ=             -7.1000
   XY=             -0.0000   XZ=              0.0000   YZ=             -0.0000

  Exact polarizability:      27.415      -0.000       2.381       0.000      -0.000       2.381
 Approx polarizability:      37.742      -0.000       2.340       0.000       0.000       2.340

 ******    1 imaginary frequencies (negative Signs) ******

                      1                      2                      3
                      A                      A                      A
 Frequencies --  -2432.0285               189.1574              1107.0468
 Red. masses --      1.0230                 1.0907                 1.0188
 Frc consts  --      3.5652                 0.0230                 0.7357
 IR Inten    --     40.8318                20.3669                43.3574

                      4
                      A
 Frequencies --   1107.0468
 Red. masses --      1.0188
 Frc consts  --      0.7357
 IR Inten    --     43.3574

 - Thermochemistry -
 -------------------
 Temperature   298.150 Kelvin.  Pressure   1.00000 Atm.
 Atom     1 has atomic number  1 and mass   1.00783

 Molecular mass:    21.01405 amu.
 Principal axes and moments of inertia in atomic units:
                           1         2         3
     Eigenvalues --     0.00000  31.80270  31.80270
           X            1.00000  -0.00000   0.00000
           Y            0.00000   1.00000   0.00000
           Z            0.00000   0.00000   1.00000
 This molecule is a prolate symmetric top.
 Rotational symmetry number  1.
 Rotational temperature (Kelvin)      2.72348
 Rotational constant (GHZ):          56.748054
    1 imaginary frequencies ignored.
 Zero-point vibrational energy      14374.6 (Joules/Mol)
                                    3.43562 (Kcal/Mol)
 Warning -- explicit consideration of   1 degrees of freedom as
           vibrations may cause significant error
 Vibrational temperatures:    272.16  1592.79  1592.79
          (Kelvin)

 Zero-point correction=                           0.005475 (Hartree/Particle)
 Thermal correction to Energy=                    0.008462
 Thermal correction to Enthalpy=                  0.009406
 Thermal correction to Gibbs Free Energy=        -0.014408
 Sum of electronic and zero-point Energies=           -100.899218
 Sum of electronic and thermal Energies=              -100.896232
 Sum of electronic and thermal Enthalpies=            -100.895287
 Sum of electronic and thermal Free Energies=         -100.919102

                     E (Thermal)             CV                S
                      KCal/Mol        Cal/Mol-Kelvin    Cal/Mol-Kelvin
 Total                    5.310              7.371             50.121
 Electronic               0.000              0.000              1.377
 Translational            0.889              2.981             35.068
 Rotational               0.592              1.987             11.318
 Vibrational              3.829              2.403              2.357
 Vibration     1          0.633              1.855              2.236

 Normal termination of Gaussian 16 at Fri Aug 22 16:17:11 2025.
