 Gaussian 16, Revision C.01,
 Gaussian 16:  ES64L-G16RevC.01  3-Jul-2019

 -----------------------------------------
 # sp b3lyp/6-311g** Force nosymm scf=(qc)
 -----------------------------------------

 -------------------
 Title Card Required
 -------------------
 Symbolic Z-matrix:
 Charge =  0 Multiplicity = 2

                          Input orientation:
 ---------------------------------------------------------------------
 Center     Atomic      Atomic             Coordinates (Angstroms)
 Number     Number       Type             X           Y           Z
 ---------------------------------------------------------------------
      1          1           0        0.000000    0.000000    0.000000
      2          1           0       -1.950000    0.000000    0.000000
      3          9           0        3.300000    0.000000    0.000000
 ---------------------------------------------------------------------

 SCF Done:  E(UB3LYP) =  -100.777346529     a.u. after   30 cycles

 Alpha  occ. eigenvalues --  -24.75257  -1.21229  -0.54379  -0.45662  -0.45662
 Alpha  occ. eigenvalues --   -0.33347
 Alpha virt. eigenvalues --   -0.11313   0.25723   0.31743   0.88353   0.91546
 Alpha virt. eigenvalues --    0.91546   1.02379   1.14993   1.24616   1.24616
 Alpha virt. eigenvalues --    1.37277   1.37277   1.53059   2.13025   2.37226

  Beta  occ. eigenvalues --  -24.72158  -1.12327  -0.42556  -0.42556  -0.33411
  Beta virt. eigenvalues --   -0.25481  -0.10991   0.25760   0.32243   0.93030
  Beta virt. eigenvalues --    0.93030   0.97388   1.06379   1.14998   1.24520
  Beta virt. eigenvalues --    1.24520   1.37727   1.37727   1.53407   2.13837

 Mulliken charges and spin densities:
               1          2
     1  H    0.005730  -0.816291
     2  H    0.009368   0.833742
     3  F   -0.015098   0.982549
 Sum of Mulliken charges =  -0.00000   1.00000

 Dipole moment (field-independent basis, Debye):
    X=             -0.3420    Y=             -0.0000    Z=             -0.0000  Tot=              0.3420
 Quadrupole moment (field-independent basis, Debye-Ang):
   XX=             -6.7696   YY=             -7.7296   ZZ=             -7.7296
   XY=              0.0000   XZ=              0.0000   YZ=             -0.0000

  Exact polarizability:      51.297       0.000       2.013       0.000       0.000       2.013
 Approx polarizability:      46.119       0.000       1.939       0.000       0.000       1.939

 ******    2 imaginary frequencies (negative Signs) ******

                      1                      2                      3
                      A                      A                      A
 Frequencies --  -1451.1185              -171.4165               598.9069
 Red. masses --      1.0079                 1.1085                 1.0128
 Frc consts  --      1.2504                 0.0192                 0.2140
 IR Inten    --     22.6767                13.5641                 0.0031

                      4
                      A
 Frequencies --    598.9069
 Red. masses --      1.0128
 Frc consts  --      0.2140
 IR Inten    --      0.0031

 - Thermochemistry -
 -------------------
 Temperature   298.150 Kelvin.  Pressure   1.00000 Atm.
 Atom     1 has atomic number  1 and mass   1.00783

 Molecular mass:    21.01405 amu.
 Principal axes and moments of inertia in atomic units:
                           1         2         3
     Eigenvalues --     0.00000 125.77288 125.77288
           X            1.00000  -0.00000   0.00000
           Y            0.00000   1.00000   0.00000
           Z            0.00000   0.00000   1.00000
 This molecule is a prolate symmetric top.
 Rotational symmetry number  1.
 Rotational temperature (Kelvin)      0.68865
 Rotational constant (GHZ):          14.349208
    2 imaginary frequencies ignored.
 Zero-point vibrational energy       7164.5 (Joules/Mol)
                                    1.71236 (Kcal/Mol)
 Warning -- explicit consideration of   2 degrees of freedom as
           vibrations may cause significant error
 Vibrational temperatures:    861.69   861.69
          (Kelvin)

 Zero-point correction=                           0.002729 (Hartree/Particle)
 Thermal correction to Energy=                    0.005410
 Thermal correction to Enthalpy=                  0.006355
 Thermal correction to Gibbs Free Energy=        -0.018067
 Sum of electronic and zero-point Energies=           -100.774618
 Sum of electronic and thermal Energies=              -100.771936
 Sum of electronic and thermal Enthalpies=            -100.770992
 Sum of electronic and thermal Free Energies=         -100.795413

                     E (Thermal)             CV                S
                      KCal/Mol        Cal/Mol-Kelvin    Cal/Mol-Kelvin
 Total                    3.395              7.036             51.399
 Electronic               0.000              0.000              1.377
 Translational            0.889              2.981             35.068
 Rotational               0.592              1.987             14.051
 Vibrational              1.914              2.068              0.903
 Vibration     1          0.957              1.034              0.452
 Vibration     2          0.957              1.034              0.452

 Normal termination of Gaussian 16 at Fri Aug 22 20:48:05 2025.
