 Gaussian 16, Revision C.01,
 Gaussian 16:  ES64L-G16RevC.01  3-Jul-2019

 -----------------------------------------
 # sp b3lyp/6-311g** Force nosymm scf=(qc)
 -----------------------------------------

 -------------------
 Title Card Required
 -------------------
 Symbolic Z-matrix:
 Charge =  0 Multiplicity = 2

                          Input orientation:
 ---------------------------------------------------------------------
 Center     Atomic      Atomic             Coordinates (Angstroms)
 Number     Number       Type             X           Y           Z
 ---------------------------------------------------------------------
      1          1           0        0.000000    0.000000    0.000000
      2          1           0       -1.150000    0.000000    0.000000
      3          9           0        3.500000    0.000000    0.000000
 ---------------------------------------------------------------------

 SCF Done:  E(UB3LYP) =  -100.880868131     a.u. after  160 cycles

 Alpha  occ. eigenvalues --  -24.76375  -1.22245  -0.55444  -0.46639  -0.46598
 Alpha  occ. eigenvalues --   -0.36870
 Alpha virt. eigenvalues --   -0.02948   0.22503   0.35177   0.85957   0.90833
 Alpha virt. eigenvalues --    0.92256   1.01467   1.11823   1.11826   1.25901
 Alpha virt. eigenvalues --    1.57122   1.57126   2.12258   2.33144   2.55071

  Beta  occ. eigenvalues --  -24.73217  -1.13167  -0.43475  -0.43433  -0.36867
  Beta virt. eigenvalues --   -0.26085  -0.02942   0.22512   0.35212   0.92333
  Beta virt. eigenvalues --    0.93765   0.95420   1.05562   1.11823   1.11826
  Beta virt. eigenvalues --    1.25908   1.57122   1.57125   2.12264   2.33146

 Mulliken charges and spin densities:
               1          2
     1  H   -0.000000  -0.000204
     2  H   -0.003124  -0.000161
     3  F    0.003124   1.000365
 Sum of Mulliken charges =  -0.00000   1.00000

 Dipole moment (field-independent basis, Debye):
    X=              0.0479    Y=              0.0000    Z=             -0.0000  Tot=              0.0479
 Quadrupole moment (field-independent basis, Debye-Ang):
   XX=             -6.2579   YY=             -7.0105   ZZ=             -7.0137
   XY=              0.0000   XZ=             -0.0000   YZ=             -0.4321

  Exact polarizability:      15.029       0.000       2.311      -0.000      -0.232       2.309
 Approx polarizability:      21.787       0.000       2.403      -0.000      -0.291       2.400

 ******    1 imaginary frequencies (negative Signs) ******

                      1                      2                      3
                      A                      A                      A
 Frequencies --    -43.4074               583.8540              1503.9005
 Red. masses --      1.1085                 1.0078                 1.0098
 Frc consts  --      0.0012                 0.2024                 1.3456
 IR Inten    --      0.1663                 0.1857                 0.0008

                      4
                      A
 Frequencies --   1503.9461
 Red. masses --      1.0098
 Frc consts  --      1.3457
 IR Inten    --      0.0006

 - Thermochemistry -
 -------------------
 Temperature   298.150 Kelvin.  Pressure   1.00000 Atm.
 Atom     1 has atomic number  1 and mass   1.00783

 Molecular mass:    21.01405 amu.
 Principal axes and moments of inertia in atomic units:
                           1         2         3
     Eigenvalues --     0.00000 110.44243 110.44243
           X            1.00000  -0.00000   0.00000
           Y            0.00000   1.00000   0.00000
           Z            0.00000   0.00000   1.00000
 This molecule is a prolate symmetric top.
 Rotational symmetry number  1.
 Rotational temperature (Kelvin)      0.78424
 Rotational constant (GHZ):          16.341013
    1 imaginary frequencies ignored.
 Zero-point vibrational energy      21483.1 (Joules/Mol)
                                    5.13459 (Kcal/Mol)
 Warning -- explicit consideration of   1 degrees of freedom as
           vibrations may cause significant error
 Vibrational temperatures:    840.04  2163.78  2163.84
          (Kelvin)

 Zero-point correction=                           0.008182 (Hartree/Particle)
 Thermal correction to Energy=                    0.010722
 Thermal correction to Enthalpy=                  0.011666
 Thermal correction to Gibbs Free Energy=        -0.012442
 Sum of electronic and zero-point Energies=           -100.872686
 Sum of electronic and thermal Energies=              -100.870146
 Sum of electronic and thermal Enthalpies=            -100.869202
 Sum of electronic and thermal Free Energies=         -100.893310

                     E (Thermal)             CV                S
                      KCal/Mol        Cal/Mol-Kelvin    Cal/Mol-Kelvin
 Total                    6.728              6.182             50.739
 Electronic               0.000              0.000              1.377
 Translational            0.889              2.981             35.068
 Rotational               0.592              1.987             13.792
 Vibrational              5.247              1.214              0.501
 Vibration     1          0.941              1.066              0.478

 Normal termination of Gaussian 16 at Fri Aug 22 21:56:16 2025.
