 Gaussian 16, Revision C.01,
 Gaussian 16:  ES64L-G16RevC.01  3-Jul-2019

 -----------------------------------------
 # sp b3lyp/6-311g** Force nosymm scf=(qc)
 -----------------------------------------

 -------------------
 Title Card Required
 -------------------
 Symbolic Z-matrix:
 Charge =  0 Multiplicity = 2

                          Input orientation:
 ---------------------------------------------------------------------
 Center     Atomic      Atomic             Coordinates (Angstroms)
 Number     Number       Type             X           Y           Z
 ---------------------------------------------------------------------
      1          1           0        0.000000    0.000000    0.000000
      2          1           0       -1.500000    0.000000    0.000000
      3          9           0        2.250000    0.000000    0.000000
 ---------------------------------------------------------------------

 SCF Done:  E(UB3LYP) =  -100.827789709     a.u. after   14 cycles

 Alpha  occ. eigenvalues --  -24.71817  -1.18045  -0.51084  -0.42800  -0.42800
 Alpha  occ. eigenvalues --   -0.36860
 Alpha virt. eigenvalues --   -0.10693   0.23133   0.31459   0.86667   0.93301
 Alpha virt. eigenvalues --    0.93301   1.03108   1.17272   1.17272   1.21059
 Alpha virt. eigenvalues --    1.39266   1.39266   1.80120   2.19653   2.45472

  Beta  occ. eigenvalues --  -24.69010  -1.10075  -0.40007  -0.40007  -0.36294
  Beta virt. eigenvalues --   -0.24265  -0.09569   0.24679   0.31378   0.91937
  Beta virt. eigenvalues --    0.94594   0.94594   1.06647   1.18365   1.18365
  Beta virt. eigenvalues --    1.24963   1.39972   1.39972   1.81129   2.20755

 Mulliken charges and spin densities:
               1          2
     1  H    0.043627  -0.340302
     2  H    0.050435   0.455677
     3  F   -0.094061   0.884625
 Sum of Mulliken charges =  -0.00000   1.00000

 Dipole moment (field-independent basis, Debye):
    X=             -1.4239    Y=              0.0000    Z=              0.0000  Tot=              1.4239
 Quadrupole moment (field-independent basis, Debye-Ang):
   XX=             -7.3012   YY=             -7.6082   ZZ=             -7.6082
   XY=             -0.0000   XZ=             -0.0000   YZ=              0.0000

  Exact polarizability:      56.514      -0.000       2.074      -0.000       0.000       2.074
 Approx polarizability:      82.913       0.000       2.041       0.000       0.000       2.041

 ******    2 imaginary frequencies (negative Signs) ******

                      1                      2                      3
                      A                      A                      A
 Frequencies --  -2076.1483              -385.8489              1113.3228
 Red. masses --      1.0095                 1.1065                 1.0138
 Frc consts  --      2.5637                 0.0971                 0.7403
 IR Inten    --    751.3591                29.5654                 0.2597

                      4
                      A
 Frequencies --   1113.3228
 Red. masses --      1.0138
 Frc consts  --      0.7403
 IR Inten    --      0.2597

 - Thermochemistry -
 -------------------
 Temperature   298.150 Kelvin.  Pressure   1.00000 Atm.
 Atom     1 has atomic number  1 and mass   1.00783

 Molecular mass:    21.01405 amu.
 Principal axes and moments of inertia in atomic units:
                           1         2         3
     Eigenvalues --     0.00000  62.61719  62.61719
           X            1.00000  -0.00000   0.00000
           Y            0.00000   1.00000   0.00000
           Z            0.00000   0.00000   1.00000
 This molecule is a prolate symmetric top.
 Rotational symmetry number  1.
 Rotational temperature (Kelvin)      1.38323
 Rotational constant (GHZ):          28.821817
    2 imaginary frequencies ignored.
 Zero-point vibrational energy      13318.3 (Joules/Mol)
                                    3.18315 (Kcal/Mol)
 Vibrational temperatures:   1601.82  1601.82
          (Kelvin)

 Zero-point correction=                           0.005073 (Hartree/Particle)
 Thermal correction to Energy=                    0.007480
 Thermal correction to Enthalpy=                  0.008425
 Thermal correction to Gibbs Free Energy=        -0.014965
 Sum of electronic and zero-point Energies=           -100.822717
 Sum of electronic and thermal Energies=              -100.820309
 Sum of electronic and thermal Enthalpies=            -100.819365
 Sum of electronic and thermal Free Energies=         -100.842755

                     E (Thermal)             CV                S
                      KCal/Mol        Cal/Mol-Kelvin    Cal/Mol-Kelvin
 Total                    4.694              5.506             49.228
 Electronic               0.000              0.000              1.377
 Translational            0.889              2.981             35.068
 Rotational               0.592              1.987             12.665
 Vibrational              3.213              0.538              0.118

 Normal termination of Gaussian 16 at Fri Aug 22 17:15:58 2025.
