 Gaussian 16, Revision C.01,
 Gaussian 16:  ES64L-G16RevC.01  3-Jul-2019

 -----------------------------------------
 # sp b3lyp/6-311g** Force nosymm scf=(qc)
 -----------------------------------------

 -------------------
 Title Card Required
 -------------------
 Symbolic Z-matrix:
 Charge =  0 Multiplicity = 2

                          Input orientation:
 ---------------------------------------------------------------------
 Center     Atomic      Atomic             Coordinates (Angstroms)
 Number     Number       Type             X           Y           Z
 ---------------------------------------------------------------------
      1          1           0        0.000000    0.000000    0.000000
      2          1           0       -3.400000    0.000000    0.000000
      3          9           0        3.700000    0.000000    0.000000
 ---------------------------------------------------------------------

 SCF Done:  E(UB3LYP) =  -100.758950548     a.u. after   31 cycles

 Alpha  occ. eigenvalues --  -24.75660  -1.21603  -0.54784  -0.45997  -0.45997
 Alpha  occ. eigenvalues --   -0.32310
 Alpha virt. eigenvalues --   -0.06983   0.24443   0.37204   0.87063   0.91310
 Alpha virt. eigenvalues --    0.91310   1.01403   1.25198   1.25198   1.25412
 Alpha virt. eigenvalues --    1.45133   1.45358   1.45358   2.15204   2.40894

  Beta  occ. eigenvalues --  -24.72528  -1.12601  -0.42858  -0.42858  -0.32634
  Beta virt. eigenvalues --   -0.25623  -0.06627   0.24239   0.37797   0.92804
  Beta virt. eigenvalues --    0.92804   0.96320   1.05477   1.24834   1.24834
  Beta virt. eigenvalues --    1.25028   1.45692   1.45926   1.45926   2.15305

 Mulliken charges and spin densities:
               1          2
     1  H    0.006289  -0.990138
     2  H    0.000157   0.997265
     3  F   -0.006446   0.992873
 Sum of Mulliken charges =   0.00000   1.00000

 Dipole moment (field-independent basis, Debye):
    X=             -0.1255    Y=             -0.0000    Z=              0.0000  Tot=              0.1255
 Quadrupole moment (field-independent basis, Debye-Ang):
   XX=             -7.1313   YY=             -7.6248   ZZ=             -7.6248
   XY=             -0.0000   XZ=              0.0000   YZ=              0.0000

  Exact polarizability:      18.469       0.000       1.970       0.000      -0.000       1.970
 Approx polarizability:      13.792      -0.000       1.935       0.000      -0.000       1.935

 ******    2 imaginary frequencies (negative Signs) ******

                      1                      2                      3
                      A                      A                      A
 Frequencies --   -233.2232               -95.5773                95.6675
 Red. masses --      1.0151                 1.0998                 1.0170
 Frc consts  --      0.0325                 0.0059                 0.0055
 IR Inten    --      3.9440                 1.3360                 0.0765

                      4
                      A
 Frequencies --     95.6828
 Red. masses --      1.0170
 Frc consts  --      0.0055
 IR Inten    --      0.0765

 - Thermochemistry -
 -------------------
 Temperature   298.150 Kelvin.  Pressure   1.00000 Atm.
 Atom     1 has atomic number  1 and mass   1.00783

 Molecular mass:    21.01405 amu.
 Principal axes and moments of inertia in atomic units:
                           1         2         3
     Eigenvalues --     0.00000 210.56358 210.56358
           X            1.00000  -0.00000   0.00000
           Y            0.00000   1.00000   0.00000
           Z            0.00000   0.00000   1.00000
 This molecule is a prolate symmetric top.
 Rotational symmetry number  1.
 Rotational temperature (Kelvin)      0.41134
 Rotational constant (GHZ):           8.571004
    2 imaginary frequencies ignored.
 Zero-point vibrational energy       1144.5 (Joules/Mol)
                                    0.27355 (Kcal/Mol)
 Warning -- explicit consideration of   2 degrees of freedom as
           vibrations may cause significant error
 Vibrational temperatures:    137.64   137.67
          (Kelvin)

 Zero-point correction=                           0.000436 (Hartree/Particle)
 Thermal correction to Energy=                    0.004282
 Thermal correction to Enthalpy=                  0.005226
 Thermal correction to Gibbs Free Energy=        -0.022617
 Sum of electronic and zero-point Energies=           -100.758515
 Sum of electronic and thermal Energies=              -100.754668
 Sum of electronic and thermal Enthalpies=            -100.753724
 Sum of electronic and thermal Free Energies=         -100.781567

                     E (Thermal)             CV                S
                      KCal/Mol        Cal/Mol-Kelvin    Cal/Mol-Kelvin
 Total                    2.687              8.873             58.601
 Electronic               0.000              0.000              1.377
 Translational            0.889              2.981             35.068
 Rotational               0.592              1.987             15.075
 Vibrational              1.206              3.905              7.081
 Vibration     1          0.603              1.952              3.541
 Vibration     2          0.603              1.952              3.540

 Normal termination of Gaussian 16 at Sat Aug 23 00:04:44 2025.
