 Gaussian 16, Revision C.01,
 Gaussian 16:  ES64L-G16RevC.01  3-Jul-2019

 -----------------------------------------
 # sp b3lyp/6-311g** Force nosymm scf=(qc)
 -----------------------------------------

 -------------------
 Title Card Required
 -------------------
 Symbolic Z-matrix:
 Charge =  0 Multiplicity = 2

                          Input orientation:
 ---------------------------------------------------------------------
 Center     Atomic      Atomic             Coordinates (Angstroms)
 Number     Number       Type             X           Y           Z
 ---------------------------------------------------------------------
      1          1           0        0.000000    0.000000    0.000000
      2          1           0       -2.200000    0.000000    0.000000
      3          9           0        1.450000    0.000000    0.000000
 ---------------------------------------------------------------------

 SCF Done:  E(UB3LYP) =  -100.868739053     a.u. after    9 cycles

 Alpha  occ. eigenvalues --  -24.63848  -1.09812  -0.44147  -0.36489  -0.36163
 Alpha  occ. eigenvalues --   -0.36163
 Alpha virt. eigenvalues --   -0.11412   0.23587   0.26855   0.93813   0.93813
 Alpha virt. eigenvalues --    1.03457   1.09914   1.20868   1.20868   1.29461
 Alpha virt. eigenvalues --    1.33117   1.33117   1.73457   2.10509   2.23583

  Beta  occ. eigenvalues --  -24.63503  -1.08906  -0.42936  -0.35837  -0.35837
  Beta virt. eigenvalues --   -0.16421  -0.06847   0.26042   0.34148   0.93719
  Beta virt. eigenvalues --    0.93719   1.04360   1.12532   1.31729   1.31729
  Beta virt. eigenvalues --    1.40005   1.40005   1.44759   1.73310   2.18276

 Mulliken charges and spin densities:
               1          2
     1  H    0.328273  -0.068637
     2  H    0.030673   0.960912
     3  F   -0.358946   0.107725
 Sum of Mulliken charges =   0.00000   1.00000

 Dipole moment (field-independent basis, Debye):
    X=             -2.8958    Y=              0.0000    Z=             -0.0000  Tot=              2.8958
 Quadrupole moment (field-independent basis, Debye-Ang):
   XX=             -8.9653   YY=             -7.2825   ZZ=             -7.2825
   XY=              0.0000   XZ=             -0.0000   YZ=              0.0000

  Exact polarizability:      23.086      -0.000       2.240       0.000      -0.000       2.240
 Approx polarizability:      33.890      -0.000       2.175       0.000      -0.000       2.175

 ******    2 imaginary frequencies (negative Signs) ******

                      1                      2                      3
                      A                      A                      A
 Frequencies --  -1444.0217              -304.7329              1024.2641
 Red. masses --      1.0410                 1.0709                 1.0237
 Frc consts  --      1.2790                 0.0586                 0.6328
 IR Inten    --    144.0329                 1.0789                89.3000

                      4
                      A
 Frequencies --   1024.2641
 Red. masses --      1.0237
 Frc consts  --      0.6328
 IR Inten    --     89.3000

 - Thermochemistry -
 -------------------
 Temperature   298.150 Kelvin.  Pressure   1.00000 Atm.
 Atom     1 has atomic number  1 and mass   1.00783

 Molecular mass:    21.01405 amu.
 Principal axes and moments of inertia in atomic units:
                           1         2         3
     Eigenvalues --     0.00000  51.02520  51.02520
           X            1.00000  -0.00000   0.00000
           Y            0.00000   1.00000   0.00000
           Z            0.00000   0.00000   1.00000
 This molecule is a prolate symmetric top.
 Rotational symmetry number  1.
 Rotational temperature (Kelvin)      1.69747
 Rotational constant (GHZ):          35.369605
    2 imaginary frequencies ignored.
 Zero-point vibrational energy      12252.9 (Joules/Mol)
                                    2.92852 (Kcal/Mol)
 Vibrational temperatures:   1473.69  1473.69
          (Kelvin)

 Zero-point correction=                           0.004667 (Hartree/Particle)
 Thermal correction to Energy=                    0.007094
 Thermal correction to Enthalpy=                  0.008039
 Thermal correction to Gibbs Free Energy=        -0.015183
 Sum of electronic and zero-point Energies=           -100.864072
 Sum of electronic and thermal Energies=              -100.861645
 Sum of electronic and thermal Enthalpies=            -100.860700
 Sum of electronic and thermal Free Energies=         -100.883922

                     E (Thermal)             CV                S
                      KCal/Mol        Cal/Mol-Kelvin    Cal/Mol-Kelvin
 Total                    4.452              5.671             48.873
 Electronic               0.000              0.000              1.377
 Translational            0.889              2.981             35.068
 Rotational               0.592              1.987             12.258
 Vibrational              2.971              0.703              0.170

 Normal termination of Gaussian 16 at Fri Aug 22 16:22:58 2025.
