 Gaussian 16, Revision C.01,
 Gaussian 16:  ES64L-G16RevC.01  3-Jul-2019

 -----------------------------------------
 # sp b3lyp/6-311g** Force nosymm scf=(qc)
 -----------------------------------------

 -------------------
 Title Card Required
 -------------------
 Symbolic Z-matrix:
 Charge =  0 Multiplicity = 2

                          Input orientation:
 ---------------------------------------------------------------------
 Center     Atomic      Atomic             Coordinates (Angstroms)
 Number     Number       Type             X           Y           Z
 ---------------------------------------------------------------------
      1          1           0        0.000000    0.000000    0.000000
      2          1           0       -3.350000    0.000000    0.000000
      3          9           0        0.850000    0.000000    0.000000
 ---------------------------------------------------------------------

 SCF Done:  E(UB3LYP) =  -100.965520844     a.u. after    6 cycles

 Alpha  occ. eigenvalues --  -24.63852  -1.20901  -0.55010  -0.40132  -0.40132
 Alpha  occ. eigenvalues --   -0.33687
 Alpha virt. eigenvalues --    0.04246   0.24794   0.42552   0.94339   0.94339
 Alpha virt. eigenvalues --    0.97394   1.23485   1.23830   1.23830   1.30372
 Alpha virt. eigenvalues --    1.38360   1.38360   2.03152   2.14508   2.42907

  Beta  occ. eigenvalues --  -24.63850  -1.20897  -0.55006  -0.40131  -0.40131
  Beta virt. eigenvalues --   -0.05751   0.04937   0.39192   0.42539   0.94340
  Beta virt. eigenvalues --    0.94340   0.97384   1.29699   1.38360   1.38360
  Beta virt. eigenvalues --    1.50568   1.50834   1.50834   2.03192   2.42868

 Mulliken charges and spin densities:
               1          2
     1  H    0.283779   0.000800
     2  H    0.001136   0.998571
     3  F   -0.284915   0.000628
 Sum of Mulliken charges =   0.00000   1.00000

 Dipole moment (field-independent basis, Debye):
    X=             -1.8243    Y=             -0.0000    Z=              0.0000  Tot=              1.8243
 Quadrupole moment (field-independent basis, Debye-Ang):
   XX=             -7.7316   YY=             -6.8197   ZZ=             -6.8197
   XY=             -0.0000   XZ=              0.0000   YZ=             -0.0000

  Exact polarizability:       5.281       0.000       2.438      -0.000       0.000       2.438
 Approx polarizability:       5.979       0.000       2.418      -0.000       0.000       2.418

 ******    3 imaginary frequencies (negative Signs) ******

                      1                      2                      3
                      A                      A                      A
 Frequencies --  -1323.8851             -1323.8851               -49.3762
 Red. masses --      1.0387                 1.0387                 1.0532
 Frc consts  --      1.0726                 1.0726                 0.0015
 IR Inten    --    187.2676               187.2676                 0.0567

                      4
                      A
 Frequencies --   5311.3525
 Red. masses --      1.0583
 Frc consts  --     17.5905
 IR Inten    --    105.3212

 - Thermochemistry -
 -------------------
 Temperature   298.150 Kelvin.  Pressure   1.00000 Atm.
 Atom     1 has atomic number  1 and mass   1.00783

 Molecular mass:    21.01405 amu.
 Principal axes and moments of inertia in atomic units:
                           1         2         3
     Eigenvalues --     0.00000  61.68489  61.68489
           X            1.00000  -0.00000   0.00000
           Y            0.00000   1.00000   0.00000
           Z            0.00000   0.00000   1.00000
 This molecule is a prolate symmetric top.
 Rotational symmetry number  1.
 Rotational temperature (Kelvin)      1.40414
 Rotational constant (GHZ):          29.257429
    3 imaginary frequencies ignored.
 Zero-point vibrational energy      31768.9 (Joules/Mol)
                                    7.59296 (Kcal/Mol)
 Vibrational temperatures:   7641.85
          (Kelvin)

 Zero-point correction=                           0.012100 (Hartree/Particle)
 Thermal correction to Energy=                    0.014461
 Thermal correction to Enthalpy=                  0.015405
 Thermal correction to Gibbs Free Energy=        -0.007915
 Sum of electronic and zero-point Energies=           -100.953421
 Sum of electronic and thermal Energies=              -100.951060
 Sum of electronic and thermal Enthalpies=            -100.950116
 Sum of electronic and thermal Free Energies=         -100.973436

                     E (Thermal)             CV                S
                      KCal/Mol        Cal/Mol-Kelvin    Cal/Mol-Kelvin
 Total                    9.074              4.968             49.080
 Electronic               0.000              0.000              1.377
 Translational            0.889              2.981             35.068
 Rotational               0.592              1.987             12.635
 Vibrational              7.593              0.000              0.000

 Normal termination of Gaussian 16 at Fri Aug 22 15:54:20 2025.
