 Gaussian 16, Revision C.01,
 Gaussian 16:  ES64L-G16RevC.01  3-Jul-2019

 -----------------------------------------
 # sp b3lyp/6-311g** Force nosymm scf=(qc)
 -----------------------------------------

 -------------------
 Title Card Required
 -------------------
 Symbolic Z-matrix:
 Charge =  0 Multiplicity = 2

                          Input orientation:
 ---------------------------------------------------------------------
 Center     Atomic      Atomic             Coordinates (Angstroms)
 Number     Number       Type             X           Y           Z
 ---------------------------------------------------------------------
      1          1           0        0.000000    0.000000    0.000000
      2          1           0       -2.600000    0.000000    0.000000
      3          9           0        2.500000    0.000000    0.000000
 ---------------------------------------------------------------------

 SCF Done:  E(UB3LYP) =  -100.770241354     a.u. after   20 cycles

 Alpha  occ. eigenvalues --  -24.71748  -1.17957  -0.50846  -0.42710  -0.42710
 Alpha  occ. eigenvalues --   -0.33640
 Alpha virt. eigenvalues --   -0.11697   0.24700   0.33374   0.90029   0.93622
 Alpha virt. eigenvalues --    0.93622   1.06568   1.23978   1.23978   1.26424
 Alpha virt. eigenvalues --    1.38453   1.38453   1.43224   2.14981   2.33867

  Beta  occ. eigenvalues --  -24.68906  -1.09867  -0.39877  -0.39877  -0.35324
  Beta virt. eigenvalues --   -0.23374  -0.09196   0.25585   0.35111   0.94987
  Beta virt. eigenvalues --    0.94987   0.96871   1.09329   1.22266   1.22266
  Beta virt. eigenvalues --    1.30171   1.42320   1.42320   1.43544   2.14448

 Mulliken charges and spin densities:
               1          2
     1  H    0.080647  -0.875914
     2  H    0.008641   0.977885
     3  F   -0.089288   0.898029
 Sum of Mulliken charges =  -0.00000   1.00000

 Dipole moment (field-independent basis, Debye):
    X=             -1.2429    Y=             -0.0000    Z=              0.0000  Tot=              1.2429
 Quadrupole moment (field-independent basis, Debye-Ang):
   XX=             -8.9150   YY=             -7.6039   ZZ=             -7.6039
   XY=              0.0000   XZ=              0.0000   YZ=             -0.0000

  Exact polarizability:      41.066       0.000       2.017       0.000      -0.000       2.017
 Approx polarizability:      45.313      -0.000       1.918       0.000       0.000       1.918

 ******    2 imaginary frequencies (negative Signs) ******

                      1                      2                      3
                      A                      A                      A
 Frequencies --   -760.9773              -316.9089               301.6906
 Red. masses --      1.0257                 1.0877                 1.0184
 Frc consts  --      0.3500                 0.0644                 0.0546
 IR Inten    --     60.2262                17.8705                 5.4978

                      4
                      A
 Frequencies --    301.6906
 Red. masses --      1.0184
 Frc consts  --      0.0546
 IR Inten    --      5.4978

 - Thermochemistry -
 -------------------
 Temperature   298.150 Kelvin.  Pressure   1.00000 Atm.
 Atom     1 has atomic number  1 and mass   1.00783

 Molecular mass:    21.01405 amu.
 Principal axes and moments of inertia in atomic units:
                           1         2         3
     Eigenvalues --     0.00000 106.13424 106.13424
           X            1.00000  -0.00000   0.00000
           Y            0.00000   1.00000   0.00000
           Z            0.00000   0.00000   1.00000
 This molecule is a prolate symmetric top.
 Rotational symmetry number  1.
 Rotational temperature (Kelvin)      0.81608
 Rotational constant (GHZ):          17.004326
    2 imaginary frequencies ignored.
 Zero-point vibrational energy       3609.0 (Joules/Mol)
                                    0.86258 (Kcal/Mol)
 Warning -- explicit consideration of   2 degrees of freedom as
           vibrations may cause significant error
 Vibrational temperatures:    434.07   434.07
          (Kelvin)

 Zero-point correction=                           0.001375 (Hartree/Particle)
 Thermal correction to Energy=                    0.004571
 Thermal correction to Enthalpy=                  0.005515
 Thermal correction to Gibbs Free Energy=        -0.019654
 Sum of electronic and zero-point Energies=           -100.768867
 Sum of electronic and thermal Energies=              -100.765670
 Sum of electronic and thermal Enthalpies=            -100.764726
 Sum of electronic and thermal Free Energies=         -100.789896

                     E (Thermal)             CV                S
                      KCal/Mol        Cal/Mol-Kelvin    Cal/Mol-Kelvin
 Total                    2.868              8.309             52.974
 Electronic               0.000              0.000              1.377
 Translational            0.889              2.981             35.068
 Rotational               0.592              1.987             13.713
 Vibrational              1.387              3.341              2.815
 Vibration     1          0.694              1.670              1.408
 Vibration     2          0.694              1.670              1.408

 Normal termination of Gaussian 16 at Fri Aug 22 17:45:22 2025.
