 Gaussian 16, Revision C.01,
 Gaussian 16:  ES64L-G16RevC.01  3-Jul-2019

 -----------------------------------------
 # sp b3lyp/6-311g** Force nosymm scf=(qc)
 -----------------------------------------

 -------------------
 Title Card Required
 -------------------
 Symbolic Z-matrix:
 Charge =  0 Multiplicity = 2

                          Input orientation:
 ---------------------------------------------------------------------
 Center     Atomic      Atomic             Coordinates (Angstroms)
 Number     Number       Type             X           Y           Z
 ---------------------------------------------------------------------
      1          1           0        0.000000    0.000000    0.000000
      2          1           0       -1.250000    0.000000    0.000000
      3          9           0        1.950000    0.000000    0.000000
 ---------------------------------------------------------------------

 SCF Done:  E(UB3LYP) =  -100.871709874     a.u. after   13 cycles

 Alpha  occ. eigenvalues --  -24.71349  -1.17688  -0.51180  -0.42482  -0.42482
 Alpha  occ. eigenvalues --   -0.39132
 Alpha virt. eigenvalues --   -0.05667   0.21723   0.32937   0.88753   0.92492
 Alpha virt. eigenvalues --    0.92492   1.05260   1.11139   1.11139   1.38194
 Alpha virt. eigenvalues --    1.49049   1.49049   2.03278   2.26774   2.52467

  Beta  occ. eigenvalues --  -24.68640  -1.10047  -0.39796  -0.39796  -0.38845
  Beta virt. eigenvalues --   -0.24479  -0.03843   0.22968   0.33388   0.93633
  Beta virt. eigenvalues --    0.93633   0.94686   1.08517   1.12758   1.12758
  Beta virt. eigenvalues --    1.41763   1.50063   1.50063   2.05163   2.28147

 Mulliken charges and spin densities:
               1          2
     1  H    0.060389  -0.157493
     2  H    0.056643   0.308720
     3  F   -0.117032   0.848773
 Sum of Mulliken charges =  -0.00000   1.00000

 Dipole moment (field-independent basis, Debye):
    X=             -1.4536    Y=              0.0000    Z=             -0.0000  Tot=              1.4536
 Quadrupole moment (field-independent basis, Debye-Ang):
   XX=             -7.1225   YY=             -7.3951   ZZ=             -7.3951
   XY=              0.0000   XZ=             -0.0000   YZ=              0.0000

  Exact polarizability:      43.363       0.000       2.181      -0.000      -0.000       2.181
 Approx polarizability:      65.071      -0.000       2.164       0.000       0.000       2.164

 ******    2 imaginary frequencies (negative Signs) ******

                      1                      2                      3
                      A                      A                      A
 Frequencies --  -1744.0306              -254.2670              1326.6532
 Red. masses --      1.0160                 1.0988                 1.0135
 Frc consts  --      1.8207                 0.0419                 1.0509
 IR Inten    --   1130.0395                 0.0259                 0.3881

                      4
                      A
 Frequencies --   1326.6532
 Red. masses --      1.0135
 Frc consts  --      1.0509
 IR Inten    --      0.3881

 - Thermochemistry -
 -------------------
 Temperature   298.150 Kelvin.  Pressure   1.00000 Atm.
 Atom     1 has atomic number  1 and mass   1.00783

 Molecular mass:    21.01405 amu.
 Principal axes and moments of inertia in atomic units:
                           1         2         3
     Eigenvalues --     0.00000  45.96111  45.96111
           X            1.00000  -0.00000   0.00000
           Y            0.00000   1.00000   0.00000
           Z            0.00000   0.00000   1.00000
 This molecule is a prolate symmetric top.
 Rotational symmetry number  1.
 Rotational temperature (Kelvin)      1.88450
 Rotational constant (GHZ):          39.266701
    2 imaginary frequencies ignored.
 Zero-point vibrational energy      15870.3 (Joules/Mol)
                                    3.79309 (Kcal/Mol)
 Vibrational temperatures:   1908.76  1908.76
          (Kelvin)

 Zero-point correction=                           0.006045 (Hartree/Particle)
 Thermal correction to Energy=                    0.008425
 Thermal correction to Enthalpy=                  0.009369
 Thermal correction to Gibbs Free Energy=        -0.013696
 Sum of electronic and zero-point Energies=           -100.865665
 Sum of electronic and thermal Energies=              -100.863285
 Sum of electronic and thermal Enthalpies=            -100.862340
 Sum of electronic and thermal Free Energies=         -100.885406

                     E (Thermal)             CV                S
                      KCal/Mol        Cal/Mol-Kelvin    Cal/Mol-Kelvin
 Total                    5.287              5.239             48.545
 Electronic               0.000              0.000              1.377
 Translational            0.889              2.981             35.068
 Rotational               0.592              1.987             12.050
 Vibrational              3.806              0.271              0.049

 Normal termination of Gaussian 16 at Fri Aug 22 16:52:36 2025.
