 Gaussian 16, Revision C.01,
 Gaussian 16:  ES64L-G16RevC.01  3-Jul-2019

 -----------------------------------------
 # sp b3lyp/6-311g** Force nosymm scf=(qc)
 -----------------------------------------

 -------------------
 Title Card Required
 -------------------
 Symbolic Z-matrix:
 Charge =  0 Multiplicity = 2

                          Input orientation:
 ---------------------------------------------------------------------
 Center     Atomic      Atomic             Coordinates (Angstroms)
 Number     Number       Type             X           Y           Z
 ---------------------------------------------------------------------
      1          1           0        0.000000    0.000000    0.000000
      2          1           0       -0.500000    0.000000    0.000000
      3          9           0        3.250000    0.000000    0.000000
 ---------------------------------------------------------------------

 SCF Done:  E(UB3LYP) =  -100.862005686     a.u. after   67 cycles

 Alpha  occ. eigenvalues --  -24.76447  -1.22268  -0.55466  -0.49239  -0.46635
 Alpha  occ. eigenvalues --   -0.46617
 Alpha virt. eigenvalues --    0.10124   0.18364   0.55814   0.85976   0.90850
 Alpha virt. eigenvalues --    0.93912   1.04791   1.12117   1.12123   1.61720
 Alpha virt. eigenvalues --    1.86011   1.99650   1.99656   2.36424   3.64778

  Beta  occ. eigenvalues --  -24.73287  -1.13183  -0.49225  -0.43476  -0.43449
  Beta virt. eigenvalues --   -0.26095   0.10169   0.18387   0.55931   0.92349
  Beta virt. eigenvalues --    0.95436   0.95665   1.08500   1.12117   1.12122
  Beta virt. eigenvalues --    1.61740   1.86048   1.99649   1.99656   2.36426

 Mulliken charges and spin densities:
               1          2
     1  H   -0.006891  -0.001290
     2  H   -0.000628   0.000339
     3  F    0.007519   1.000951
 Sum of Mulliken charges =   0.00000   1.00000

 Dipole moment (field-independent basis, Debye):
    X=              0.0700    Y=              0.0000    Z=              0.0000  Tot=              0.0700
 Quadrupole moment (field-independent basis, Debye-Ang):
   XX=             -6.0121   YY=             -6.5692   ZZ=             -5.7535
   XY=              0.0000   XZ=              0.0000   YZ=              0.1420

  Exact polarizability:       5.682      -0.000       1.815      -0.000       0.076       2.252
 Approx polarizability:       5.960      -0.000       1.900      -0.000       0.095       2.447

 ******    2 imaginary frequencies (negative Signs) ******

                      1                      2                      3
                      A                      A                      A
 Frequencies --  -4826.9387             -4826.6597                51.3690
 Red. masses --      1.0083                 1.0083                 1.1085
 Frc consts  --     13.8420                13.8404                 0.0017
 IR Inten    --      0.0377                 0.0355                 0.1345

                      4
                      A
 Frequencies --   9960.3611
 Red. masses --      1.0078
 Frc consts  --     58.9095
 IR Inten    --      0.1079

 - Thermochemistry -
 -------------------
 Temperature   298.150 Kelvin.  Pressure   1.00000 Atm.
 Atom     1 has atomic number  1 and mass   1.00783

 Molecular mass:    21.01405 amu.
 Principal axes and moments of inertia in atomic units:
                           1         2         3
     Eigenvalues --     0.00000  80.16785  80.16785
           X            1.00000  -0.00000   0.00000
           Y            0.00000   1.00000   0.00000
           Z            0.00000   0.00000   1.00000
 This molecule is a prolate symmetric top.
 Rotational symmetry number  1.
 Rotational temperature (Kelvin)      1.08041
 Rotational constant (GHZ):          22.512033
    2 imaginary frequencies ignored.
 Zero-point vibrational energy      59883.4 (Joules/Mol)
                                   14.31249 (Kcal/Mol)
 Warning -- explicit consideration of   1 degrees of freedom as
           vibrations may cause significant error
 Vibrational temperatures:     73.91 14330.74
          (Kelvin)

 Zero-point correction=                           0.022808 (Hartree/Particle)
 Thermal correction to Energy=                    0.026001
 Thermal correction to Enthalpy=                  0.026945
 Thermal correction to Gibbs Free Energy=         0.001114
 Sum of electronic and zero-point Energies=           -100.839197
 Sum of electronic and thermal Energies=              -100.836005
 Sum of electronic and thermal Enthalpies=            -100.835061
 Sum of electronic and thermal Free Energies=         -100.860891

                     E (Thermal)             CV                S
                      KCal/Mol        Cal/Mol-Kelvin    Cal/Mol-Kelvin
 Total                   16.316              6.945             54.365
 Electronic               0.000              0.000              1.377
 Translational            0.889              2.981             35.068
 Rotational               0.592              1.987             13.156
 Vibrational             14.835              1.977              4.764
 Vibration     1          0.596              1.977              4.764

 Normal termination of Gaussian 16 at Fri Aug 22 20:25:39 2025.
