 Gaussian 16, Revision C.01,
 Gaussian 16:  ES64L-G16RevC.01  3-Jul-2019

 -----------------------------------------
 # sp b3lyp/6-311g** Force nosymm scf=(qc)
 -----------------------------------------

 -------------------
 Title Card Required
 -------------------
 Symbolic Z-matrix:
 Charge =  0 Multiplicity = 2

                          Input orientation:
 ---------------------------------------------------------------------
 Center     Atomic      Atomic             Coordinates (Angstroms)
 Number     Number       Type             X           Y           Z
 ---------------------------------------------------------------------
      1          1           0        0.000000    0.000000    0.000000
      2          1           0       -2.350000    0.000000    0.000000
      3          9           0        1.450000    0.000000    0.000000
 ---------------------------------------------------------------------

 SCF Done:  E(UB3LYP) =  -100.867785563     a.u. after    8 cycles

 Alpha  occ. eigenvalues --  -24.63961  -1.09820  -0.43997  -0.36244  -0.36244
 Alpha  occ. eigenvalues --   -0.36050
 Alpha virt. eigenvalues --   -0.11939   0.23510   0.26690   0.93687   0.93687
 Alpha virt. eigenvalues --    1.03560   1.11896   1.21390   1.21390   1.26651
 Alpha virt. eigenvalues --    1.32773   1.32773   1.73892   2.11791   2.21968

  Beta  occ. eigenvalues --  -24.63712  -1.09165  -0.43163  -0.36009  -0.36009
  Beta virt. eigenvalues --   -0.15690  -0.07112   0.25804   0.34985   0.93614
  Beta virt. eigenvalues --    0.93614   1.04179   1.13452   1.31796   1.31796
  Beta virt. eigenvalues --    1.41292   1.41292   1.43871   1.73823   2.19221

 Mulliken charges and spin densities:
               1          2
     1  H    0.335143  -0.050026
     2  H    0.023206   0.971942
     3  F   -0.358349   0.078084
 Sum of Mulliken charges =   0.00000   1.00000

 Dipole moment (field-independent basis, Debye):
    X=             -2.8269    Y=             -0.0000    Z=             -0.0000  Tot=              2.8269
 Quadrupole moment (field-independent basis, Debye-Ang):
   XX=             -9.1011   YY=             -7.2897   ZZ=             -7.2897
   XY=              0.0000   XZ=             -0.0000   YZ=             -0.0000

  Exact polarizability:      21.491      -0.000       2.232       0.000       0.000       2.232
 Approx polarizability:      32.306      -0.000       2.166      -0.000      -0.000       2.166

 ******    2 imaginary frequencies (negative Signs) ******

                      1                      2                      3
                      A                      A                      A
 Frequencies --  -1321.5330              -268.6158              1028.1289
 Red. masses --      1.0450                 1.0667                 1.0247
 Frc consts  --      1.0753                 0.0453                 0.6382
 IR Inten    --    141.2889                 1.8124                97.1309

                      4
                      A
 Frequencies --   1028.1289
 Red. masses --      1.0247
 Frc consts  --      0.6382
 IR Inten    --     97.1309

 - Thermochemistry -
 -------------------
 Temperature   298.150 Kelvin.  Pressure   1.00000 Atm.
 Atom     1 has atomic number  1 and mass   1.00783

 Molecular mass:    21.01405 amu.
 Principal axes and moments of inertia in atomic units:
                           1         2         3
     Eigenvalues --     0.00000  54.77912  54.77912
           X            1.00000  -0.00000   0.00000
           Y            0.00000   1.00000   0.00000
           Z            0.00000   0.00000   1.00000
 This molecule is a prolate symmetric top.
 Rotational symmetry number  1.
 Rotational temperature (Kelvin)      1.58115
 Rotational constant (GHZ):          32.945786
    2 imaginary frequencies ignored.
 Zero-point vibrational energy      12299.2 (Joules/Mol)
                                    2.93957 (Kcal/Mol)
 Vibrational temperatures:   1479.25  1479.25
          (Kelvin)

 Zero-point correction=                           0.004684 (Hartree/Particle)
 Thermal correction to Energy=                    0.007111
 Thermal correction to Enthalpy=                  0.008055
 Thermal correction to Gibbs Free Energy=        -0.015232
 Sum of electronic and zero-point Energies=           -100.863101
 Sum of electronic and thermal Energies=              -100.860675
 Sum of electronic and thermal Enthalpies=            -100.859730
 Sum of electronic and thermal Free Energies=         -100.883017

                     E (Thermal)             CV                S
                      KCal/Mol        Cal/Mol-Kelvin    Cal/Mol-Kelvin
 Total                    4.462              5.663             49.011
 Electronic               0.000              0.000              1.377
 Translational            0.889              2.981             35.068
 Rotational               0.592              1.987             12.399
 Vibrational              2.981              0.695              0.167

 Normal termination of Gaussian 16 at Fri Aug 22 16:23:05 2025.
