 Gaussian 16, Revision C.01,
 Gaussian 16:  ES64L-G16RevC.01  3-Jul-2019

 -----------------------------------------
 # sp b3lyp/6-311g** Force nosymm scf=(qc)
 -----------------------------------------

 -------------------
 Title Card Required
 -------------------
 Symbolic Z-matrix:
 Charge =  0 Multiplicity = 2

                          Input orientation:
 ---------------------------------------------------------------------
 Center     Atomic      Atomic             Coordinates (Angstroms)
 Number     Number       Type             X           Y           Z
 ---------------------------------------------------------------------
      1          1           0        0.000000    0.000000    0.000000
      2          1           0       -2.050000    0.000000    0.000000
      3          9           0        3.000000    0.000000    0.000000
 ---------------------------------------------------------------------

 SCF Done:  E(UB3LYP) =  -100.774281793     a.u. after   24 cycles

 Alpha  occ. eigenvalues --  -24.74311  -1.20349  -0.53429  -0.44861  -0.44861
 Alpha  occ. eigenvalues --   -0.33640
 Alpha virt. eigenvalues --   -0.11651   0.25508   0.32084   0.89616   0.92138
 Alpha virt. eigenvalues --    0.92138   1.03966   1.18754   1.24307   1.24307
 Alpha virt. eigenvalues --    1.37084   1.37084   1.48404   2.12544   2.36168

  Beta  occ. eigenvalues --  -24.71273  -1.11640  -0.41820  -0.41820  -0.33846
  Beta virt. eigenvalues --   -0.24962  -0.10976   0.25940   0.32687   0.93602
  Beta virt. eigenvalues --    0.93602   0.98361   1.07890   1.18654   1.24017
  Beta virt. eigenvalues --    1.24017   1.38135   1.38135   1.49228   2.13732

 Mulliken charges and spin densities:
               1          2
     1  H    0.019082  -0.844588
     2  H    0.013862   0.881966
     3  F   -0.032944   0.962622
 Sum of Mulliken charges =  -0.00000   1.00000

 Dipole moment (field-independent basis, Debye):
    X=             -0.6423    Y=             -0.0000    Z=             -0.0000  Tot=              0.6423
 Quadrupole moment (field-independent basis, Debye-Ang):
   XX=             -7.4124   YY=             -7.7032   ZZ=             -7.7032
   XY=             -0.0000   XZ=             -0.0000   YZ=             -0.0000

  Exact polarizability:      57.348      -0.000       2.005      -0.000      -0.000       2.005
 Approx polarizability:      51.902      -0.000       1.929      -0.000       0.000       1.929

 ******    2 imaginary frequencies (negative Signs) ******

                      1                      2                      3
                      A                      A                      A
 Frequencies --  -1279.4095              -241.8178               509.3266
 Red. masses --      1.0080                 1.1083                 1.0140
 Frc consts  --      0.9722                 0.0382                 0.1550
 IR Inten    --     34.2368                27.8071                 0.1574

                      4
                      A
 Frequencies --    509.3266
 Red. masses --      1.0140
 Frc consts  --      0.1550
 IR Inten    --      0.1574

 - Thermochemistry -
 -------------------
 Temperature   298.150 Kelvin.  Pressure   1.00000 Atm.
 Atom     1 has atomic number  1 and mass   1.00783

 Molecular mass:    21.01405 amu.
 Principal axes and moments of inertia in atomic units:
                           1         2         3
     Eigenvalues --     0.00000 112.98943 112.98943
           X            1.00000  -0.00000   0.00000
           Y            0.00000   1.00000   0.00000
           Z            0.00000   0.00000   1.00000
 This molecule is a prolate symmetric top.
 Rotational symmetry number  1.
 Rotational temperature (Kelvin)      0.76657
 Rotational constant (GHZ):          15.972655
    2 imaginary frequencies ignored.
 Zero-point vibrational energy       6092.9 (Joules/Mol)
                                    1.45624 (Kcal/Mol)
 Warning -- explicit consideration of   2 degrees of freedom as
           vibrations may cause significant error
 Vibrational temperatures:    732.81   732.81
          (Kelvin)

 Zero-point correction=                           0.002321 (Hartree/Particle)
 Thermal correction to Energy=                    0.005116
 Thermal correction to Enthalpy=                  0.006060
 Thermal correction to Gibbs Free Energy=        -0.018435
 Sum of electronic and zero-point Energies=           -100.771961
 Sum of electronic and thermal Energies=              -100.769166
 Sum of electronic and thermal Enthalpies=            -100.768222
 Sum of electronic and thermal Free Energies=         -100.792717

                     E (Thermal)             CV                S
                      KCal/Mol        Cal/Mol-Kelvin    Cal/Mol-Kelvin
 Total                    3.210              7.427             51.554
 Electronic               0.000              0.000              1.377
 Translational            0.889              2.981             35.068
 Rotational               0.592              1.987             13.838
 Vibrational              1.729              2.459              1.270
 Vibration     1          0.864              1.229              0.635
 Vibration     2          0.864              1.229              0.635

 Normal termination of Gaussian 16 at Fri Aug 22 19:31:31 2025.
