 Gaussian 16, Revision C.01,
 Gaussian 16:  ES64L-G16RevC.01  3-Jul-2019

 -----------------------------------------
 # sp b3lyp/6-311g** Force nosymm scf=(qc)
 -----------------------------------------

 -------------------
 Title Card Required
 -------------------
 Symbolic Z-matrix:
 Charge =  0 Multiplicity = 2

                          Input orientation:
 ---------------------------------------------------------------------
 Center     Atomic      Atomic             Coordinates (Angstroms)
 Number     Number       Type             X           Y           Z
 ---------------------------------------------------------------------
      1          1           0        0.000000    0.000000    0.000000
      2          1           0       -0.800000    0.000000    0.000000
      3          9           0        2.150000    0.000000    0.000000
 ---------------------------------------------------------------------

 SCF Done:  E(UB3LYP) =  -100.932799704     a.u. after    6 cycles

 Alpha  occ. eigenvalues --  -24.75252  -1.21264  -0.54811  -0.45692  -0.45692
 Alpha  occ. eigenvalues --   -0.43406
 Alpha virt. eigenvalues --    0.05596   0.20467   0.44430   0.90243   0.90960
 Alpha virt. eigenvalues --    0.90960   1.07116   1.07116   1.13501   1.56106
 Alpha virt. eigenvalues --    1.77727   1.77727   2.03725   2.38784   3.04789

  Beta  occ. eigenvalues --  -24.72189  -1.12508  -0.43476  -0.42633  -0.42633
  Beta virt. eigenvalues --   -0.25858   0.06324   0.20941   0.44767   0.92372
  Beta virt. eigenvalues --    0.92372   0.98362   1.07578   1.07578   1.17222
  Beta virt. eigenvalues --    1.57143   1.77989   1.77989   2.04151   2.39279

 Mulliken charges and spin densities:
               1          2
     1  H   -0.003915  -0.021414
     2  H    0.027073   0.057445
     3  F   -0.023158   0.963968
 Sum of Mulliken charges =   0.00000   1.00000

 Dipole moment (field-independent basis, Debye):
    X=             -0.3428    Y=             -0.0000    Z=              0.0000  Tot=              0.3428
 Quadrupole moment (field-independent basis, Debye-Ang):
   XX=             -5.9210   YY=             -6.9928   ZZ=             -6.9928
   XY=             -0.0000   XZ=              0.0000   YZ=              0.0000

  Exact polarizability:      18.221       0.000       2.074      -0.000       0.000       2.074
 Approx polarizability:      20.143       0.000       2.130       0.000      -0.000       2.130

 ******    1 imaginary frequencies (negative Signs) ******

                      1                      2                      3
                      A                      A                      A
 Frequencies --   -204.9238               940.9906               940.9906
 Red. masses --      1.1085                 1.0103                 1.0103
 Frc consts  --      0.0274                 0.5271                 0.5271
 IR Inten    --     19.8978                 0.1700                 0.1700

                      4
                      A
 Frequencies --   3630.1110
 Red. masses --      1.0078
 Frc consts  --      7.8250
 IR Inten    --    182.2765

 - Thermochemistry -
 -------------------
 Temperature   298.150 Kelvin.  Pressure   1.00000 Atm.
 Atom     1 has atomic number  1 and mass   1.00783

 Molecular mass:    21.01405 amu.
 Principal axes and moments of inertia in atomic units:
                           1         2         3
     Eigenvalues --     0.00000  43.46728  43.46728
           X            1.00000  -0.00000   0.00000
           Y            0.00000   1.00000   0.00000
           Z            0.00000   0.00000   1.00000
 This molecule is a prolate symmetric top.
 Rotational symmetry number  1.
 Rotational temperature (Kelvin)      1.99262
 Rotational constant (GHZ):          41.519531
    1 imaginary frequencies ignored.
 Zero-point vibrational energy      32969.6 (Joules/Mol)
                                    7.87993 (Kcal/Mol)
 Vibrational temperatures:   1353.88  1353.88  5222.92
          (Kelvin)

 Zero-point correction=                           0.012557 (Hartree/Particle)
 Thermal correction to Energy=                    0.015010
 Thermal correction to Enthalpy=                  0.015955
 Thermal correction to Gibbs Free Energy=        -0.007147
 Sum of electronic and zero-point Energies=           -100.920242
 Sum of electronic and thermal Energies=              -100.917789
 Sum of electronic and thermal Enthalpies=            -100.916845
 Sum of electronic and thermal Free Energies=         -100.939947

                     E (Thermal)             CV                S
                      KCal/Mol        Cal/Mol-Kelvin    Cal/Mol-Kelvin
 Total                    9.419              5.861             48.622
 Electronic               0.000              0.000              1.377
 Translational            0.889              2.981             35.068
 Rotational               0.592              1.987             11.939
 Vibrational              7.938              0.893              0.237

 Normal termination of Gaussian 16 at Fri Aug 22 17:06:34 2025.
