 Gaussian 16, Revision C.01,
 Gaussian 16:  ES64L-G16RevC.01  3-Jul-2019

 -----------------------------------------
 # sp b3lyp/6-311g** Force nosymm scf=(qc)
 -----------------------------------------

 -------------------
 Title Card Required
 -------------------
 Symbolic Z-matrix:
 Charge =  0 Multiplicity = 2

                          Input orientation:
 ---------------------------------------------------------------------
 Center     Atomic      Atomic             Coordinates (Angstroms)
 Number     Number       Type             X           Y           Z
 ---------------------------------------------------------------------
      1          1           0        0.000000    0.000000    0.000000
      2          1           0       -1.550000    0.000000    0.000000
      3          9           0        1.700000    0.000000    0.000000
 ---------------------------------------------------------------------

 SCF Done:  E(UB3LYP) =  -100.849843488     a.u. after   13 cycles

 Alpha  occ. eigenvalues --  -24.66626  -1.13102  -0.46960  -0.38690  -0.38496
 Alpha  occ. eigenvalues --   -0.38496
 Alpha virt. eigenvalues --   -0.09681   0.21639   0.29692   0.89518   0.93988
 Alpha virt. eigenvalues --    0.93988   1.03346   1.16453   1.16453   1.38298
 Alpha virt. eigenvalues --    1.38298   1.38900   1.84236   2.18216   2.41107

  Beta  occ. eigenvalues --  -24.64633  -1.07628  -0.39495  -0.36555  -0.36555
  Beta virt. eigenvalues --   -0.22324  -0.07103   0.24443   0.30033   0.93270
  Beta virt. eigenvalues --    0.94282   0.94282   1.07194   1.21139   1.21139
  Beta virt. eigenvalues --    1.39137   1.39137   1.44343   1.86927   2.19538

 Mulliken charges and spin densities:
               1          2
     1  H    0.178328  -0.331915
     2  H    0.071258   0.709634
     3  F   -0.249586   0.622281
 Sum of Mulliken charges =   0.00000   1.00000

 Dipole moment (field-independent basis, Debye):
    X=             -2.6053    Y=              0.0000    Z=              0.0000  Tot=              2.6053
 Quadrupole moment (field-independent basis, Debye-Ang):
   XX=             -8.1517   YY=             -7.3827   ZZ=             -7.3827
   XY=             -0.0000   XZ=             -0.0000   YZ=              0.0000

  Exact polarizability:      43.892      -0.000       2.201      -0.000       0.000       2.201
 Approx polarizability:      65.075       0.000       2.134       0.000       0.000       2.134

 ******    2 imaginary frequencies (negative Signs) ******

                      1                      2                      3
                      A                      A                      A
 Frequencies --  -2404.3446              -556.4713              1014.8188
 Red. masses --      1.0194                 1.0948                 1.0169
 Frc consts  --      3.4721                 0.1998                 0.6170
 IR Inten    --    547.3908                 0.5693                13.4031

                      4
                      A
 Frequencies --   1014.8188
 Red. masses --      1.0169
 Frc consts  --      0.6170
 IR Inten    --     13.4031

 - Thermochemistry -
 -------------------
 Temperature   298.150 Kelvin.  Pressure   1.00000 Atm.
 Atom     1 has atomic number  1 and mass   1.00783

 Molecular mass:    21.01405 amu.
 Principal axes and moments of inertia in atomic units:
                           1         2         3
     Eigenvalues --     0.00000  44.18636  44.18636
           X            1.00000  -0.00000   0.00000
           Y            0.00000   1.00000   0.00000
           Z            0.00000   0.00000   1.00000
 This molecule is a prolate symmetric top.
 Rotational symmetry number  1.
 Rotational temperature (Kelvin)      1.96020
 Rotational constant (GHZ):          40.843852
    2 imaginary frequencies ignored.
 Zero-point vibrational energy      12139.9 (Joules/Mol)
                                    2.90151 (Kcal/Mol)
 Vibrational temperatures:   1460.10  1460.10
          (Kelvin)

 Zero-point correction=                           0.004624 (Hartree/Particle)
 Thermal correction to Energy=                    0.007054
 Thermal correction to Enthalpy=                  0.007998
 Thermal correction to Gibbs Free Energy=        -0.015090
 Sum of electronic and zero-point Energies=           -100.845220
 Sum of electronic and thermal Energies=              -100.842790
 Sum of electronic and thermal Enthalpies=            -100.841845
 Sum of electronic and thermal Free Energies=         -100.864934

                     E (Thermal)             CV                S
                      KCal/Mol        Cal/Mol-Kelvin    Cal/Mol-Kelvin
 Total                    4.426              5.691             48.594
 Electronic               0.000              0.000              1.377
 Translational            0.889              2.981             35.068
 Rotational               0.592              1.987             11.972
 Vibrational              2.945              0.723              0.176

 Normal termination of Gaussian 16 at Fri Aug 22 16:37:02 2025.
