 Gaussian 16, Revision C.01,
 Gaussian 16:  ES64L-G16RevC.01  3-Jul-2019

 -----------------------------------------
 # sp b3lyp/6-311g** Force nosymm scf=(qc)
 -----------------------------------------

 -------------------
 Title Card Required
 -------------------
 Symbolic Z-matrix:
 Charge =  0 Multiplicity = 2

                          Input orientation:
 ---------------------------------------------------------------------
 Center     Atomic      Atomic             Coordinates (Angstroms)
 Number     Number       Type             X           Y           Z
 ---------------------------------------------------------------------
      1          1           0        0.000000    0.000000    0.000000
      2          1           0       -3.700000    0.000000    0.000000
      3          9           0        3.450000    0.000000    0.000000
 ---------------------------------------------------------------------

 SCF Done:  E(UB3LYP) =  -100.759092765     a.u. after   31 cycles

 Alpha  occ. eigenvalues --  -24.75292  -1.21262  -0.54414  -0.45687  -0.45687
 Alpha  occ. eigenvalues --   -0.32329
 Alpha virt. eigenvalues --   -0.06763   0.24145   0.37064   0.87752   0.91540
 Alpha virt. eigenvalues --    0.91540   1.01951   1.25170   1.25170   1.25242
 Alpha virt. eigenvalues --    1.45567   1.45567   1.45817   2.14758   2.41745

  Beta  occ. eigenvalues --  -24.72184  -1.12333  -0.42572  -0.42572  -0.32881
  Beta virt. eigenvalues --   -0.25434  -0.06181   0.23895   0.38104   0.93027
  Beta virt. eigenvalues --    0.93027   0.96851   1.05936   1.24537   1.24537
  Beta virt. eigenvalues --    1.24594   1.46260   1.46453   1.46453   2.14959

 Mulliken charges and spin densities:
               1          2
     1  H    0.013166  -0.984134
     2  H    0.000118   0.998711
     3  F   -0.013284   0.985422
 Sum of Mulliken charges =  -0.00000   1.00000

 Dipole moment (field-independent basis, Debye):
    X=             -0.2378    Y=             -0.0000    Z=              0.0000  Tot=              0.2378
 Quadrupole moment (field-independent basis, Debye-Ang):
   XX=             -7.4908   YY=             -7.6186   ZZ=             -7.6186
   XY=              0.0000   XZ=             -0.0000   YZ=              0.0000

  Exact polarizability:      24.434       0.000       2.034      -0.000       0.000       2.034
 Approx polarizability:      19.818       0.000       1.933      -0.000      -0.000       1.933

 ******    2 imaginary frequencies (negative Signs) ******

                      1                      2                      3
                      A                      A                      A
 Frequencies --   -236.9233               -89.7268                71.4079
 Red. masses --      1.0381                 1.0741                 1.0188
 Frc consts  --      0.0343                 0.0051                 0.0031
 IR Inten    --     13.0165                 0.5902                 0.1572

                      4
                      A
 Frequencies --     71.4079
 Red. masses --      1.0188
 Frc consts  --      0.0031
 IR Inten    --      0.1572

 - Thermochemistry -
 -------------------
 Temperature   298.150 Kelvin.  Pressure   1.00000 Atm.
 Atom     1 has atomic number  1 and mass   1.00783

 Molecular mass:    21.01405 amu.
 Principal axes and moments of inertia in atomic units:
                           1         2         3
     Eigenvalues --     0.00000 207.43340 207.43340
           X            1.00000  -0.00000   0.00000
           Y            0.00000   1.00000   0.00000
           Z            0.00000   0.00000   1.00000
 This molecule is a prolate symmetric top.
 Rotational symmetry number  1.
 Rotational temperature (Kelvin)      0.41755
 Rotational constant (GHZ):           8.700340
    2 imaginary frequencies ignored.
 Zero-point vibrational energy        854.2 (Joules/Mol)
                                    0.20417 (Kcal/Mol)
 Warning -- explicit consideration of   2 degrees of freedom as
           vibrations may cause significant error
 Vibrational temperatures:    102.74   102.74
          (Kelvin)

 Zero-point correction=                           0.000325 (Hartree/Particle)
 Thermal correction to Energy=                    0.004267
 Thermal correction to Enthalpy=                  0.005212
 Thermal correction to Gibbs Free Energy=        -0.023163
 Sum of electronic and zero-point Energies=           -100.758767
 Sum of electronic and thermal Energies=              -100.754825
 Sum of electronic and thermal Enthalpies=            -100.753881
 Sum of electronic and thermal Free Energies=         -100.782255

                     E (Thermal)             CV                S
                      KCal/Mol        Cal/Mol-Kelvin    Cal/Mol-Kelvin
 Total                    2.678              8.903             59.719
 Electronic               0.000              0.000              1.377
 Translational            0.889              2.981             35.068
 Rotational               0.592              1.987             15.045
 Vibrational              1.197              3.935              8.228
 Vibration     1          0.598              1.968              4.114
 Vibration     2          0.598              1.968              4.114

 Normal termination of Gaussian 16 at Fri Aug 22 21:43:36 2025.
