 Gaussian 16, Revision C.01,
 Gaussian 16:  ES64L-G16RevC.01  3-Jul-2019

 -----------------------------------------
 # sp b3lyp/6-311g** Force nosymm scf=(qc)
 -----------------------------------------

 -------------------
 Title Card Required
 -------------------
 Symbolic Z-matrix:
 Charge =  0 Multiplicity = 2

                          Input orientation:
 ---------------------------------------------------------------------
 Center     Atomic      Atomic             Coordinates (Angstroms)
 Number     Number       Type             X           Y           Z
 ---------------------------------------------------------------------
      1          1           0        0.000000    0.000000    0.000000
      2          1           0       -1.700000    0.000000    0.000000
      3          9           0        0.950000    0.000000    0.000000
 ---------------------------------------------------------------------

 SCF Done:  E(UB3LYP) =  -100.971422527     a.u. after    6 cycles

 Alpha  occ. eigenvalues --  -24.63585  -1.17123  -0.53157  -0.38808  -0.38808
 Alpha  occ. eigenvalues --   -0.36667
 Alpha virt. eigenvalues --    0.07489   0.22451   0.35693   0.94502   0.94502
 Alpha virt. eigenvalues --    0.98562   1.15247   1.19056   1.19056   1.38615
 Alpha virt. eigenvalues --    1.38615   1.52634   1.95473   2.28566   2.39262

  Beta  occ. eigenvalues --  -24.63437  -1.16750  -0.52224  -0.38680  -0.38680
  Beta virt. eigenvalues --   -0.13970   0.09749   0.29958   0.38167   0.94561
  Beta virt. eigenvalues --    0.94561   0.98955   1.24592   1.32044   1.32044
  Beta virt. eigenvalues --    1.43513   1.43513   1.57252   2.05542   2.32502

 Mulliken charges and spin densities:
               1          2
     1  H    0.286701   0.005910
     2  H    0.024301   0.956098
     3  F   -0.311002   0.037992
 Sum of Mulliken charges =   0.00000   1.00000

 Dipole moment (field-independent basis, Debye):
    X=             -2.1802    Y=              0.0000    Z=             -0.0000  Tot=              2.1802
 Quadrupole moment (field-independent basis, Debye-Ang):
   XX=             -7.5723   YY=             -6.8334   ZZ=             -6.8334
   XY=              0.0000   XZ=              0.0000   YZ=              0.0000

  Exact polarizability:      10.904      -0.000       2.502      -0.000       0.000       2.502
 Approx polarizability:      11.585      -0.000       2.494      -0.000       0.000       2.494

                      1                      2                      3
                      A                      A                      A
 Frequencies --    323.9510               573.9284               573.9284
 Red. masses --      1.0516                 1.0263                 1.0263
 Frc consts  --      0.0650                 0.1992                 0.1992
 IR Inten    --      1.1991               122.6955               122.6955

                      4
                      A
 Frequencies --   3586.7048
 Red. masses --      1.0600
 Frc consts  --      8.0345
 IR Inten    --    212.6506

 - Thermochemistry -
 -------------------
 Temperature   298.150 Kelvin.  Pressure   1.00000 Atm.
 Atom     1 has atomic number  1 and mass   1.00783

 Molecular mass:    21.01405 amu.
 Principal axes and moments of inertia in atomic units:
                           1         2         3
     Eigenvalues --     0.00000  26.28516  26.28516
           X            1.00000  -0.00000   0.00000
           Y            0.00000   1.00000   0.00000
           Z            0.00000   0.00000   1.00000
 This molecule is a prolate symmetric top.
 Rotational symmetry number  1.
 Rotational temperature (Kelvin)      3.29516
 Rotational constant (GHZ):          68.660088
 Zero-point vibrational energy      30256.6 (Joules/Mol)
                                    7.23151 (Kcal/Mol)
 Warning -- explicit consideration of   3 degrees of freedom as
           vibrations may cause significant error
 Vibrational temperatures:    466.09   825.75   825.75  5160.47
          (Kelvin)

 Zero-point correction=                           0.011524 (Hartree/Particle)
 Thermal correction to Energy=                    0.014625
 Thermal correction to Enthalpy=                  0.015570
 Thermal correction to Gibbs Free Energy=        -0.008030
 Sum of electronic and zero-point Energies=           -100.959898
 Sum of electronic and thermal Energies=              -100.956797
 Sum of electronic and thermal Enthalpies=            -100.955853
 Sum of electronic and thermal Free Energies=         -100.979452

                     E (Thermal)             CV                S
                      KCal/Mol        Cal/Mol-Kelvin    Cal/Mol-Kelvin
 Total                    9.178              8.771             49.669
 Electronic               0.000              0.000              1.377
 Translational            0.889              2.981             35.068
 Rotational               0.592              1.987             10.940
 Vibrational              7.696              3.803              2.284
 Vibration     1          0.709              1.628              1.290
 Vibration     2          0.930              1.088              0.497
 Vibration     3          0.930              1.088              0.497

 Normal termination of Gaussian 16 at Fri Aug 22 15:57:57 2025.
