 Gaussian 16, Revision C.01,
 Gaussian 16:  ES64L-G16RevC.01  3-Jul-2019

 -----------------------------------------
 # sp b3lyp/6-311g** Force nosymm scf=(qc)
 -----------------------------------------

 -------------------
 Title Card Required
 -------------------
 Symbolic Z-matrix:
 Charge =  0 Multiplicity = 2

                          Input orientation:
 ---------------------------------------------------------------------
 Center     Atomic      Atomic             Coordinates (Angstroms)
 Number     Number       Type             X           Y           Z
 ---------------------------------------------------------------------
      1          1           0        0.000000    0.000000    0.000000
      2          1           0       -2.150000    0.000000    0.000000
      3          9           0        0.800000    0.000000    0.000000
 ---------------------------------------------------------------------

 SCF Done:  E(UB3LYP) =  -100.950508230     a.u. after    6 cycles

 Alpha  occ. eigenvalues --  -24.63525  -1.22915  -0.56192  -0.40515  -0.40515
 Alpha  occ. eigenvalues --   -0.35285
 Alpha virt. eigenvalues --    0.07907   0.24810   0.44862   0.94326   0.94326
 Alpha virt. eigenvalues --    0.96852   1.15407   1.22220   1.22220   1.39981
 Alpha virt. eigenvalues --    1.39981   1.49458   1.99888   2.17241   2.53241

  Beta  occ. eigenvalues --  -24.63495  -1.22836  -0.56048  -0.40491  -0.40491
  Beta virt. eigenvalues --   -0.10422   0.09596   0.36233   0.44740   0.94328
  Beta virt. eigenvalues --    0.94328   0.97179   1.25265   1.39626   1.39626
  Beta virt. eigenvalues --    1.43001   1.43001   1.59589   2.02278   2.41379

 Mulliken charges and spin densities:
               1          2
     1  H    0.264736   0.006724
     2  H    0.009229   0.985637
     3  F   -0.273966   0.007640
 Sum of Mulliken charges =   0.00000   1.00000

 Dipole moment (field-independent basis, Debye):
    X=             -1.8360    Y=              0.0000    Z=              0.0000  Tot=              1.8360
 Quadrupole moment (field-independent basis, Debye-Ang):
   XX=             -7.3181   YY=             -6.7457   ZZ=             -6.7457
   XY=              0.0000   XZ=              0.0000   YZ=             -0.0000

  Exact polarizability:       7.190       0.000       2.490      -0.000      -0.000       2.490
 Approx polarizability:       7.377       0.000       2.478       0.000       0.000       2.478

 ******    2 imaginary frequencies (negative Signs) ******

                      1                      2                      3
                      A                      A                      A
 Frequencies --  -1950.9749             -1950.9749               210.6524
 Red. masses --      1.0328                 1.0328                 1.0532
 Frc consts  --      2.3163                 2.3163                 0.0275
 IR Inten    --    169.5901               169.5901                 0.5548

                      4
                      A
 Frequencies --   6341.7169
 Red. masses --      1.0583
 Frc consts  --     25.0779
 IR Inten    --    147.5846

 - Thermochemistry -
 -------------------
 Temperature   298.150 Kelvin.  Pressure   1.00000 Atm.
 Atom     1 has atomic number  1 and mass   1.00783

 Molecular mass:    21.01405 amu.
 Principal axes and moments of inertia in atomic units:
                           1         2         3
     Eigenvalues --     0.00000  31.19645  31.19645
           X            1.00000  -0.00000   0.00000
           Y            0.00000   1.00000   0.00000
           Z            0.00000   0.00000   1.00000
 This molecule is a prolate symmetric top.
 Rotational symmetry number  1.
 Rotational temperature (Kelvin)      2.77640
 Rotational constant (GHZ):          57.850847
    2 imaginary frequencies ignored.
 Zero-point vibrational energy      39191.9 (Joules/Mol)
                                    9.36708 (Kcal/Mol)
 Warning -- explicit consideration of   1 degrees of freedom as
           vibrations may cause significant error
 Vibrational temperatures:    303.08  9124.32
          (Kelvin)

 Zero-point correction=                           0.014927 (Hartree/Particle)
 Thermal correction to Energy=                    0.017832
 Thermal correction to Enthalpy=                  0.018776
 Thermal correction to Gibbs Free Energy=        -0.004868
 Sum of electronic and zero-point Energies=           -100.935581
 Sum of electronic and thermal Energies=              -100.932676
 Sum of electronic and thermal Enthalpies=            -100.931732
 Sum of electronic and thermal Free Energies=         -100.955376

                     E (Thermal)             CV                S
                      KCal/Mol        Cal/Mol-Kelvin    Cal/Mol-Kelvin
 Total                   11.190              6.793             49.764
 Electronic               0.000              0.000              1.377
 Translational            0.889              2.981             35.068
 Rotational               0.592              1.987             11.280
 Vibrational              9.709              1.825              2.038
 Vibration     1          0.643              1.825              2.038

 Normal termination of Gaussian 16 at Fri Aug 22 15:51:12 2025.
