 Gaussian 16, Revision C.01,
 Gaussian 16:  ES64L-G16RevC.01  3-Jul-2019

 -----------------------------------------
 # sp b3lyp/6-311g** Force nosymm scf=(qc)
 -----------------------------------------

 -------------------
 Title Card Required
 -------------------
 Symbolic Z-matrix:
 Charge =  0 Multiplicity = 2

                          Input orientation:
 ---------------------------------------------------------------------
 Center     Atomic      Atomic             Coordinates (Angstroms)
 Number     Number       Type             X           Y           Z
 ---------------------------------------------------------------------
      1          1           0        0.000000    0.000000    0.000000
      2          1           0       -3.100000    0.000000    0.000000
      3          9           0        3.800000    0.000000    0.000000
 ---------------------------------------------------------------------

 SCF Done:  E(UB3LYP) =  -100.759357129     a.u. after   33 cycles

 Alpha  occ. eigenvalues --  -24.75762  -1.21697  -0.54886  -0.46083  -0.46083
 Alpha  occ. eigenvalues --   -0.32344
 Alpha virt. eigenvalues --   -0.07528   0.24875   0.36672   0.86857   0.91245
 Alpha virt. eigenvalues --    0.91245   1.01259   1.25182   1.25182   1.25721
 Alpha virt. eigenvalues --    1.44515   1.44645   1.44645   2.15657   2.39912

  Beta  occ. eigenvalues --  -24.72624  -1.12676  -0.42938  -0.42938  -0.32593
  Beta virt. eigenvalues --   -0.25676  -0.07232   0.24692   0.37107   0.92741
  Beta virt. eigenvalues --    0.92741   0.96166   1.05359   1.24905   1.24905
  Beta virt. eigenvalues --    1.25422   1.44973   1.45101   1.45101   2.15741

 Mulliken charges and spin densities:
               1          2
     1  H    0.004342  -0.988973
     2  H    0.000280   0.994119
     3  F   -0.004622   0.994854
 Sum of Mulliken charges =   0.00000   1.00000

 Dipole moment (field-independent basis, Debye):
    X=             -0.0948    Y=             -0.0000    Z=              0.0000  Tot=              0.0948
 Quadrupole moment (field-independent basis, Debye-Ang):
   XX=             -6.9913   YY=             -7.6326   ZZ=             -7.6326
   XY=             -0.0000   XZ=              0.0000   YZ=             -0.0000

  Exact polarizability:      17.126       0.000       2.029       0.000      -0.000       2.029
 Approx polarizability:      12.671      -0.000       1.934       0.000       0.000       1.934

 ******    2 imaginary frequencies (negative Signs) ******

                      1                      2                      3
                      A                      A                      A
 Frequencies --   -303.9379               -92.7031               105.9206
 Red. masses --      1.0090                 1.1071                 1.0157
 Frc consts  --      0.0549                 0.0056                 0.0067
 IR Inten    --      1.9454                 1.4048                 0.0170

                      4
                      A
 Frequencies --    105.9206
 Red. masses --      1.0157
 Frc consts  --      0.0067
 IR Inten    --      0.0170

 - Thermochemistry -
 -------------------
 Temperature   298.150 Kelvin.  Pressure   1.00000 Atm.
 Atom     1 has atomic number  1 and mass   1.00783

 Molecular mass:    21.01405 amu.
 Principal axes and moments of inertia in atomic units:
                           1         2         3
     Eigenvalues --     0.00000 203.55671 203.55671
           X            1.00000  -0.00000   0.00000
           Y            0.00000   1.00000   0.00000
           Z            0.00000   0.00000   1.00000
 This molecule is a prolate symmetric top.
 Rotational symmetry number  1.
 Rotational temperature (Kelvin)      0.42550
 Rotational constant (GHZ):           8.866036
    2 imaginary frequencies ignored.
 Zero-point vibrational energy       1267.1 (Joules/Mol)
                                    0.30284 (Kcal/Mol)
 Warning -- explicit consideration of   2 degrees of freedom as
           vibrations may cause significant error
 Vibrational temperatures:    152.40   152.40
          (Kelvin)

 Zero-point correction=                           0.000483 (Hartree/Particle)
 Thermal correction to Energy=                    0.004290
 Thermal correction to Enthalpy=                  0.005234
 Thermal correction to Gibbs Free Energy=        -0.022389
 Sum of electronic and zero-point Energies=           -100.758875
 Sum of electronic and thermal Energies=              -100.755067
 Sum of electronic and thermal Enthalpies=            -100.754123
 Sum of electronic and thermal Free Energies=         -100.781746

                     E (Thermal)             CV                S
                      KCal/Mol        Cal/Mol-Kelvin    Cal/Mol-Kelvin
 Total                    2.692              8.857             58.138
 Electronic               0.000              0.000              1.377
 Translational            0.889              2.981             35.068
 Rotational               0.592              1.987             15.008
 Vibrational              1.211              3.889              6.685
 Vibration     1          0.605              1.944              3.342
 Vibration     2          0.605              1.944              3.342

 Normal termination of Gaussian 16 at Sat Aug 23 00:51:31 2025.
