 Gaussian 16, Revision C.01,
 Gaussian 16:  ES64L-G16RevC.01  3-Jul-2019

 -----------------------------------------
 # sp b3lyp/6-311g** Force nosymm scf=(qc)
 -----------------------------------------

 -------------------
 Title Card Required
 -------------------
 Symbolic Z-matrix:
 Charge =  0 Multiplicity = 2

                          Input orientation:
 ---------------------------------------------------------------------
 Center     Atomic      Atomic             Coordinates (Angstroms)
 Number     Number       Type             X           Y           Z
 ---------------------------------------------------------------------
      1          1           0        0.000000    0.000000    0.000000
      2          1           0       -1.850000    0.000000    0.000000
      3          9           0        0.900000    0.000000    0.000000
 ---------------------------------------------------------------------

 SCF Done:  E(UB3LYP) =  -100.971700279     a.u. after    5 cycles

 Alpha  occ. eigenvalues --  -24.63632  -1.18797  -0.54019  -0.39362  -0.39362
 Alpha  occ. eigenvalues --   -0.36196
 Alpha virt. eigenvalues --    0.07650   0.23451   0.38104   0.94571   0.94571
 Alpha virt. eigenvalues --    0.97965   1.15157   1.20667   1.20667   1.38149
 Alpha virt. eigenvalues --    1.38149   1.52588   1.95988   2.24090   2.39780

  Beta  occ. eigenvalues --  -24.63546  -1.18577  -0.53509  -0.39288  -0.39288
  Beta virt. eigenvalues --   -0.12592   0.09705   0.32684   0.39353   0.94594
  Beta virt. eigenvalues --    0.94594   0.98325   1.24620   1.35290   1.35290
  Beta virt. eigenvalues --    1.42537   1.42537   1.59370   2.03485   2.33446

 Mulliken charges and spin densities:
               1          2
     1  H    0.278792   0.007999
     2  H    0.017639   0.970364
     3  F   -0.296431   0.021636
 Sum of Mulliken charges =   0.00000   1.00000

 Dipole moment (field-independent basis, Debye):
    X=             -2.0583    Y=              0.0000    Z=              0.0000  Tot=              2.0583
 Quadrupole moment (field-independent basis, Debye-Ang):
   XX=             -7.4935   YY=             -6.8122   ZZ=             -6.8122
   XY=              0.0000   XZ=              0.0000   YZ=              0.0000

  Exact polarizability:       9.422      -0.000       2.498      -0.000      -0.000       2.498
 Approx polarizability:       9.841      -0.000       2.489      -0.000      -0.000       2.489

 ******    2 imaginary frequencies (negative Signs) ******

                      1                      2                      3
                      A                      A                      A
 Frequencies --   -657.1748              -657.1748               299.4436
 Red. masses --      1.0285                 1.0285                 1.0527
 Frc consts  --      0.2617                 0.2617                 0.0556
 IR Inten    --    139.5083               139.5083                 1.1345

                      4
                      A
 Frequencies --   4389.7969
 Red. masses --      1.0588
 Frc consts  --     12.0216
 IR Inten    --    191.1536

 - Thermochemistry -
 -------------------
 Temperature   298.150 Kelvin.  Pressure   1.00000 Atm.
 Atom     1 has atomic number  1 and mass   1.00783

 Molecular mass:    21.01405 amu.
 Principal axes and moments of inertia in atomic units:
                           1         2         3
     Eigenvalues --     0.00000  27.83314  27.83314
           X            1.00000  -0.00000   0.00000
           Y            0.00000   1.00000   0.00000
           Z            0.00000   0.00000   1.00000
 This molecule is a prolate symmetric top.
 Rotational symmetry number  1.
 Rotational temperature (Kelvin)      3.11190
 Rotational constant (GHZ):          64.841444
    2 imaginary frequencies ignored.
 Zero-point vibrational energy      28047.9 (Joules/Mol)
                                    6.70361 (Kcal/Mol)
 Warning -- explicit consideration of   1 degrees of freedom as
           vibrations may cause significant error
 Vibrational temperatures:    430.83  6315.94
          (Kelvin)

 Zero-point correction=                           0.010683 (Hartree/Particle)
 Thermal correction to Energy=                    0.013464
 Thermal correction to Enthalpy=                  0.014408
 Thermal correction to Gibbs Free Energy=        -0.008835
 Sum of electronic and zero-point Energies=           -100.961017
 Sum of electronic and thermal Energies=              -100.958236
 Sum of electronic and thermal Enthalpies=            -100.957292
 Sum of electronic and thermal Free Energies=         -100.980535

                     E (Thermal)             CV                S
                      KCal/Mol        Cal/Mol-Kelvin    Cal/Mol-Kelvin
 Total                    8.449              6.643             48.919
 Electronic               0.000              0.000              1.377
 Translational            0.889              2.981             35.068
 Rotational               0.592              1.987             11.054
 Vibrational              6.968              1.675              1.420
 Vibration     1          0.692              1.675              1.420

 Normal termination of Gaussian 16 at Fri Aug 22 15:55:43 2025.
