 Gaussian 16, Revision C.01,
 Gaussian 16:  ES64L-G16RevC.01  3-Jul-2019

 -----------------------------------------
 # sp b3lyp/6-311g** Force nosymm scf=(qc)
 -----------------------------------------

 -------------------
 Title Card Required
 -------------------
 Symbolic Z-matrix:
 Charge =  0 Multiplicity = 2

                          Input orientation:
 ---------------------------------------------------------------------
 Center     Atomic      Atomic             Coordinates (Angstroms)
 Number     Number       Type             X           Y           Z
 ---------------------------------------------------------------------
      1          1           0        0.000000    0.000000    0.000000
      2          1           0       -1.200000    0.000000    0.000000
      3          9           0        1.250000    0.000000    0.000000
 ---------------------------------------------------------------------

 SCF Done:  E(UB3LYP) =  -100.932594970     a.u. after    8 cycles

 Alpha  occ. eigenvalues --  -24.64819  -1.13196  -0.52142  -0.38111  -0.37942
 Alpha  occ. eigenvalues --   -0.37942
 Alpha virt. eigenvalues --    0.03717   0.19526   0.32038   0.91563   0.91563
 Alpha virt. eigenvalues --    1.00198   1.09688   1.09688   1.19607   1.51985
 Alpha virt. eigenvalues --    1.51985   1.58066   2.09831   2.30317   2.45466

  Beta  occ. eigenvalues --  -24.63610  -1.10068  -0.46093  -0.36816  -0.36816
  Beta virt. eigenvalues --   -0.21194   0.06807   0.22379   0.35215   0.92263
  Beta virt. eigenvalues --    0.92263   1.02954   1.15745   1.15745   1.25253
  Beta virt. eigenvalues --    1.55408   1.55408   1.61258   2.19388   2.30912

 Mulliken charges and spin densities:
               1          2
     1  H    0.269623  -0.083101
     2  H    0.056835   0.727178
     3  F   -0.326458   0.355923
 Sum of Mulliken charges =   0.00000   1.00000

 Dipole moment (field-independent basis, Debye):
    X=             -2.4703    Y=             -0.0000    Z=             -0.0000  Tot=              2.4703
 Quadrupole moment (field-independent basis, Debye-Ang):
   XX=             -7.8324   YY=             -6.9476   ZZ=             -6.9476
   XY=             -0.0000   XZ=              0.0000   YZ=              0.0000

  Exact polarizability:      23.656       0.000       2.477      -0.000       0.000       2.477
 Approx polarizability:      32.212       0.000       2.459      -0.000       0.000       2.459

 ******    1 imaginary frequencies (negative Signs) ******

                      1                      2                      3
                      A                      A                      A
 Frequencies --  -2462.0479               759.4163              1113.8202
 Red. masses --      1.0225                 1.0912                 1.0175
 Frc consts  --      3.6520                 0.3708                 0.7437
 IR Inten    --    164.9983                41.3677                35.3917

                      4
                      A
 Frequencies --   1113.8202
 Red. masses --      1.0175
 Frc consts  --      0.7437
 IR Inten    --     35.3917

 - Thermochemistry -
 -------------------
 Temperature   298.150 Kelvin.  Pressure   1.00000 Atm.
 Atom     1 has atomic number  1 and mass   1.00783

 Molecular mass:    21.01405 amu.
 Principal axes and moments of inertia in atomic units:
                           1         2         3
     Eigenvalues --     0.00000  24.86351  24.86351
           X            1.00000  -0.00000   0.00000
           Y            0.00000   1.00000   0.00000
           Z            0.00000   0.00000   1.00000
 This molecule is a prolate symmetric top.
 Rotational symmetry number  1.
 Rotational temperature (Kelvin)      3.48358
 Rotational constant (GHZ):          72.585936
    1 imaginary frequencies ignored.
 Zero-point vibrational energy      17866.6 (Joules/Mol)
                                    4.27021 (Kcal/Mol)
 Vibrational temperatures:   1092.63  1602.54  1602.54
          (Kelvin)

 Zero-point correction=                           0.006805 (Hartree/Particle)
 Thermal correction to Energy=                    0.009304
 Thermal correction to Enthalpy=                  0.010248
 Thermal correction to Gibbs Free Energy=        -0.012385
 Sum of electronic and zero-point Energies=           -100.925790
 Sum of electronic and thermal Energies=              -100.923291
 Sum of electronic and thermal Enthalpies=            -100.922347
 Sum of electronic and thermal Free Energies=         -100.944980

                     E (Thermal)             CV                S
                      KCal/Mol        Cal/Mol-Kelvin    Cal/Mol-Kelvin
 Total                    5.838              6.225             47.636
 Electronic               0.000              0.000              1.377
 Translational            0.889              2.981             35.068
 Rotational               0.592              1.987             10.829
 Vibrational              4.357              1.257              0.361

 Normal termination of Gaussian 16 at Fri Aug 22 16:12:00 2025.
