 Gaussian 16, Revision C.01,
 Gaussian 16:  ES64L-G16RevC.01  3-Jul-2019

 -----------------------------------------
 # sp b3lyp/6-311g** Force nosymm scf=(qc)
 -----------------------------------------

 -------------------
 Title Card Required
 -------------------
 Symbolic Z-matrix:
 Charge =  0 Multiplicity = 2

                          Input orientation:
 ---------------------------------------------------------------------
 Center     Atomic      Atomic             Coordinates (Angstroms)
 Number     Number       Type             X           Y           Z
 ---------------------------------------------------------------------
      1          1           0        0.000000    0.000000    0.000000
      2          1           0       -2.650000    0.000000    0.000000
      3          9           0        2.800000    0.000000    0.000000
 ---------------------------------------------------------------------

 SCF Done:  E(UB3LYP) =  -100.765254198     a.u. after   19 cycles

 Alpha  occ. eigenvalues --  -24.73321  -1.19432  -0.52435  -0.44031  -0.44031
 Alpha  occ. eigenvalues --   -0.33154
 Alpha virt. eigenvalues --   -0.10547   0.25007   0.33831   0.90083   0.92733
 Alpha virt. eigenvalues --    0.92733   1.05193   1.24448   1.24448   1.26336
 Alpha virt. eigenvalues --    1.40063   1.40063   1.41683   2.15448   2.36572

  Beta  occ. eigenvalues --  -24.70350  -1.10935  -0.41061  -0.41061  -0.34312
  Beta virt. eigenvalues --   -0.24343  -0.08813   0.25397   0.35374   0.94174
  Beta virt. eigenvalues --    0.94174   0.98466   1.08879   1.23119   1.23119
  Beta virt. eigenvalues --    1.25597   1.42814   1.42814   1.43715   2.15915

 Mulliken charges and spin densities:
               1          2
     1  H    0.047936  -0.921628
     2  H    0.005229   0.980921
     3  F   -0.053165   0.940707
 Sum of Mulliken charges =  -0.00000   1.00000

 Dipole moment (field-independent basis, Debye):
    X=             -0.8289    Y=              0.0000    Z=              0.0000  Tot=              0.8289
 Quadrupole moment (field-independent basis, Debye-Ang):
   XX=             -8.4185   YY=             -7.6288   ZZ=             -7.6288
   XY=              0.0000   XZ=              0.0000   YZ=             -0.0000

  Exact polarizability:      41.144       0.000       2.015       0.000      -0.000       2.015
 Approx polarizability:      41.379       0.000       1.920       0.000       0.000       1.920

 ******    2 imaginary frequencies (negative Signs) ******

                      1                      2                      3
                      A                      A                      A
 Frequencies --   -633.0824              -261.1344               241.0349
 Red. masses --      1.0171                 1.0975                 1.0173
 Frc consts  --      0.2402                 0.0441                 0.0348
 IR Inten    --     38.8501                16.6685                 1.9311

                      4
                      A
 Frequencies --    241.0349
 Red. masses --      1.0173
 Frc consts  --      0.0348
 IR Inten    --      1.9311

 - Thermochemistry -
 -------------------
 Temperature   298.150 Kelvin.  Pressure   1.00000 Atm.
 Atom     1 has atomic number  1 and mass   1.00783

 Molecular mass:    21.01405 amu.
 Principal axes and moments of inertia in atomic units:
                           1         2         3
     Eigenvalues --     0.00000 123.36772 123.36772
           X            1.00000  -0.00000   0.00000
           Y            0.00000   1.00000   0.00000
           Z            0.00000   0.00000   1.00000
 This molecule is a prolate symmetric top.
 Rotational symmetry number  1.
 Rotational temperature (Kelvin)      0.70208
 Rotational constant (GHZ):          14.628958
    2 imaginary frequencies ignored.
 Zero-point vibrational energy       2883.4 (Joules/Mol)
                                    0.68915 (Kcal/Mol)
 Warning -- explicit consideration of   2 degrees of freedom as
           vibrations may cause significant error
 Vibrational temperatures:    346.80   346.80
          (Kelvin)

 Zero-point correction=                           0.001098 (Hartree/Particle)
 Thermal correction to Energy=                    0.004457
 Thermal correction to Enthalpy=                  0.005401
 Thermal correction to Gibbs Free Energy=        -0.020279
 Sum of electronic and zero-point Energies=           -100.764156
 Sum of electronic and thermal Energies=              -100.760797
 Sum of electronic and thermal Enthalpies=            -100.759853
 Sum of electronic and thermal Free Energies=         -100.785533

                     E (Thermal)             CV                S
                      KCal/Mol        Cal/Mol-Kelvin    Cal/Mol-Kelvin
 Total                    2.797              8.523             54.048
 Electronic               0.000              0.000              1.377
 Translational            0.889              2.981             35.068
 Rotational               0.592              1.987             14.012
 Vibrational              1.316              3.555              3.590
 Vibration     1          0.658              1.778              1.795
 Vibration     2          0.658              1.778              1.795

 Normal termination of Gaussian 16 at Fri Aug 22 18:43:44 2025.
