 Gaussian 16, Revision C.01,
 Gaussian 16:  ES64L-G16RevC.01  3-Jul-2019

 -----------------------------------------
 # sp b3lyp/6-311g** Force nosymm scf=(qc)
 -----------------------------------------

 -------------------
 Title Card Required
 -------------------
 Symbolic Z-matrix:
 Charge =  0 Multiplicity = 2

                          Input orientation:
 ---------------------------------------------------------------------
 Center     Atomic      Atomic             Coordinates (Angstroms)
 Number     Number       Type             X           Y           Z
 ---------------------------------------------------------------------
      1          1           0        0.000000    0.000000    0.000000
      2          1           0       -3.250000    0.000000    0.000000
      3          9           0        2.500000    0.000000    0.000000
 ---------------------------------------------------------------------

 SCF Done:  E(UB3LYP) =  -100.767784790     a.u. after   25 cycles

 Alpha  occ. eigenvalues --  -24.71741  -1.17956  -0.50843  -0.42712  -0.42712
 Alpha  occ. eigenvalues --   -0.33029
 Alpha virt. eigenvalues --   -0.10506   0.23721   0.34971   0.89733   0.93614
 Alpha virt. eigenvalues --    0.93614   1.06345   1.24493   1.24493   1.24912
 Alpha virt. eigenvalues --    1.40513   1.40513   1.44540   2.14791   2.35745

  Beta  occ. eigenvalues --  -24.68899  -1.09869  -0.39879  -0.39879  -0.35360
  Beta virt. eigenvalues --   -0.23344  -0.07250   0.24234   0.37433   0.94977
  Beta virt. eigenvalues --    0.94977   0.96158   1.08729   1.22110   1.22110
  Beta virt. eigenvalues --    1.29706   1.45162   1.45371   1.45371   2.13334

 Mulliken charges and spin densities:
               1          2
     1  H    0.088588  -0.893958
     2  H    0.001690   0.996085
     3  F   -0.090279   0.897873
 Sum of Mulliken charges =  -0.00000   1.00000

 Dipole moment (field-independent basis, Debye):
    X=             -1.1745    Y=              0.0000    Z=              0.0000  Tot=              1.1745
 Quadrupole moment (field-independent basis, Debye-Ang):
   XX=             -9.2438   YY=             -7.5759   ZZ=             -7.5759
   XY=              0.0000   XZ=              0.0000   YZ=             -0.0000

  Exact polarizability:      32.210       0.000       2.024       0.000      -0.000       2.024
 Approx polarizability:      39.762       0.000       1.920       0.000       0.000       1.920

 ******    2 imaginary frequencies (negative Signs) ******

                      1                      2                      3
                      A                      A                      A
 Frequencies --   -630.3704              -160.9658               246.4943
 Red. masses --      1.0508                 1.0608                 1.0214
 Frc consts  --      0.2460                 0.0162                 0.0366
 IR Inten    --     79.1182                 0.9633                 7.3497

                      4
                      A
 Frequencies --    246.4943
 Red. masses --      1.0214
 Frc consts  --      0.0366
 IR Inten    --      7.3497

 - Thermochemistry -
 -------------------
 Temperature   298.150 Kelvin.  Pressure   1.00000 Atm.
 Atom     1 has atomic number  1 and mass   1.00783

 Molecular mass:    21.01405 amu.
 Principal axes and moments of inertia in atomic units:
                           1         2         3
     Eigenvalues --     0.00000 129.73797 129.73797
           X            1.00000  -0.00000   0.00000
           Y            0.00000   1.00000   0.00000
           Z            0.00000   0.00000   1.00000
 This molecule is a prolate symmetric top.
 Rotational symmetry number  1.
 Rotational temperature (Kelvin)      0.66761
 Rotational constant (GHZ):          13.910664
    2 imaginary frequencies ignored.
 Zero-point vibrational energy       2948.7 (Joules/Mol)
                                    0.70476 (Kcal/Mol)
 Warning -- explicit consideration of   2 degrees of freedom as
           vibrations may cause significant error
 Vibrational temperatures:    354.65   354.65
          (Kelvin)

 Zero-point correction=                           0.001123 (Hartree/Particle)
 Thermal correction to Energy=                    0.004466
 Thermal correction to Enthalpy=                  0.005411
 Thermal correction to Gibbs Free Energy=        -0.020279
 Sum of electronic and zero-point Energies=           -100.766662
 Sum of electronic and thermal Energies=              -100.763318
 Sum of electronic and thermal Enthalpies=            -100.762374
 Sum of electronic and thermal Free Energies=         -100.788064

                     E (Thermal)             CV                S
                      KCal/Mol        Cal/Mol-Kelvin    Cal/Mol-Kelvin
 Total                    2.803              8.505             54.069
 Electronic               0.000              0.000              1.377
 Translational            0.889              2.981             35.068
 Rotational               0.592              1.987             14.112
 Vibrational              1.322              3.537              3.511
 Vibration     1          0.661              1.769              1.756
 Vibration     2          0.661              1.769              1.756

 Normal termination of Gaussian 16 at Fri Aug 22 17:46:00 2025.
