 Gaussian 16, Revision C.01,
 Gaussian 16:  ES64L-G16RevC.01  3-Jul-2019

 -----------------------------------------
 # sp b3lyp/6-311g** Force nosymm scf=(qc)
 -----------------------------------------

 -------------------
 Title Card Required
 -------------------
 Symbolic Z-matrix:
 Charge =  0 Multiplicity = 2

                          Input orientation:
 ---------------------------------------------------------------------
 Center     Atomic      Atomic             Coordinates (Angstroms)
 Number     Number       Type             X           Y           Z
 ---------------------------------------------------------------------
      1          1           0        0.000000    0.000000    0.000000
      2          1           0       -2.750000    0.000000    0.000000
      3          9           0        1.750000    0.000000    0.000000
 ---------------------------------------------------------------------

 SCF Done:  E(UB3LYP) =  -100.806673948     a.u. after   11 cycles

 Alpha  occ. eigenvalues --  -24.63778  -1.08292  -0.40307  -0.35562  -0.35562
 Alpha  occ. eigenvalues --   -0.35267
 Alpha virt. eigenvalues --   -0.19313   0.21227   0.26797   0.95412   0.95531
 Alpha virt. eigenvalues --    0.95531   1.08141   1.22122   1.22122   1.23402
 Alpha virt. eigenvalues --    1.26779   1.26779   1.68670   2.13050   2.16018

  Beta  occ. eigenvalues --  -24.63848  -1.08484  -0.40229  -0.35631  -0.35631
  Beta virt. eigenvalues --   -0.19668  -0.08685   0.24419   0.36004   0.95579
  Beta virt. eigenvalues --    0.95579   0.95649   1.08232   1.27463   1.27463
  Beta virt. eigenvalues --    1.43108   1.43108   1.43284   1.69264   2.16942

 Mulliken charges and spin densities:
               1          2
     1  H    0.308237   0.040726
     2  H    0.017378   0.981726
     3  F   -0.325615  -0.022451
 Sum of Mulliken charges =  -0.00000   1.00000

 Dipole moment (field-independent basis, Debye):
    X=             -3.0453    Y=              0.0000    Z=             -0.0000  Tot=              3.0453
 Quadrupole moment (field-independent basis, Debye-Ang):
   XX=            -10.3278   YY=             -7.4446   ZZ=             -7.4446
   XY=              0.0000   XZ=             -0.0000   YZ=             -0.0000

  Exact polarizability:      29.541       0.000       2.088      -0.000      -0.000       2.088
 Approx polarizability:      61.068       0.000       2.001      -0.000       0.000       2.001

 ******    2 imaginary frequencies (negative Signs) ******

                      1                      2                      3
                      A                      A                      A
 Frequencies --  -1221.0571              -214.8439               820.0426
 Red. masses --      1.0521                 1.0594                 1.0242
 Frc consts  --      0.9243                 0.0288                 0.4058
 IR Inten    --    130.7506                 6.7091                84.5096

                      4
                      A
 Frequencies --    820.0426
 Red. masses --      1.0242
 Frc consts  --      0.4058
 IR Inten    --     84.5096

 - Thermochemistry -
 -------------------
 Temperature   298.150 Kelvin.  Pressure   1.00000 Atm.
 Atom     1 has atomic number  1 and mass   1.00783

 Molecular mass:    21.01405 amu.
 Principal axes and moments of inertia in atomic units:
                           1         2         3
     Eigenvalues --     0.00000  77.15943  77.15943
           X            1.00000  -0.00000   0.00000
           Y            0.00000   1.00000   0.00000
           Z            0.00000   0.00000   1.00000
 This molecule is a prolate symmetric top.
 Rotational symmetry number  1.
 Rotational temperature (Kelvin)      1.12253
 Rotational constant (GHZ):          23.389769
    2 imaginary frequencies ignored.
 Zero-point vibrational energy       9809.9 (Joules/Mol)
                                    2.34462 (Kcal/Mol)
 Vibrational temperatures:   1179.86  1179.86
          (Kelvin)

 Zero-point correction=                           0.003736 (Hartree/Particle)
 Thermal correction to Energy=                    0.006242
 Thermal correction to Enthalpy=                  0.007187
 Thermal correction to Gibbs Free Energy=        -0.016526
 Sum of electronic and zero-point Energies=           -100.802938
 Sum of electronic and thermal Energies=              -100.800431
 Sum of electronic and thermal Enthalpies=            -100.799487
 Sum of electronic and thermal Free Energies=         -100.823200

                     E (Thermal)             CV                S
                      KCal/Mol        Cal/Mol-Kelvin    Cal/Mol-Kelvin
 Total                    3.917              6.205             49.908
 Electronic               0.000              0.000              1.377
 Translational            0.889              2.981             35.068
 Rotational               0.592              1.987             13.080
 Vibrational              2.436              1.237              0.383

 Normal termination of Gaussian 16 at Fri Aug 22 16:41:09 2025.
