 Gaussian 16, Revision C.01,
 Gaussian 16:  ES64L-G16RevC.01  3-Jul-2019

 -----------------------------------------
 # sp b3lyp/6-311g** Force nosymm scf=(qc)
 -----------------------------------------

 -------------------
 Title Card Required
 -------------------
 Symbolic Z-matrix:
 Charge =  0 Multiplicity = 2

                          Input orientation:
 ---------------------------------------------------------------------
 Center     Atomic      Atomic             Coordinates (Angstroms)
 Number     Number       Type             X           Y           Z
 ---------------------------------------------------------------------
      1          1           0        0.000000    0.000000    0.000000
      2          1           0       -1.850000    0.000000    0.000000
      3          9           0        3.250000    0.000000    0.000000
 ---------------------------------------------------------------------

 SCF Done:  E(UB3LYP) =  -100.783225513     a.u. after   32 cycles

 Alpha  occ. eigenvalues --  -24.75231  -1.21205  -0.54353  -0.45641  -0.45641
 Alpha  occ. eigenvalues --   -0.33528
 Alpha virt. eigenvalues --   -0.11421   0.25593   0.31123   0.88558   0.91558
 Alpha virt. eigenvalues --    0.91558   1.02576   1.11146   1.24271   1.24271
 Alpha virt. eigenvalues --    1.36938   1.36938   1.58011   2.13711   2.38711

  Beta  occ. eigenvalues --  -24.72135  -1.12315  -0.42539  -0.42539  -0.33530
  Beta virt. eigenvalues --   -0.25491  -0.11147   0.25708   0.31548   0.93040
  Beta virt. eigenvalues --    0.93040   0.97549   1.06558   1.11226   1.24255
  Beta virt. eigenvalues --    1.24255   1.37287   1.37287   1.58319   2.14520

 Mulliken charges and spin densities:
               1          2
     1  H    0.004637  -0.751235
     2  H    0.011359   0.769913
     3  F   -0.015996   0.981321
 Sum of Mulliken charges =   0.00000   1.00000

 Dipole moment (field-independent basis, Debye):
    X=             -0.3658    Y=              0.0000    Z=             -0.0000  Tot=              0.3658
 Quadrupole moment (field-independent basis, Debye-Ang):
   XX=             -6.6540   YY=             -7.7419   ZZ=             -7.7419
   XY=             -0.0000   XZ=              0.0000   YZ=              0.0000

  Exact polarizability:      53.359      -0.000       2.017       0.000       0.000       2.017
 Approx polarizability:      51.834      -0.000       1.949       0.000      -0.000       1.949

 ******    2 imaginary frequencies (negative Signs) ******

                      1                      2                      3
                      A                      A                      A
 Frequencies --  -1641.0402              -174.8628               705.8894
 Red. masses --      1.0079                 1.1085                 1.0126
 Frc consts  --      1.5991                 0.0200                 0.2973
 IR Inten    --     34.1556                14.9852                 0.0000

                      4
                      A
 Frequencies --    705.8894
 Red. masses --      1.0126
 Frc consts  --      0.2973
 IR Inten    --      0.0000

 - Thermochemistry -
 -------------------
 Temperature   298.150 Kelvin.  Pressure   1.00000 Atm.
 Atom     1 has atomic number  1 and mass   1.00783

 Molecular mass:    21.01405 amu.
 Principal axes and moments of inertia in atomic units:
                           1         2         3
     Eigenvalues --     0.00000 119.59015 119.59015
           X            1.00000  -0.00000   0.00000
           Y            0.00000   1.00000   0.00000
           Z            0.00000   0.00000   1.00000
 This molecule is a prolate symmetric top.
 Rotational symmetry number  1.
 Rotational temperature (Kelvin)      0.72426
 Rotational constant (GHZ):          15.091052
    2 imaginary frequencies ignored.
 Zero-point vibrational energy       8444.3 (Joules/Mol)
                                    2.01824 (Kcal/Mol)
 Vibrational temperatures:   1015.62  1015.62
          (Kelvin)

 Zero-point correction=                           0.003216 (Hartree/Particle)
 Thermal correction to Energy=                    0.005797
 Thermal correction to Enthalpy=                  0.006742
 Thermal correction to Gibbs Free Energy=        -0.017488
 Sum of electronic and zero-point Energies=           -100.780009
 Sum of electronic and thermal Energies=              -100.777428
 Sum of electronic and thermal Enthalpies=            -100.776484
 Sum of electronic and thermal Free Energies=         -100.800713

                     E (Thermal)             CV                S
                      KCal/Mol        Cal/Mol-Kelvin    Cal/Mol-Kelvin
 Total                    3.638              6.604             50.994
 Electronic               0.000              0.000              1.377
 Translational            0.889              2.981             35.068
 Rotational               0.592              1.987             13.951
 Vibrational              2.157              1.636              0.598

 Normal termination of Gaussian 16 at Fri Aug 22 20:34:12 2025.
