 Gaussian 16, Revision C.01,
 Gaussian 16:  ES64L-G16RevC.01  3-Jul-2019

 -----------------------------------------
 # sp b3lyp/6-311g** Force nosymm scf=(qc)
 -----------------------------------------

 -------------------
 Title Card Required
 -------------------
 Symbolic Z-matrix:
 Charge =  0 Multiplicity = 2

                          Input orientation:
 ---------------------------------------------------------------------
 Center     Atomic      Atomic             Coordinates (Angstroms)
 Number     Number       Type             X           Y           Z
 ---------------------------------------------------------------------
      1          1           0        0.000000    0.000000    0.000000
      2          1           0       -2.650000    0.000000    0.000000
      3          9           0        0.900000    0.000000    0.000000
 ---------------------------------------------------------------------

 SCF Done:  E(UB3LYP) =  -100.971709871     a.u. after    5 cycles

 Alpha  occ. eigenvalues --  -24.63928  -1.18986  -0.53830  -0.39593  -0.39593
 Alpha  occ. eigenvalues --   -0.34576
 Alpha virt. eigenvalues --    0.04044   0.25314   0.39405   0.94392   0.94392
 Alpha virt. eigenvalues --    0.97714   1.20434   1.22969   1.22969   1.36642
 Alpha virt. eigenvalues --    1.37330   1.37330   2.01384   2.14125   2.37467

  Beta  occ. eigenvalues --  -24.63917  -1.18958  -0.53787  -0.39584  -0.39584
  Beta virt. eigenvalues --   -0.08592   0.05537   0.37299   0.40095   0.94394
  Beta virt. eigenvalues --    0.94394   0.97751   1.29668   1.37316   1.37316
  Beta virt. eigenvalues --    1.46090   1.46090   1.51395   2.01440   2.36860

 Mulliken charges and spin densities:
               1          2
     1  H    0.292314   0.002680
     2  H    0.004537   0.993606
     3  F   -0.296851   0.003714
 Sum of Mulliken charges =   0.00000   1.00000

 Dipole moment (field-independent basis, Debye):
    X=             -1.9444    Y=              0.0000    Z=             -0.0000  Tot=              1.9444
 Quadrupole moment (field-independent basis, Debye-Ang):
   XX=             -7.7370   YY=             -6.8645   ZZ=             -6.8645
   XY=              0.0000   XZ=             -0.0000   YZ=             -0.0000

  Exact polarizability:       7.064      -0.000       2.447      -0.000       0.000       2.447
 Approx polarizability:       7.779       0.000       2.429      -0.000       0.000       2.429

 ******    3 imaginary frequencies (negative Signs) ******

                      1                      2                      3
                      A                      A                      A
 Frequencies --   -624.5554              -624.5554               -51.6341
 Red. masses --      1.0343                 1.0343                 1.0532
 Frc consts  --      0.2377                 0.2377                 0.0017
 IR Inten    --    170.7000               170.7000                 0.4382

                      4
                      A
 Frequencies --   4427.4044
 Red. masses --      1.0584
 Frc consts  --     12.2236
 IR Inten    --    120.4657

 - Thermochemistry -
 -------------------
 Temperature   298.150 Kelvin.  Pressure   1.00000 Atm.
 Atom     1 has atomic number  1 and mass   1.00783

 Molecular mass:    21.01405 amu.
 Principal axes and moments of inertia in atomic units:
                           1         2         3
     Eigenvalues --     0.00000  44.85365  44.85365
           X            1.00000  -0.00000   0.00000
           Y            0.00000   1.00000   0.00000
           Z            0.00000   0.00000   1.00000
 This molecule is a prolate symmetric top.
 Rotational symmetry number  1.
 Rotational temperature (Kelvin)      1.93103
 Rotational constant (GHZ):          40.236214
    3 imaginary frequencies ignored.
 Zero-point vibrational energy      26481.8 (Joules/Mol)
                                    6.32929 (Kcal/Mol)
 Vibrational temperatures:   6370.05
          (Kelvin)

 Zero-point correction=                           0.010086 (Hartree/Particle)
 Thermal correction to Energy=                    0.012447
 Thermal correction to Enthalpy=                  0.013391
 Thermal correction to Gibbs Free Energy=        -0.009628
 Sum of electronic and zero-point Energies=           -100.961624
 Sum of electronic and thermal Energies=              -100.959263
 Sum of electronic and thermal Enthalpies=            -100.958319
 Sum of electronic and thermal Free Energies=         -100.981338

                     E (Thermal)             CV                S
                      KCal/Mol        Cal/Mol-Kelvin    Cal/Mol-Kelvin
 Total                    7.811              4.968             48.447
 Electronic               0.000              0.000              1.377
 Translational            0.889              2.981             35.068
 Rotational               0.592              1.987             12.002
 Vibrational              6.329              0.000              0.000

 Normal termination of Gaussian 16 at Fri Aug 22 15:56:15 2025.
