 Gaussian 16, Revision C.01,
 Gaussian 16:  ES64L-G16RevC.01  3-Jul-2019

 -----------------------------------------
 # sp b3lyp/6-311g** Force nosymm scf=(qc)
 -----------------------------------------

 -------------------
 Title Card Required
 -------------------
 Symbolic Z-matrix:
 Charge =  0 Multiplicity = 2

                          Input orientation:
 ---------------------------------------------------------------------
 Center     Atomic      Atomic             Coordinates (Angstroms)
 Number     Number       Type             X           Y           Z
 ---------------------------------------------------------------------
      1          1           0        0.000000    0.000000    0.000000
      2          1           0       -2.550000    0.000000    0.000000
      3          9           0        2.650000    0.000000    0.000000
 ---------------------------------------------------------------------

 SCF Done:  E(UB3LYP) =  -100.767965405     a.u. after   20 cycles

 Alpha  occ. eigenvalues --  -24.72595  -1.18752  -0.51702  -0.43420  -0.43420
 Alpha  occ. eigenvalues --   -0.33472
 Alpha virt. eigenvalues --   -0.11298   0.24954   0.33441   0.90263   0.93156
 Alpha virt. eigenvalues --    0.93156   1.06053   1.24161   1.24161   1.26572
 Alpha virt. eigenvalues --    1.38865   1.38865   1.41782   2.15084   2.35017

  Beta  occ. eigenvalues --  -24.69680  -1.10433  -0.40510  -0.40510  -0.34776
  Beta virt. eigenvalues --   -0.23909  -0.09283   0.25667   0.34933   0.94570
  Beta virt. eigenvalues --    0.94570   0.98113   1.09411   1.22724   1.22724
  Beta virt. eigenvalues --    1.27129   1.42060   1.42060   1.43484   2.15227

 Mulliken charges and spin densities:
               1          2
     1  H    0.061078  -0.896642
     2  H    0.008131   0.974639
     3  F   -0.069209   0.922003
 Sum of Mulliken charges =  -0.00000   1.00000

 Dipole moment (field-independent basis, Debye):
    X=             -1.0361    Y=             -0.0000    Z=             -0.0000  Tot=              1.0361
 Quadrupole moment (field-independent basis, Debye-Ang):
   XX=             -8.6188   YY=             -7.6236   ZZ=             -7.6236
   XY=             -0.0000   XZ=             -0.0000   YZ=              0.0000

  Exact polarizability:      43.189      -0.000       2.014      -0.000      -0.000       2.014
 Approx polarizability:      44.948      -0.000       1.918      -0.000       0.000       1.918

 ******    2 imaginary frequencies (negative Signs) ******

                      1                      2                      3
                      A                      A                      A
 Frequencies --   -733.1730              -302.4807               284.2143
 Red. masses --      1.0177                 1.0969                 1.0175
 Frc consts  --      0.3223                 0.0591                 0.0484
 IR Inten    --     45.3081                21.9819                 3.0724

                      4
                      A
 Frequencies --    284.2143
 Red. masses --      1.0175
 Frc consts  --      0.0484
 IR Inten    --      3.0724

 - Thermochemistry -
 -------------------
 Temperature   298.150 Kelvin.  Pressure   1.00000 Atm.
 Atom     1 has atomic number  1 and mass   1.00783

 Molecular mass:    21.01405 amu.
 Principal axes and moments of inertia in atomic units:
                           1         2         3
     Eigenvalues --     0.00000 111.95476 111.95476
           X            1.00000  -0.00000   0.00000
           Y            0.00000   1.00000   0.00000
           Z            0.00000   0.00000   1.00000
 This molecule is a prolate symmetric top.
 Rotational symmetry number  1.
 Rotational temperature (Kelvin)      0.77365
 Rotational constant (GHZ):          16.120272
    2 imaginary frequencies ignored.
 Zero-point vibrational energy       3400.0 (Joules/Mol)
                                    0.81261 (Kcal/Mol)
 Warning -- explicit consideration of   2 degrees of freedom as
           vibrations may cause significant error
 Vibrational temperatures:    408.92   408.92
          (Kelvin)

 Zero-point correction=                           0.001295 (Hartree/Particle)
 Thermal correction to Energy=                    0.004536
 Thermal correction to Enthalpy=                  0.005480
 Thermal correction to Gibbs Free Energy=        -0.019835
 Sum of electronic and zero-point Energies=           -100.766670
 Sum of electronic and thermal Energies=              -100.763429
 Sum of electronic and thermal Enthalpies=            -100.762485
 Sum of electronic and thermal Free Energies=         -100.787801

                     E (Thermal)             CV                S
                      KCal/Mol        Cal/Mol-Kelvin    Cal/Mol-Kelvin
 Total                    2.846              8.374             53.281
 Electronic               0.000              0.000              1.377
 Translational            0.889              2.981             35.068
 Rotational               0.592              1.987             13.819
 Vibrational              1.365              3.406              3.016
 Vibration     1          0.683              1.703              1.508
 Vibration     2          0.683              1.703              1.508

 Normal termination of Gaussian 16 at Fri Aug 22 18:14:54 2025.
