 Gaussian 16, Revision C.01,
 Gaussian 16:  ES64L-G16RevC.01  3-Jul-2019

 -----------------------------------------
 # sp b3lyp/6-311g** Force nosymm scf=(qc)
 -----------------------------------------

 -------------------
 Title Card Required
 -------------------
 Symbolic Z-matrix:
 Charge =  0 Multiplicity = 2

                          Input orientation:
 ---------------------------------------------------------------------
 Center     Atomic      Atomic             Coordinates (Angstroms)
 Number     Number       Type             X           Y           Z
 ---------------------------------------------------------------------
      1          1           0        0.000000    0.000000    0.000000
      2          1           0       -2.650000    0.000000    0.000000
      3          9           0        4.000000    0.000000    0.000000
 ---------------------------------------------------------------------

 SCF Done:  E(UB3LYP) =  -100.761166790     a.u. after   42 cycles

 Alpha  occ. eigenvalues --  -24.75902  -1.21828  -0.55027  -0.46203  -0.46203
 Alpha  occ. eigenvalues --   -0.32450
 Alpha virt. eigenvalues --   -0.08667   0.25620   0.35360   0.86550   0.91153
 Alpha virt. eigenvalues --    0.91153   1.01064   1.25149   1.25149   1.26572
 Alpha virt. eigenvalues --    1.42769   1.42769   1.43577   2.16091   2.37833

  Beta  occ. eigenvalues --  -24.72756  -1.12781  -0.43049  -0.43049  -0.32592
  Beta virt. eigenvalues --   -0.25750  -0.08472   0.25473   0.35605   0.92652
  Beta virt. eigenvalues --    0.92652   0.95938   1.05196   1.24996   1.24996
  Beta virt. eigenvalues --    1.26401   1.43048   1.43048   1.43854   2.16140

 Mulliken charges and spin densities:
               1          2
     1  H    0.001613  -0.977670
     2  H    0.000598   0.980182
     3  F   -0.002210   0.997489
 Sum of Mulliken charges =   0.00000   1.00000

 Dipole moment (field-independent basis, Debye):
    X=             -0.0532    Y=             -0.0000    Z=              0.0000  Tot=              0.0532
 Quadrupole moment (field-independent basis, Debye-Ang):
   XX=             -6.7388   YY=             -7.6553   ZZ=             -7.6553
   XY=             -0.0000   XZ=              0.0000   YZ=             -0.0000

  Exact polarizability:      16.746      -0.000       2.025       0.000      -0.000       2.025
 Approx polarizability:      12.800      -0.000       1.932       0.000      -0.000       1.932

 ******    2 imaginary frequencies (negative Signs) ******

                      1                      2                      3
                      A                      A                      A
 Frequencies --   -533.4092               -74.6481               195.0649
 Red. masses --      1.0079                 1.1085                 1.0137
 Frc consts  --      0.1690                 0.0036                 0.0227
 IR Inten    --      0.5006                 0.5843                 0.0018

                      4
                      A
 Frequencies --    195.0649
 Red. masses --      1.0137
 Frc consts  --      0.0227
 IR Inten    --      0.0018

 - Thermochemistry -
 -------------------
 Temperature   298.150 Kelvin.  Pressure   1.00000 Atm.
 Atom     1 has atomic number  1 and mass   1.00783

 Molecular mass:    21.01405 amu.
 Principal axes and moments of inertia in atomic units:
                           1         2         3
     Eigenvalues --     0.00000 197.16378 197.16378
           X            1.00000  -0.00000   0.00000
           Y            0.00000   1.00000   0.00000
           Z            0.00000   0.00000   1.00000
 This molecule is a prolate symmetric top.
 Rotational symmetry number  1.
 Rotational temperature (Kelvin)      0.43930
 Rotational constant (GHZ):           9.153513
    2 imaginary frequencies ignored.
 Zero-point vibrational energy       2333.5 (Joules/Mol)
                                    0.55772 (Kcal/Mol)
 Warning -- explicit consideration of   2 degrees of freedom as
           vibrations may cause significant error
 Vibrational temperatures:    280.65   280.65
          (Kelvin)

 Zero-point correction=                           0.000889 (Hartree/Particle)
 Thermal correction to Energy=                    0.004386
 Thermal correction to Enthalpy=                  0.005330
 Thermal correction to Gibbs Free Energy=        -0.021157
 Sum of electronic and zero-point Energies=           -100.760278
 Sum of electronic and thermal Energies=              -100.756781
 Sum of electronic and thermal Enthalpies=            -100.755836
 Sum of electronic and thermal Free Energies=         -100.782324

                     E (Thermal)             CV                S
                      KCal/Mol        Cal/Mol-Kelvin    Cal/Mol-Kelvin
 Total                    2.752              8.662             55.748
 Electronic               0.000              0.000              1.377
 Translational            0.889              2.981             35.068
 Rotational               0.592              1.987             14.944
 Vibrational              1.271              3.693              4.358
 Vibration     1          0.636              1.847              2.179
 Vibration     2          0.636              1.847              2.179

 Normal termination of Gaussian 16 at Sat Aug 23 01:55:51 2025.
