 Gaussian 16, Revision C.01,
 Gaussian 16:  ES64L-G16RevC.01  3-Jul-2019

 -----------------------------------------
 # sp b3lyp/6-311g** Force nosymm scf=(qc)
 -----------------------------------------

 -------------------
 Title Card Required
 -------------------
 Symbolic Z-matrix:
 Charge =  0 Multiplicity = 2

                          Input orientation:
 ---------------------------------------------------------------------
 Center     Atomic      Atomic             Coordinates (Angstroms)
 Number     Number       Type             X           Y           Z
 ---------------------------------------------------------------------
      1          1           0        0.000000    0.000000    0.000000
      2          1           0       -3.400000    0.000000    0.000000
      3          9           0        1.300000    0.000000    0.000000
 ---------------------------------------------------------------------

 SCF Done:  E(UB3LYP) =  -100.901284118     a.u. after    7 cycles

 Alpha  occ. eigenvalues --  -24.64360  -1.11105  -0.46055  -0.37060  -0.37060
 Alpha  occ. eigenvalues --   -0.34001
 Alpha virt. eigenvalues --   -0.08900   0.21557   0.28482   0.93013   0.93013
 Alpha virt. eigenvalues --    1.02065   1.21527   1.23516   1.23516   1.23641
 Alpha virt. eigenvalues --    1.33809   1.33809   1.70678   2.13776   2.24741

  Beta  occ. eigenvalues --  -24.64352  -1.11084  -0.46032  -0.37053  -0.37053
  Beta virt. eigenvalues --   -0.09859  -0.05814   0.25214   0.38312   0.93011
  Beta virt. eigenvalues --    0.93011   1.02088   1.21639   1.33786   1.33786
  Beta virt. eigenvalues --    1.46057   1.46553   1.46553   1.70717   2.24471

 Mulliken charges and spin densities:
               1          2
     1  H    0.357569  -0.000639
     2  H    0.001811   0.998012
     3  F   -0.359381   0.002627
 Sum of Mulliken charges =   0.00000   1.00000

 Dipole moment (field-independent basis, Debye):
    X=             -2.4183    Y=             -0.0000    Z=             -0.0000  Tot=              2.4183
 Quadrupole moment (field-independent basis, Debye-Ang):
   XX=             -9.1736   YY=             -7.1997   ZZ=             -7.1997
   XY=             -0.0000   XZ=             -0.0000   YZ=              0.0000

  Exact polarizability:      11.566       0.000       2.280      -0.000      -0.000       2.280
 Approx polarizability:      17.672      -0.000       2.225       0.000       0.000       2.225

 ******    2 imaginary frequencies (negative Signs) ******

                      1                      2                      3
                      A                      A                      A
 Frequencies --   -612.7398               -72.2265              1158.7082
 Red. masses --      1.0558                 1.0558                 1.0324
 Frc consts  --      0.2335                 0.0032                 0.8167
 IR Inten    --     61.5775                 0.0545               135.1510

                      4
                      A
 Frequencies --   1158.7082
 Red. masses --      1.0324
 Frc consts  --      0.8167
 IR Inten    --    135.1510

 - Thermochemistry -
 -------------------
 Temperature   298.150 Kelvin.  Pressure   1.00000 Atm.
 Atom     1 has atomic number  1 and mass   1.00783

 Molecular mass:    21.01405 amu.
 Principal axes and moments of inertia in atomic units:
                           1         2         3
     Eigenvalues --     0.00000  79.37057  79.37057
           X            1.00000  -0.00000   0.00000
           Y            0.00000   1.00000   0.00000
           Z            0.00000   0.00000   1.00000
 This molecule is a prolate symmetric top.
 Rotational symmetry number  1.
 Rotational temperature (Kelvin)      1.09126
 Rotational constant (GHZ):          22.738165
    2 imaginary frequencies ignored.
 Zero-point vibrational energy      13861.2 (Joules/Mol)
                                    3.31291 (Kcal/Mol)
 Vibrational temperatures:   1667.12  1667.12
          (Kelvin)

 Zero-point correction=                           0.005279 (Hartree/Particle)
 Thermal correction to Energy=                    0.007679
 Thermal correction to Enthalpy=                  0.008624
 Thermal correction to Gibbs Free Energy=        -0.014981
 Sum of electronic and zero-point Energies=           -100.896005
 Sum of electronic and thermal Energies=              -100.893605
 Sum of electronic and thermal Enthalpies=            -100.892660
 Sum of electronic and thermal Free Energies=         -100.916265

                     E (Thermal)             CV                S
                      KCal/Mol        Cal/Mol-Kelvin    Cal/Mol-Kelvin
 Total                    4.819              5.435             49.679
 Electronic               0.000              0.000              1.377
 Translational            0.889              2.981             35.068
 Rotational               0.592              1.987             13.136
 Vibrational              3.338              0.467              0.098

 Normal termination of Gaussian 16 at Fri Aug 22 16:16:00 2025.
