 Gaussian 16, Revision C.01,
 Gaussian 16:  ES64L-G16RevC.01  3-Jul-2019

 -----------------------------------------
 # sp b3lyp/6-311g** Force nosymm scf=(qc)
 -----------------------------------------

 -------------------
 Title Card Required
 -------------------
 Symbolic Z-matrix:
 Charge =  0 Multiplicity = 2

                          Input orientation:
 ---------------------------------------------------------------------
 Center     Atomic      Atomic             Coordinates (Angstroms)
 Number     Number       Type             X           Y           Z
 ---------------------------------------------------------------------
      1          1           0        0.000000    0.000000    0.000000
      2          1           0       -0.750000    0.000000    0.000000
      3          9           0        1.400000    0.000000    0.000000
 ---------------------------------------------------------------------

 SCF Done:  E(UB3LYP) =  -100.938896250     a.u. after    7 cycles

 Alpha  occ. eigenvalues --  -24.70087  -1.17668  -0.57066  -0.42063  -0.42063
 Alpha  occ. eigenvalues --   -0.41640
 Alpha virt. eigenvalues --    0.09666   0.19561   0.44123   0.88367   0.88367
 Alpha virt. eigenvalues --    0.97226   1.08700   1.08700   1.35360   1.65795
 Alpha virt. eigenvalues --    1.80332   1.80332   1.99326   2.40849   3.03361

  Beta  occ. eigenvalues --  -24.67610  -1.10973  -0.48701  -0.39682  -0.39682
  Beta virt. eigenvalues --   -0.22665   0.11152   0.20565   0.47015   0.89583
  Beta virt. eigenvalues --    0.89583   1.02823   1.11429   1.11429   1.39225
  Beta virt. eigenvalues --    1.69260   1.82057   1.82057   2.00280   2.44627

 Mulliken charges and spin densities:
               1          2
     1  H    0.170165  -0.043849
     2  H    0.011152   0.307381
     3  F   -0.181317   0.736468
 Sum of Mulliken charges =   0.00000   1.00000

 Dipole moment (field-independent basis, Debye):
    X=             -1.3260    Y=             -0.0000    Z=             -0.0000  Tot=              1.3260
 Quadrupole moment (field-independent basis, Debye-Ang):
   XX=             -7.0462   YY=             -6.7416   ZZ=             -6.7416
   XY=             -0.0000   XZ=             -0.0000   YZ=             -0.0000

  Exact polarizability:      19.496       0.000       2.361      -0.000       0.000       2.361
 Approx polarizability:      25.392      -0.000       2.395      -0.000       0.000       2.395

 ******    3 imaginary frequencies (negative Signs) ******

                      1                      2                      3
                      A                      A                      A
 Frequencies --  -1017.8058             -1017.8058              -441.2333
 Red. masses --      1.0122                 1.0122                 1.1072
 Frc consts  --      0.6178                 0.6178                 0.1270
 IR Inten    --      2.3301                 2.3301               108.6376

                      4
                      A
 Frequencies --   3869.6543
 Red. masses --      1.0089
 Frc consts  --      8.9014
 IR Inten    --    677.0697

 - Thermochemistry -
 -------------------
 Temperature   298.150 Kelvin.  Pressure   1.00000 Atm.
 Atom     1 has atomic number  1 and mass   1.00783

 Molecular mass:    21.01405 amu.
 Principal axes and moments of inertia in atomic units:
                           1         2         3
     Eigenvalues --     0.00000  21.51520  21.51520
           X            1.00000  -0.00000   0.00000
           Y            0.00000   1.00000   0.00000
           Z            0.00000   0.00000   1.00000
 This molecule is a prolate symmetric top.
 Rotational symmetry number  1.
 Rotational temperature (Kelvin)      4.02571
 Rotational constant (GHZ):          83.882168
    3 imaginary frequencies ignored.
 Zero-point vibrational energy      23145.7 (Joules/Mol)
                                    5.53195 (Kcal/Mol)
 Vibrational temperatures:   5567.57
          (Kelvin)

 Zero-point correction=                           0.008816 (Hartree/Particle)
 Thermal correction to Energy=                    0.011176
 Thermal correction to Enthalpy=                  0.012120
 Thermal correction to Gibbs Free Energy=        -0.010205
 Sum of electronic and zero-point Energies=           -100.930081
 Sum of electronic and thermal Energies=              -100.927720
 Sum of electronic and thermal Enthalpies=            -100.926776
 Sum of electronic and thermal Free Energies=         -100.949101

                     E (Thermal)             CV                S
                      KCal/Mol        Cal/Mol-Kelvin    Cal/Mol-Kelvin
 Total                    7.013              4.968             46.987
 Electronic               0.000              0.000              1.377
 Translational            0.889              2.981             35.068
 Rotational               0.592              1.987             10.542
 Vibrational              5.532              0.000              0.000

 Normal termination of Gaussian 16 at Fri Aug 22 16:19:09 2025.
