 Gaussian 16, Revision C.01,
 Gaussian 16:  ES64L-G16RevC.01  3-Jul-2019

 -----------------------------------------
 # sp b3lyp/6-311g** Force nosymm scf=(qc)
 -----------------------------------------

 -------------------
 Title Card Required
 -------------------
 Symbolic Z-matrix:
 Charge =  0 Multiplicity = 2

                          Input orientation:
 ---------------------------------------------------------------------
 Center     Atomic      Atomic             Coordinates (Angstroms)
 Number     Number       Type             X           Y           Z
 ---------------------------------------------------------------------
      1          1           0        0.000000    0.000000    0.000000
      2          1           0       -1.150000    0.000000    0.000000
      3          9           0        3.700000    0.000000    0.000000
 ---------------------------------------------------------------------

 SCF Done:  E(UB3LYP) =  -100.880715160     a.u. after  450 cycles

 Alpha  occ. eigenvalues --  -24.76287  -1.22173  -0.55375  -0.46559  -0.46530
 Alpha  occ. eigenvalues --   -0.36896
 Alpha virt. eigenvalues --   -0.02983   0.22491   0.35196   0.86008   0.90885
 Alpha virt. eigenvalues --    0.91783   1.01112   1.11800   1.11803   1.25847
 Alpha virt. eigenvalues --    1.57099   1.57102   2.11957   2.32993   2.54891

  Beta  occ. eigenvalues --  -24.73131  -1.13098  -0.43395  -0.43366  -0.36894
  Beta virt. eigenvalues --   -0.26021  -0.02979   0.22496   0.35219   0.92385
  Beta virt. eigenvalues --    0.93277   0.95473   1.05243   1.11800   1.11802
  Beta virt. eigenvalues --    1.25852   1.57099   1.57101   2.11961   2.32994

 Mulliken charges and spin densities:
               1          2
     1  H    0.000541  -0.000127
     2  H   -0.002451  -0.000089
     3  F    0.001911   1.000216
 Sum of Mulliken charges =   0.00000   1.00000

 Dipole moment (field-independent basis, Debye):
    X=              0.0334    Y=             -0.0000    Z=              0.0000  Tot=              0.0334
 Quadrupole moment (field-independent basis, Debye-Ang):
   XX=             -6.3013   YY=             -7.4425   ZZ=             -6.5782
   XY=             -0.0000   XZ=              0.0000   YZ=             -0.0066

  Exact polarizability:      14.890      -0.000       2.078       0.000      -0.004       2.543
 Approx polarizability:      21.669      -0.000       2.110       0.000      -0.004       2.692

 ******    1 imaginary frequencies (negative Signs) ******

                      1                      2                      3
                      A                      A                      A
 Frequencies --    -62.7243               582.3398              1503.6904
 Red. masses --      1.1085                 1.0078                 1.0096
 Frc consts  --      0.0026                 0.2014                 1.3450
 IR Inten    --      0.0909                 0.0975                 0.0012

                      4
                      A
 Frequencies --   1504.5292
 Red. masses --      1.0096
 Frc consts  --      1.3465
 IR Inten    --      0.0009

 - Thermochemistry -
 -------------------
 Temperature   298.150 Kelvin.  Pressure   1.00000 Atm.
 Atom     1 has atomic number  1 and mass   1.00783

 Molecular mass:    21.01405 amu.
 Principal axes and moments of inertia in atomic units:
                           1         2         3
     Eigenvalues --     0.00000 121.31011 121.31011
           X            1.00000  -0.00000   0.00000
           Y            0.00000   1.00000   0.00000
           Z            0.00000   0.00000   1.00000
 This molecule is a prolate symmetric top.
 Rotational symmetry number  1.
 Rotational temperature (Kelvin)      0.71399
 Rotational constant (GHZ):          14.877088
    1 imaginary frequencies ignored.
 Zero-point vibrational energy      21476.3 (Joules/Mol)
                                    5.13296 (Kcal/Mol)
 Warning -- explicit consideration of   1 degrees of freedom as
           vibrations may cause significant error
 Vibrational temperatures:    837.86  2163.48  2164.68
          (Kelvin)

 Zero-point correction=                           0.008180 (Hartree/Particle)
 Thermal correction to Energy=                    0.010720
 Thermal correction to Enthalpy=                  0.011664
 Thermal correction to Gibbs Free Energy=        -0.012534
 Sum of electronic and zero-point Energies=           -100.872535
 Sum of electronic and thermal Energies=              -100.869995
 Sum of electronic and thermal Enthalpies=            -100.869051
 Sum of electronic and thermal Free Energies=         -100.893249

                     E (Thermal)             CV                S
                      KCal/Mol        Cal/Mol-Kelvin    Cal/Mol-Kelvin
 Total                    6.727              6.185             50.929
 Electronic               0.000              0.000              1.377
 Translational            0.889              2.981             35.068
 Rotational               0.592              1.987             13.979
 Vibrational              5.246              1.217              0.504
 Vibration     1          0.939              1.070              0.481

 Normal termination of Gaussian 16 at Fri Aug 22 23:47:20 2025.
