 Gaussian 16, Revision C.01,
 Gaussian 16:  ES64L-G16RevC.01  3-Jul-2019

 -----------------------------------------
 # sp b3lyp/6-311g** Force nosymm scf=(qc)
 -----------------------------------------

 -------------------
 Title Card Required
 -------------------
 Symbolic Z-matrix:
 Charge =  0 Multiplicity = 2

                          Input orientation:
 ---------------------------------------------------------------------
 Center     Atomic      Atomic             Coordinates (Angstroms)
 Number     Number       Type             X           Y           Z
 ---------------------------------------------------------------------
      1          1           0        0.000000    0.000000    0.000000
      2          1           0       -3.550000    0.000000    0.000000
      3          9           0        3.550000    0.000000    0.000000
 ---------------------------------------------------------------------

 SCF Done:  E(UB3LYP) =  -100.759005388     a.u. after   37 cycles

 Alpha  occ. eigenvalues --  -24.75463  -1.21421  -0.54586  -0.45831  -0.45831
 Alpha  occ. eigenvalues --   -0.32321
 Alpha virt. eigenvalues --   -0.06864   0.24264   0.37138   0.87448   0.91433
 Alpha virt. eigenvalues --    0.91433   1.01694   1.25181   1.25181   1.25308
 Alpha virt. eigenvalues --    1.45401   1.45446   1.45446   2.14965   2.41368

  Beta  occ. eigenvalues --  -24.72344  -1.12458  -0.42705  -0.42705  -0.32767
  Beta virt. eigenvalues --   -0.25522  -0.06390   0.24032   0.37990   0.92924
  Beta virt. eigenvalues --    0.92924   0.96617   1.05720   1.24673   1.24673
  Beta virt. eigenvalues --    1.24781   1.45992   1.46217   1.46217   2.15131

 Mulliken charges and spin densities:
               1          2
     1  H    0.009932  -0.987042
     2  H    0.000144   0.998128
     3  F   -0.010076   0.988914
 Sum of Mulliken charges =  -0.00000   1.00000

 Dipole moment (field-independent basis, Debye):
    X=             -0.1865    Y=              0.0000    Z=              0.0000  Tot=              0.1865
 Quadrupole moment (field-independent basis, Debye-Ang):
   XX=             -7.3307   YY=             -7.6215   ZZ=             -7.6215
   XY=             -0.0000   XZ=             -0.0000   YZ=             -0.0000

  Exact polarizability:      22.191      -0.000       2.037      -0.000      -0.000       2.037
 Approx polarizability:      17.249      -0.000       1.934      -0.000       0.000       1.934

 ******    2 imaginary frequencies (negative Signs) ******

                      1                      2                      3
                      A                      A                      A
 Frequencies --   -233.0456               -97.8138                68.8023
 Red. masses --      1.0279                 1.0852                 1.0179
 Frc consts  --      0.0329                 0.0061                 0.0028
 IR Inten    --      8.7606                 1.0281                 0.0849

                      4
                      A
 Frequencies --     68.8024
 Red. masses --      1.0179
 Frc consts  --      0.0028
 IR Inten    --      0.0849

 - Thermochemistry -
 -------------------
 Temperature   298.150 Kelvin.  Pressure   1.00000 Atm.
 Atom     1 has atomic number  1 and mass   1.00783

 Molecular mass:    21.01405 amu.
 Principal axes and moments of inertia in atomic units:
                           1         2         3
     Eigenvalues --     0.00000 207.20502 207.20502
           X            1.00000  -0.00000   0.00000
           Y            0.00000   1.00000   0.00000
           Z            0.00000   0.00000   1.00000
 This molecule is a prolate symmetric top.
 Rotational symmetry number  1.
 Rotational temperature (Kelvin)      0.41801
 Rotational constant (GHZ):           8.709930
    2 imaginary frequencies ignored.
 Zero-point vibrational energy        823.1 (Joules/Mol)
                                    0.19672 (Kcal/Mol)
 Warning -- explicit consideration of   2 degrees of freedom as
           vibrations may cause significant error
 Vibrational temperatures:     98.99    98.99
          (Kelvin)

 Zero-point correction=                           0.000313 (Hartree/Particle)
 Thermal correction to Energy=                    0.004266
 Thermal correction to Enthalpy=                  0.005210
 Thermal correction to Gibbs Free Energy=        -0.023232
 Sum of electronic and zero-point Energies=           -100.758692
 Sum of electronic and thermal Energies=              -100.754739
 Sum of electronic and thermal Enthalpies=            -100.753795
 Sum of electronic and thermal Free Energies=         -100.782238

                     E (Thermal)             CV                S
                      KCal/Mol        Cal/Mol-Kelvin    Cal/Mol-Kelvin
 Total                    2.677              8.906             59.863
 Electronic               0.000              0.000              1.377
 Translational            0.889              2.981             35.068
 Rotational               0.592              1.987             15.043
 Vibrational              1.196              3.938              8.375
 Vibration     1          0.598              1.969              4.187
 Vibration     2          0.598              1.969              4.187

 Normal termination of Gaussian 16 at Fri Aug 22 22:41:29 2025.
