 Gaussian 16, Revision C.01,
 Gaussian 16:  ES64L-G16RevC.01  3-Jul-2019

 -----------------------------------------
 # sp b3lyp/6-311g** Force nosymm scf=(qc)
 -----------------------------------------

 -------------------
 Title Card Required
 -------------------
 Symbolic Z-matrix:
 Charge =  0 Multiplicity = 2

                          Input orientation:
 ---------------------------------------------------------------------
 Center     Atomic      Atomic             Coordinates (Angstroms)
 Number     Number       Type             X           Y           Z
 ---------------------------------------------------------------------
      1          1           0        0.000000    0.000000    0.000000
      2          1           0       -0.850000    0.000000    0.000000
      3          9           0        1.700000    0.000000    0.000000
 ---------------------------------------------------------------------

 SCF Done:  E(UB3LYP) =  -100.932756143     a.u. after    6 cycles

 Alpha  occ. eigenvalues --  -24.72312  -1.18837  -0.54013  -0.43433  -0.43433
 Alpha  occ. eigenvalues --   -0.42921
 Alpha virt. eigenvalues --    0.05748   0.20348   0.39762   0.89943   0.89943
 Alpha virt. eigenvalues --    0.95902   1.07067   1.07067   1.17038   1.66732
 Alpha virt. eigenvalues --    1.73812   1.73812   2.10515   2.37502   2.84934

  Beta  occ. eigenvalues --  -24.69536  -1.11068  -0.44568  -0.40698  -0.40698
  Beta virt. eigenvalues --   -0.24483   0.07165   0.21252   0.41018   0.91116
  Beta virt. eigenvalues --    0.91116   1.02928   1.08751   1.08751   1.20193
  Beta virt. eigenvalues --    1.69358   1.74783   1.74783   2.11815   2.39277

 Mulliken charges and spin densities:
               1          2
     1  H    0.071868  -0.054979
     2  H    0.036593   0.197088
     3  F   -0.108461   0.857891
 Sum of Mulliken charges =   0.00000   1.00000

 Dipole moment (field-independent basis, Debye):
    X=             -1.0268    Y=              0.0000    Z=              0.0000  Tot=              1.0268
 Quadrupole moment (field-independent basis, Debye-Ang):
   XX=             -6.7195   YY=             -6.9638   ZZ=             -6.9638
   XY=              0.0000   XZ=              0.0000   YZ=              0.0000

  Exact polarizability:      24.180       0.000       2.240       0.000       0.000       2.240
 Approx polarizability:      31.135       0.000       2.272       0.000      -0.000       2.272

 ******    1 imaginary frequencies (negative Signs) ******

                      1                      2                      3
                      A                      A                      A
 Frequencies --   -484.9502              1087.4259              1087.4259
 Red. masses --      1.1075                 1.0117                 1.0117
 Frc consts  --      0.1535                 0.7049                 0.7049
 IR Inten    --    121.0861                 0.1217                 0.1217

                      4
                      A
 Frequencies --   2829.4883
 Red. masses --      1.0087
 Frc consts  --      4.7580
 IR Inten    --    674.5293

 - Thermochemistry -
 -------------------
 Temperature   298.150 Kelvin.  Pressure   1.00000 Atm.
 Atom     1 has atomic number  1 and mass   1.00783

 Molecular mass:    21.01405 amu.
 Principal axes and moments of inertia in atomic units:
                           1         2         3
     Eigenvalues --     0.00000  30.68598  30.68598
           X            1.00000  -0.00000   0.00000
           Y            0.00000   1.00000   0.00000
           Z            0.00000   0.00000   1.00000
 This molecule is a prolate symmetric top.
 Rotational symmetry number  1.
 Rotational temperature (Kelvin)      2.82259
 Rotational constant (GHZ):          58.813226
    1 imaginary frequencies ignored.
 Zero-point vibrational energy      29932.6 (Joules/Mol)
                                    7.15406 (Kcal/Mol)
 Vibrational temperatures:   1564.56  1564.56  4071.00
          (Kelvin)

 Zero-point correction=                           0.011401 (Hartree/Particle)
 Thermal correction to Energy=                    0.013814
 Thermal correction to Enthalpy=                  0.014758
 Thermal correction to Gibbs Free Energy=        -0.007965
 Sum of electronic and zero-point Energies=           -100.921355
 Sum of electronic and thermal Energies=              -100.918943
 Sum of electronic and thermal Enthalpies=            -100.917998
 Sum of electronic and thermal Free Energies=         -100.940721

                     E (Thermal)             CV                S
                      KCal/Mol        Cal/Mol-Kelvin    Cal/Mol-Kelvin
 Total                    8.668              5.550             47.824
 Electronic               0.000              0.000              1.377
 Translational            0.889              2.981             35.068
 Rotational               0.592              1.987             11.247
 Vibrational              7.187              0.582              0.131

 Normal termination of Gaussian 16 at Fri Aug 22 16:36:23 2025.
