 Gaussian 16, Revision C.01,
 Gaussian 16:  ES64L-G16RevC.01  3-Jul-2019

 -----------------------------------------
 # sp b3lyp/6-311g** Force nosymm scf=(qc)
 -----------------------------------------

 -------------------
 Title Card Required
 -------------------
 Symbolic Z-matrix:
 Charge =  0 Multiplicity = 2

                          Input orientation:
 ---------------------------------------------------------------------
 Center     Atomic      Atomic             Coordinates (Angstroms)
 Number     Number       Type             X           Y           Z
 ---------------------------------------------------------------------
      1          1           0        0.000000    0.000000    0.000000
      2          1           0       -1.600000    0.000000    0.000000
      3          9           0        1.000000    0.000000    0.000000
 ---------------------------------------------------------------------

 SCF Done:  E(UB3LYP) =  -100.967168950     a.u. after    6 cycles

 Alpha  occ. eigenvalues --  -24.63533  -1.15702  -0.52418  -0.38311  -0.38311
 Alpha  occ. eigenvalues --   -0.37000
 Alpha virt. eigenvalues --    0.06878   0.21687   0.33936   0.94314   0.94314
 Alpha virt. eigenvalues --    0.99045   1.15050   1.17433   1.17433   1.39584
 Alpha virt. eigenvalues --    1.39584   1.52568   1.95895   2.31984   2.38599

  Beta  occ. eigenvalues --  -24.63310  -1.15143  -0.50973  -0.38115  -0.38115
  Beta virt. eigenvalues --   -0.15229   0.09356   0.27963   0.37100   0.94423
  Beta virt. eigenvalues --    0.94423   0.99559   1.24101   1.29159   1.29159
  Beta virt. eigenvalues --    1.44655   1.44655   1.55966   2.07025   2.33010

 Mulliken charges and spin densities:
               1          2
     1  H    0.294338   0.000912
     2  H    0.030916   0.939909
     3  F   -0.325254   0.059180
 Sum of Mulliken charges =   0.00000   1.00000

 Dipole moment (field-independent basis, Debye):
    X=             -2.2966    Y=             -0.0000    Z=              0.0000  Tot=              2.2966
 Quadrupole moment (field-independent basis, Debye-Ang):
   XX=             -7.6565   YY=             -6.8566   ZZ=             -6.8566
   XY=              0.0000   XZ=              0.0000   YZ=              0.0000

  Exact polarizability:      12.492      -0.000       2.502      -0.000      -0.000       2.502
 Approx polarizability:      13.617       0.000       2.493      -0.000      -0.000       2.493

                      1                      2                      3
                      A                      A                      A
 Frequencies --    261.0690               878.0824               878.0824
 Red. masses --      1.0485                 1.0245                 1.0245
 Frc consts  --      0.0421                 0.4654                 0.4654
 IR Inten    --      1.4591               108.0956               108.0956

                      4
                      A
 Frequencies --   2851.1996
 Red. masses --      1.0632
 Frc consts  --      5.0924
 IR Inten    --    215.2162

 - Thermochemistry -
 -------------------
 Temperature   298.150 Kelvin.  Pressure   1.00000 Atm.
 Atom     1 has atomic number  1 and mass   1.00783

 Molecular mass:    21.01405 amu.
 Principal axes and moments of inertia in atomic units:
                           1         2         3
     Eigenvalues --     0.00000  25.69132  25.69132
           X            1.00000  -0.00000   0.00000
           Y            0.00000   1.00000   0.00000
           Z            0.00000   0.00000   1.00000
 This molecule is a prolate symmetric top.
 Rotational symmetry number  1.
 Rotational temperature (Kelvin)      3.37133
 Rotational constant (GHZ):          70.247117
 Zero-point vibrational energy      29119.7 (Joules/Mol)
                                    6.95977 (Kcal/Mol)
 Warning -- explicit consideration of   1 degrees of freedom as
           vibrations may cause significant error
 Vibrational temperatures:    375.62  1263.36  1263.36  4102.24
          (Kelvin)

 Zero-point correction=                           0.011091 (Hartree/Particle)
 Thermal correction to Energy=                    0.014040
 Thermal correction to Enthalpy=                  0.014984
 Thermal correction to Gibbs Free Energy=        -0.008439
 Sum of electronic and zero-point Energies=           -100.956078
 Sum of electronic and thermal Energies=              -100.953129
 Sum of electronic and thermal Enthalpies=            -100.952185
 Sum of electronic and thermal Free Energies=         -100.975608

                     E (Thermal)             CV                S
                      KCal/Mol        Cal/Mol-Kelvin    Cal/Mol-Kelvin
 Total                    8.810              7.774             49.299
 Electronic               0.000              0.000              1.377
 Translational            0.889              2.981             35.068
 Rotational               0.592              1.987             10.894
 Vibrational              7.329              2.806              1.959
 Vibration     1          0.669              1.744              1.655

 Normal termination of Gaussian 16 at Fri Aug 22 16:00:16 2025.
