 Gaussian 16, Revision C.01,
 Gaussian 16:  ES64L-G16RevC.01  3-Jul-2019

 -----------------------------------------
 # sp b3lyp/6-311g** Force nosymm scf=(qc)
 -----------------------------------------

 -------------------
 Title Card Required
 -------------------
 Symbolic Z-matrix:
 Charge =  0 Multiplicity = 2

                          Input orientation:
 ---------------------------------------------------------------------
 Center     Atomic      Atomic             Coordinates (Angstroms)
 Number     Number       Type             X           Y           Z
 ---------------------------------------------------------------------
      1          1           0        0.000000    0.000000    0.000000
      2          1           0       -1.800000    0.000000    0.000000
      3          9           0        2.050000    0.000000    0.000000
 ---------------------------------------------------------------------

 SCF Done:  E(UB3LYP) =  -100.806887393     a.u. after   13 cycles

 Alpha  occ. eigenvalues --  -24.68888  -1.15225  -0.48069  -0.40306  -0.40306
 Alpha  occ. eigenvalues --   -0.36873
 Alpha virt. eigenvalues --   -0.12875   0.23520   0.30926   0.86168   0.94674
 Alpha virt. eigenvalues --    0.94674   1.03586   1.20657   1.20657   1.26781
 Alpha virt. eigenvalues --    1.34240   1.34240   1.64296   2.12776   2.35567

  Beta  occ. eigenvalues --  -24.66385  -1.08198  -0.37833  -0.37833  -0.37040
  Beta virt. eigenvalues --   -0.22282  -0.11470   0.26075   0.30648   0.89429
  Beta virt. eigenvalues --    0.95591   0.95591   1.07564   1.22500   1.22500
  Beta virt. eigenvalues --    1.33205   1.35302   1.35302   1.64135   2.13583

 Mulliken charges and spin densities:
               1          2
     1  H    0.111785  -0.578591
     2  H    0.053536   0.791794
     3  F   -0.165322   0.786797
 Sum of Mulliken charges =  -0.00000   1.00000

 Dipole moment (field-independent basis, Debye):
    X=             -2.1526    Y=              0.0000    Z=              0.0000  Tot=              2.1526
 Quadrupole moment (field-independent basis, Debye-Ang):
   XX=             -8.3208   YY=             -7.5705   ZZ=             -7.5705
   XY=             -0.0000   XZ=             -0.0000   YZ=             -0.0000

  Exact polarizability:      54.146      -0.000       2.063      -0.000       0.000       2.063
 Approx polarizability:      69.959       0.000       1.985       0.000      -0.000       1.985

 ******    2 imaginary frequencies (negative Signs) ******

                      1                      2                      3
                      A                      A                      A
 Frequencies --  -1830.4078              -558.6171               773.0650
 Red. masses --      1.0130                 1.1024                 1.0164
 Frc consts  --      1.9996                 0.2027                 0.3579
 IR Inten    --    229.8689                36.9527                 6.0383

                      4
                      A
 Frequencies --    773.0650
 Red. masses --      1.0164
 Frc consts  --      0.3579
 IR Inten    --      6.0383

 - Thermochemistry -
 -------------------
 Temperature   298.150 Kelvin.  Pressure   1.00000 Atm.
 Atom     1 has atomic number  1 and mass   1.00783

 Molecular mass:    21.01405 amu.
 Principal axes and moments of inertia in atomic units:
                           1         2         3
     Eigenvalues --     0.00000  62.46269  62.46269
           X            1.00000  -0.00000   0.00000
           Y            0.00000   1.00000   0.00000
           Z            0.00000   0.00000   1.00000
 This molecule is a prolate symmetric top.
 Rotational symmetry number  1.
 Rotational temperature (Kelvin)      1.38665
 Rotational constant (GHZ):          28.893107
    2 imaginary frequencies ignored.
 Zero-point vibrational energy       9247.9 (Joules/Mol)
                                    2.21030 (Kcal/Mol)
 Vibrational temperatures:   1112.27  1112.27
          (Kelvin)

 Zero-point correction=                           0.003522 (Hartree/Particle)
 Thermal correction to Energy=                    0.006056
 Thermal correction to Enthalpy=                  0.007000
 Thermal correction to Gibbs Free Energy=        -0.016550
 Sum of electronic and zero-point Energies=           -100.803365
 Sum of electronic and thermal Energies=              -100.800832
 Sum of electronic and thermal Enthalpies=            -100.799887
 Sum of electronic and thermal Free Energies=         -100.823438

                     E (Thermal)             CV                S
                      KCal/Mol        Cal/Mol-Kelvin    Cal/Mol-Kelvin
 Total                    3.800              6.360             49.566
 Electronic               0.000              0.000              1.377
 Translational            0.889              2.981             35.068
 Rotational               0.592              1.987             12.660
 Vibrational              2.319              1.392              0.461

 Normal termination of Gaussian 16 at Fri Aug 22 16:59:56 2025.
