 Gaussian 16, Revision C.01,
 Gaussian 16:  ES64L-G16RevC.01  3-Jul-2019

 -----------------------------------------
 # sp b3lyp/6-311g** Force nosymm scf=(qc)
 -----------------------------------------

 -------------------
 Title Card Required
 -------------------
 Symbolic Z-matrix:
 Charge =  0 Multiplicity = 2

                          Input orientation:
 ---------------------------------------------------------------------
 Center     Atomic      Atomic             Coordinates (Angstroms)
 Number     Number       Type             X           Y           Z
 ---------------------------------------------------------------------
      1          1           0        0.000000    0.000000    0.000000
      2          1           0       -2.000000    0.000000    0.000000
      3          9           0        2.500000    0.000000    0.000000
 ---------------------------------------------------------------------

 SCF Done:  E(UB3LYP) =  -100.782066553     a.u. after   18 cycles

 Alpha  occ. eigenvalues --  -24.71892  -1.18087  -0.51000  -0.42823  -0.42823
 Alpha  occ. eigenvalues --   -0.34830
 Alpha virt. eigenvalues --   -0.12746   0.24823   0.31981   0.89917   0.93553
 Alpha virt. eigenvalues --    0.93553   1.05760   1.20776   1.23107   1.23107
 Alpha virt. eigenvalues --    1.35185   1.35185   1.49336   2.11307   2.34842

  Beta  occ. eigenvalues --  -24.69040  -1.09964  -0.39979  -0.39979  -0.35167
  Beta virt. eigenvalues --   -0.23610  -0.11601   0.26559   0.31988   0.94923
  Beta virt. eigenvalues --    0.94923   0.96791   1.08712   1.22887   1.22887
  Beta virt. eigenvalues --    1.23664   1.37015   1.37015   1.49968   2.12040

 Mulliken charges and spin densities:
               1          2
     1  H    0.055870  -0.770074
     2  H    0.028978   0.868613
     3  F   -0.084848   0.901461
 Sum of Mulliken charges =  -0.00000   1.00000

 Dipole moment (field-independent basis, Debye):
    X=             -1.3576    Y=              0.0000    Z=              0.0000  Tot=              1.3576
 Quadrupole moment (field-independent basis, Debye-Ang):
   XX=             -8.1566   YY=             -7.6604   ZZ=             -7.6604
   XY=              0.0000   XZ=              0.0000   YZ=             -0.0000

  Exact polarizability:      59.124       0.000       2.009       0.000      -0.000       2.009
 Approx polarizability:      63.327       0.000       1.930       0.000       0.000       1.930

 ******    2 imaginary frequencies (negative Signs) ******

                      1                      2                      3
                      A                      A                      A
 Frequencies --  -1396.4598              -391.3451               564.8151
 Red. masses --      1.0093                 1.1068                 1.0155
 Frc consts  --      1.1596                 0.0999                 0.1909
 IR Inten    --     75.9920                50.2802                 1.6639

                      4
                      A
 Frequencies --    564.8151
 Red. masses --      1.0155
 Frc consts  --      0.1909
 IR Inten    --      1.6639

 - Thermochemistry -
 -------------------
 Temperature   298.150 Kelvin.  Pressure   1.00000 Atm.
 Atom     1 has atomic number  1 and mass   1.00783

 Molecular mass:    21.01405 amu.
 Principal axes and moments of inertia in atomic units:
                           1         2         3
     Eigenvalues --     0.00000  86.91599  86.91599
           X            1.00000  -0.00000   0.00000
           Y            0.00000   1.00000   0.00000
           Z            0.00000   0.00000   1.00000
 This molecule is a prolate symmetric top.
 Rotational symmetry number  1.
 Rotational temperature (Kelvin)      0.99652
 Rotational constant (GHZ):          20.764203
    2 imaginary frequencies ignored.
 Zero-point vibrational energy       6756.7 (Joules/Mol)
                                    1.61489 (Kcal/Mol)
 Warning -- explicit consideration of   2 degrees of freedom as
           vibrations may cause significant error
 Vibrational temperatures:    812.64   812.64
          (Kelvin)

 Zero-point correction=                           0.002573 (Hartree/Particle)
 Thermal correction to Energy=                    0.005295
 Thermal correction to Enthalpy=                  0.006239
 Thermal correction to Gibbs Free Energy=        -0.017893
 Sum of electronic and zero-point Energies=           -100.779493
 Sum of electronic and thermal Energies=              -100.776772
 Sum of electronic and thermal Enthalpies=            -100.775828
 Sum of electronic and thermal Free Energies=         -100.799960

                     E (Thermal)             CV                S
                      KCal/Mol        Cal/Mol-Kelvin    Cal/Mol-Kelvin
 Total                    3.322              7.183             50.790
 Electronic               0.000              0.000              1.377
 Translational            0.889              2.981             35.068
 Rotational               0.592              1.987             13.316
 Vibrational              1.841              2.215              1.029
 Vibration     1          0.921              1.107              0.514
 Vibration     2          0.921              1.107              0.514

 Normal termination of Gaussian 16 at Fri Aug 22 17:44:47 2025.
