 Gaussian 16, Revision C.01,
 Gaussian 16:  ES64L-G16RevC.01  3-Jul-2019

 -----------------------------------------
 # sp b3lyp/6-311g** Force nosymm scf=(qc)
 -----------------------------------------

 -------------------
 Title Card Required
 -------------------
 Symbolic Z-matrix:
 Charge =  0 Multiplicity = 2

                          Input orientation:
 ---------------------------------------------------------------------
 Center     Atomic      Atomic             Coordinates (Angstroms)
 Number     Number       Type             X           Y           Z
 ---------------------------------------------------------------------
      1          1           0        0.000000    0.000000    0.000000
      2          1           0       -1.500000    0.000000    0.000000
      3          9           0        2.300000    0.000000    0.000000
 ---------------------------------------------------------------------

 SCF Done:  E(UB3LYP) =  -100.826766085     a.u. after   15 cycles

 Alpha  occ. eigenvalues --  -24.72172  -1.18376  -0.51417  -0.43095  -0.43095
 Alpha  occ. eigenvalues --   -0.36651
 Alpha virt. eigenvalues --   -0.10701   0.23260   0.31436   0.87175   0.93158
 Alpha virt. eigenvalues --    0.93158   1.03201   1.17453   1.17453   1.19455
 Alpha virt. eigenvalues --    1.39374   1.39374   1.79918   2.19703   2.45688

  Beta  occ. eigenvalues --  -24.69332  -1.10298  -0.40266  -0.40266  -0.36093
  Beta virt. eigenvalues --   -0.24406  -0.09665   0.24707   0.31387   0.92737
  Beta virt. eigenvalues --    0.94484   0.94484   1.06564   1.18428   1.18428
  Beta virt. eigenvalues --    1.23276   1.40040   1.40040   1.80845   2.20799

 Mulliken charges and spin densities:
               1          2
     1  H    0.037496  -0.335019
     2  H    0.047878   0.439143
     3  F   -0.085373   0.895875
 Sum of Mulliken charges =  -0.00000   1.00000

 Dipole moment (field-independent basis, Debye):
    X=             -1.3306    Y=             -0.0000    Z=             -0.0000  Tot=              1.3306
 Quadrupole moment (field-independent basis, Debye-Ang):
   XX=             -7.2173   YY=             -7.6217   ZZ=             -7.6217
   XY=             -0.0000   XZ=             -0.0000   YZ=             -0.0000

  Exact polarizability:      57.091      -0.000       2.069      -0.000       0.000       2.069
 Approx polarizability:      82.951       0.000       2.038       0.000       0.000       2.038

 ******    2 imaginary frequencies (negative Signs) ******

                      1                      2                      3
                      A                      A                      A
 Frequencies --  -2066.5772              -368.6934              1119.6892
 Red. masses --      1.0092                 1.1068                 1.0136
 Frc consts  --      2.5395                 0.0886                 0.7487
 IR Inten    --    737.2933                30.6968                 0.1529

                      4
                      A
 Frequencies --   1119.6892
 Red. masses --      1.0136
 Frc consts  --      0.7487
 IR Inten    --      0.1529

 - Thermochemistry -
 -------------------
 Temperature   298.150 Kelvin.  Pressure   1.00000 Atm.
 Atom     1 has atomic number  1 and mass   1.00783

 Molecular mass:    21.01405 amu.
 Principal axes and moments of inertia in atomic units:
                           1         2         3
     Eigenvalues --     0.00000  64.58574  64.58574
           X            1.00000  -0.00000   0.00000
           Y            0.00000   1.00000   0.00000
           Z            0.00000   0.00000   1.00000
 This molecule is a prolate symmetric top.
 Rotational symmetry number  1.
 Rotational temperature (Kelvin)      1.34107
 Rotational constant (GHZ):          27.943341
    2 imaginary frequencies ignored.
 Zero-point vibrational energy      13394.5 (Joules/Mol)
                                    3.20135 (Kcal/Mol)
 Vibrational temperatures:   1610.98  1610.98
          (Kelvin)

 Zero-point correction=                           0.005102 (Hartree/Particle)
 Thermal correction to Energy=                    0.007508
 Thermal correction to Enthalpy=                  0.008452
 Thermal correction to Gibbs Free Energy=        -0.014965
 Sum of electronic and zero-point Energies=           -100.821664
 Sum of electronic and thermal Energies=              -100.819258
 Sum of electronic and thermal Enthalpies=            -100.818314
 Sum of electronic and thermal Free Energies=         -100.841731

                     E (Thermal)             CV                S
                      KCal/Mol        Cal/Mol-Kelvin    Cal/Mol-Kelvin
 Total                    4.712              5.495             49.287
 Electronic               0.000              0.000              1.377
 Translational            0.889              2.981             35.068
 Rotational               0.592              1.987             12.726
 Vibrational              3.230              0.527              0.115

 Normal termination of Gaussian 16 at Fri Aug 22 17:21:22 2025.
