 Gaussian 16, Revision C.01,
 Gaussian 16:  ES64L-G16RevC.01  3-Jul-2019

 -----------------------------------------
 # sp b3lyp/6-311g** Force nosymm scf=(qc)
 -----------------------------------------

 -------------------
 Title Card Required
 -------------------
 Symbolic Z-matrix:
 Charge =  0 Multiplicity = 2

                          Input orientation:
 ---------------------------------------------------------------------
 Center     Atomic      Atomic             Coordinates (Angstroms)
 Number     Number       Type             X           Y           Z
 ---------------------------------------------------------------------
      1          1           0        0.000000    0.000000    0.000000
      2          1           0       -2.850000    0.000000    0.000000
      3          9           0        1.700000    0.000000    0.000000
 ---------------------------------------------------------------------

 SCF Done:  E(UB3LYP) =  -100.818456261     a.u. after   16 cycles

 Alpha  occ. eigenvalues --  -24.65649  -1.11666  -0.44343  -0.37500  -0.37500
 Alpha  occ. eigenvalues --   -0.34761
 Alpha virt. eigenvalues --   -0.14968   0.22359   0.28832   0.94625   0.94625
 Alpha virt. eigenvalues --    0.96642   1.06546   1.22791   1.22791   1.23827
 Alpha virt. eigenvalues --    1.33138   1.33138   1.73378   2.13664   2.24154

  Beta  occ. eigenvalues --  -24.64140  -1.07556  -0.40112  -0.36038  -0.36038
  Beta virt. eigenvalues --   -0.18454  -0.08576   0.23136   0.36252   0.94388
  Beta virt. eigenvalues --    0.94388   0.97541   1.07945   1.25490   1.25490
  Beta virt. eigenvalues --    1.43442   1.43525   1.43525   1.69986   2.13431

 Mulliken charges and spin densities:
               1          2
     1  H    0.283689  -0.462918
     2  H    0.009924   0.987534
     3  F   -0.293613   0.475384
 Sum of Mulliken charges =  -0.00000   1.00000

 Dipole moment (field-independent basis, Debye):
    X=             -2.5671    Y=              0.0000    Z=             -0.0000  Tot=              2.5671
 Quadrupole moment (field-independent basis, Debye-Ang):
   XX=             -9.8402   YY=             -7.4183   ZZ=             -7.4183
   XY=              0.0000   XZ=             -0.0000   YZ=              0.0000

  Exact polarizability:      26.635       0.000       2.123      -0.000      -0.000       2.123
 Approx polarizability:      39.096      -0.000       2.024       0.000       0.000       2.024

 ******    2 imaginary frequencies (negative Signs) ******

                      1                      2                      3
                      A                      A                      A
 Frequencies --  -1741.8551              -239.0421               765.3907
 Red. masses --      1.0552                 1.0563                 1.0252
 Frc consts  --      1.8863                 0.0356                 0.3539
 IR Inten    --     92.2532                 3.8511                71.1847

                      4
                      A
 Frequencies --    765.3907
 Red. masses --      1.0252
 Frc consts  --      0.3539
 IR Inten    --     71.1847

 - Thermochemistry -
 -------------------
 Temperature   298.150 Kelvin.  Pressure   1.00000 Atm.
 Atom     1 has atomic number  1 and mass   1.00783

 Molecular mass:    21.01405 amu.
 Principal axes and moments of inertia in atomic units:
                           1         2         3
     Eigenvalues --     0.00000  78.16715  78.16715
           X            1.00000  -0.00000   0.00000
           Y            0.00000   1.00000   0.00000
           Z            0.00000   0.00000   1.00000
 This molecule is a prolate symmetric top.
 Rotational symmetry number  1.
 Rotational temperature (Kelvin)      1.10806
 Rotational constant (GHZ):          23.088230
    2 imaginary frequencies ignored.
 Zero-point vibrational energy       9156.1 (Joules/Mol)
                                    2.18836 (Kcal/Mol)
 Vibrational temperatures:   1101.23  1101.23
          (Kelvin)

 Zero-point correction=                           0.003487 (Hartree/Particle)
 Thermal correction to Energy=                    0.006026
 Thermal correction to Enthalpy=                  0.006970
 Thermal correction to Gibbs Free Energy=        -0.016799
 Sum of electronic and zero-point Energies=           -100.814969
 Sum of electronic and thermal Energies=              -100.812430
 Sum of electronic and thermal Enthalpies=            -100.811486
 Sum of electronic and thermal Free Energies=         -100.835255

                     E (Thermal)             CV                S
                      KCal/Mol        Cal/Mol-Kelvin    Cal/Mol-Kelvin
 Total                    3.781              6.387             50.026
 Electronic               0.000              0.000              1.377
 Translational            0.889              2.981             35.068
 Rotational               0.592              1.987             13.106
 Vibrational              2.300              1.419              0.475

 Normal termination of Gaussian 16 at Fri Aug 22 16:38:12 2025.
