 Gaussian 16, Revision C.01,
 Gaussian 16:  ES64L-G16RevC.01  3-Jul-2019

 -----------------------------------------
 # sp b3lyp/6-311g** Force nosymm scf=(qc)
 -----------------------------------------

 -------------------
 Title Card Required
 -------------------
 Symbolic Z-matrix:
 Charge =  0 Multiplicity = 2

                          Input orientation:
 ---------------------------------------------------------------------
 Center     Atomic      Atomic             Coordinates (Angstroms)
 Number     Number       Type             X           Y           Z
 ---------------------------------------------------------------------
      1          1           0        0.000000    0.000000    0.000000
      2          1           0       -3.800000    0.000000    0.000000
      3          9           0        2.550000    0.000000    0.000000
 ---------------------------------------------------------------------

 SCF Done:  E(UB3LYP) =  -100.766299471     a.u. after   27 cycles

 Alpha  occ. eigenvalues --  -24.72018  -1.18219  -0.51125  -0.42945  -0.42945
 Alpha  occ. eigenvalues --   -0.32752
 Alpha virt. eigenvalues --   -0.09886   0.23476   0.35393   0.89743   0.93465
 Alpha virt. eigenvalues --    0.93465   1.06095   1.24749   1.24749   1.24791
 Alpha virt. eigenvalues --    1.40925   1.40925   1.44506   2.14207   2.37662

  Beta  occ. eigenvalues --  -24.69151  -1.10051  -0.40086  -0.40086  -0.35155
  Beta virt. eigenvalues --   -0.23520  -0.06260   0.23762   0.38092   0.94847
  Beta virt. eigenvalues --    0.94847   0.96483   1.08572   1.22244   1.22244
  Beta virt. eigenvalues --    1.28363   1.46277   1.46486   1.46486   2.12681

 Mulliken charges and spin densities:
               1          2
     1  H    0.083166  -0.905290
     2  H    0.000388   0.999015
     3  F   -0.083554   0.906275
 Sum of Mulliken charges =   0.00000   1.00000

 Dipole moment (field-independent basis, Debye):
    X=             -1.0925    Y=              0.0000    Z=              0.0000  Tot=              1.0925
 Quadrupole moment (field-independent basis, Debye-Ang):
   XX=             -9.2485   YY=             -7.5734   ZZ=             -7.5734
   XY=              0.0000   XZ=              0.0000   YZ=             -0.0000

  Exact polarizability:      30.456       0.000       2.026       0.000      -0.000       2.026
 Approx polarizability:      38.187       0.000       1.921       0.000       0.000       1.921

 ******    2 imaginary frequencies (negative Signs) ******

                      1                      2                      3
                      A                      A                      A
 Frequencies --   -581.8229               -85.9531               225.4611
 Red. masses --      1.0560                 1.0556                 1.0234
 Frc consts  --      0.2106                 0.0046                 0.0307
 IR Inten    --     76.2422                 0.0800                 6.7180

                      4
                      A
 Frequencies --    225.4611
 Red. masses --      1.0234
 Frc consts  --      0.0307
 IR Inten    --      6.7180

 - Thermochemistry -
 -------------------
 Temperature   298.150 Kelvin.  Pressure   1.00000 Atm.
 Atom     1 has atomic number  1 and mass   1.00783

 Molecular mass:    21.01405 amu.
 Principal axes and moments of inertia in atomic units:
                           1         2         3
     Eigenvalues --     0.00000 154.85138 154.85138
           X            1.00000  -0.00000   0.00000
           Y            0.00000   1.00000   0.00000
           Z            0.00000   0.00000   1.00000
 This molecule is a prolate symmetric top.
 Rotational symmetry number  1.
 Rotational temperature (Kelvin)      0.55934
 Rotational constant (GHZ):          11.654666
    2 imaginary frequencies ignored.
 Zero-point vibrational energy       2697.1 (Joules/Mol)
                                    0.64463 (Kcal/Mol)
 Warning -- explicit consideration of   2 degrees of freedom as
           vibrations may cause significant error
 Vibrational temperatures:    324.39   324.39
          (Kelvin)

 Zero-point correction=                           0.001027 (Hartree/Particle)
 Thermal correction to Energy=                    0.004432
 Thermal correction to Enthalpy=                  0.005376
 Thermal correction to Gibbs Free Energy=        -0.020633
 Sum of electronic and zero-point Energies=           -100.765272
 Sum of electronic and thermal Energies=              -100.761868
 Sum of electronic and thermal Enthalpies=            -100.760924
 Sum of electronic and thermal Free Energies=         -100.786932

                     E (Thermal)             CV                S
                      KCal/Mol        Cal/Mol-Kelvin    Cal/Mol-Kelvin
 Total                    2.781              8.573             54.739
 Electronic               0.000              0.000              1.377
 Translational            0.889              2.981             35.068
 Rotational               0.592              1.987             14.464
 Vibrational              1.300              3.605              3.830
 Vibration     1          0.650              1.802              1.915
 Vibration     2          0.650              1.802              1.915

 Normal termination of Gaussian 16 at Fri Aug 22 17:55:36 2025.
