 Gaussian 16, Revision C.01,
 Gaussian 16:  ES64L-G16RevC.01  3-Jul-2019

 -----------------------------------------
 # sp b3lyp/6-311g** Force nosymm scf=(qc)
 -----------------------------------------

 -------------------
 Title Card Required
 -------------------
 Symbolic Z-matrix:
 Charge =  0 Multiplicity = 2

                          Input orientation:
 ---------------------------------------------------------------------
 Center     Atomic      Atomic             Coordinates (Angstroms)
 Number     Number       Type             X           Y           Z
 ---------------------------------------------------------------------
      1          1           0        0.000000    0.000000    0.000000
      2          1           0       -3.450000    0.000000    0.000000
      3          9           0        3.200000    0.000000    0.000000
 ---------------------------------------------------------------------

 SCF Done:  E(UB3LYP) =  -100.760050409     a.u. after   20 cycles

 Alpha  occ. eigenvalues --  -24.74721  -1.20734  -0.53842  -0.45207  -0.45207
 Alpha  occ. eigenvalues --   -0.32455
 Alpha virt. eigenvalues --   -0.07653   0.24200   0.36372   0.88666   0.91891
 Alpha virt. eigenvalues --    0.91891   1.02875   1.25052   1.25052   1.25238
 Alpha virt. eigenvalues --    1.44470   1.44470   1.44657   2.14983   2.40729

  Beta  occ. eigenvalues --  -24.71650  -1.11922  -0.42132  -0.42132  -0.33298
  Beta virt. eigenvalues --   -0.25130  -0.06611   0.24020   0.37820   0.93366
  Beta virt. eigenvalues --    0.93366   0.97576   1.06745   1.24077   1.24077
  Beta virt. eigenvalues --    1.24297   1.45747   1.45998   1.45998   2.15310

 Mulliken charges and spin densities:
               1          2
     1  H    0.023956  -0.970970
     2  H    0.000366   0.997642
     3  F   -0.024322   0.973328
 Sum of Mulliken charges =  -0.00000   1.00000

 Dipole moment (field-independent basis, Debye):
    X=             -0.4060    Y=             -0.0000    Z=              0.0000  Tot=              0.4060
 Quadrupole moment (field-independent basis, Debye-Ang):
   XX=             -7.9028   YY=             -7.6172   ZZ=             -7.6172
   XY=             -0.0000   XZ=              0.0000   YZ=              0.0000

  Exact polarizability:      30.089      -0.000       2.028       0.000       0.000       2.028
 Approx polarizability:      27.445      -0.000       1.929       0.000      -0.000       1.929

 ******    2 imaginary frequencies (negative Signs) ******

                      1                      2                      3
                      A                      A                      A
 Frequencies --   -317.1954              -119.4376               108.2471
 Red. masses --      1.0382                 1.0739                 1.0189
 Frc consts  --      0.0615                 0.0090                 0.0070
 IR Inten    --     25.5699                 1.2006                 0.5259

                      4
                      A
 Frequencies --    108.2472
 Red. masses --      1.0189
 Frc consts  --      0.0070
 IR Inten    --      0.5259

 - Thermochemistry -
 -------------------
 Temperature   298.150 Kelvin.  Pressure   1.00000 Atm.
 Atom     1 has atomic number  1 and mass   1.00783

 Molecular mass:    21.01405 amu.
 Principal axes and moments of inertia in atomic units:
                           1         2         3
     Eigenvalues --     0.00000 179.26425 179.26425
           X            1.00000  -0.00000   0.00000
           Y            0.00000   1.00000   0.00000
           Z            0.00000   0.00000   1.00000
 This molecule is a prolate symmetric top.
 Rotational symmetry number  1.
 Rotational temperature (Kelvin)      0.48316
 Rotational constant (GHZ):          10.067491
    2 imaginary frequencies ignored.
 Zero-point vibrational energy       1294.9 (Joules/Mol)
                                    0.30949 (Kcal/Mol)
 Warning -- explicit consideration of   2 degrees of freedom as
           vibrations may cause significant error
 Vibrational temperatures:    155.74   155.74
          (Kelvin)

 Zero-point correction=                           0.000493 (Hartree/Particle)
 Thermal correction to Energy=                    0.004292
 Thermal correction to Enthalpy=                  0.005236
 Thermal correction to Gibbs Free Energy=        -0.022227
 Sum of electronic and zero-point Energies=           -100.759557
 Sum of electronic and thermal Energies=              -100.755759
 Sum of electronic and thermal Enthalpies=            -100.754815
 Sum of electronic and thermal Free Energies=         -100.782278

                     E (Thermal)             CV                S
                      KCal/Mol        Cal/Mol-Kelvin    Cal/Mol-Kelvin
 Total                    2.693              8.853             57.801
 Electronic               0.000              0.000              1.377
 Translational            0.889              2.981             35.068
 Rotational               0.592              1.987             14.755
 Vibrational              1.212              3.885              6.600
 Vibration     1          0.606              1.943              3.300
 Vibration     2          0.606              1.943              3.300

 Normal termination of Gaussian 16 at Fri Aug 22 20:24:51 2025.
