 Gaussian 16, Revision C.01,
 Gaussian 16:  ES64L-G16RevC.01  3-Jul-2019

 -----------------------------------------
 # sp b3lyp/6-311g** Force nosymm scf=(qc)
 -----------------------------------------

 -------------------
 Title Card Required
 -------------------
 Symbolic Z-matrix:
 Charge =  0 Multiplicity = 2

                          Input orientation:
 ---------------------------------------------------------------------
 Center     Atomic      Atomic             Coordinates (Angstroms)
 Number     Number       Type             X           Y           Z
 ---------------------------------------------------------------------
      1          1           0        0.000000    0.000000    0.000000
      2          1           0       -0.850000    0.000000    0.000000
      3          9           0        3.900000    0.000000    0.000000
 ---------------------------------------------------------------------

 SCF Done:  E(UB3LYP) =  -100.927638186     a.u. after  154 cycles

 Alpha  occ. eigenvalues --  -24.76199  -1.22093  -0.55297  -0.46472  -0.46453
 Alpha  occ. eigenvalues --   -0.41286
 Alpha virt. eigenvalues --    0.03675   0.20427   0.43239   0.86076   0.90953
 Alpha virt. eigenvalues --    0.91662   1.01055   1.08220   1.08222   1.48881
 Alpha virt. eigenvalues --    1.75558   1.75560   2.11032   2.37650   2.87587

  Beta  occ. eigenvalues --  -24.73043  -1.13019  -0.43311  -0.43289  -0.41283
  Beta virt. eigenvalues --   -0.25945   0.03679   0.20430   0.43259   0.92453
  Beta virt. eigenvalues --    0.93154   0.95542   1.05195   1.08220   1.08222
  Beta virt. eigenvalues --    1.48883   1.75558   1.75560   2.11038   2.37651

 Mulliken charges and spin densities:
               1          2
     1  H    0.000438  -0.000140
     2  H   -0.001810  -0.000008
     3  F    0.001373   1.000148
 Sum of Mulliken charges =   0.00000   1.00000

 Dipole moment (field-independent basis, Debye):
    X=              0.0226    Y=              0.0000    Z=              0.0000  Tot=              0.0226
 Quadrupole moment (field-independent basis, Debye-Ang):
   XX=             -6.3168   YY=             -6.2385   ZZ=             -7.0668
   XY=              0.0000   XZ=              0.0000   YZ=              0.1239

  Exact polarizability:       9.487       0.000       2.463       0.000       0.067       2.016
 Approx polarizability:      11.536       0.000       2.643       0.000       0.083       2.085

 ******    1 imaginary frequencies (negative Signs) ******

                      1                      2                      3
                      A                      A                      A
 Frequencies --    -54.8721              1323.2235              1324.8070
 Red. masses --      1.1085                 1.0088                 1.0088
 Frc consts  --      0.0020                 1.0407                 1.0432
 IR Inten    --      0.0491                 0.0005                 0.0002

                      4
                      A
 Frequencies --   3135.8547
 Red. masses --      1.0078
 Frc consts  --      5.8391
 IR Inten    --      0.0350

 - Thermochemistry -
 -------------------
 Temperature   298.150 Kelvin.  Pressure   1.00000 Atm.
 Atom     1 has atomic number  1 and mass   1.00783

 Molecular mass:    21.01405 amu.
 Principal axes and moments of inertia in atomic units:
                           1         2         3
     Eigenvalues --     0.00000 123.02867 123.02867
           X            1.00000  -0.00000   0.00000
           Y            0.00000   1.00000   0.00000
           Z            0.00000   0.00000   1.00000
 This molecule is a prolate symmetric top.
 Rotational symmetry number  1.
 Rotational temperature (Kelvin)      0.70401
 Rotational constant (GHZ):          14.669274
    1 imaginary frequencies ignored.
 Zero-point vibrational energy      34595.3 (Joules/Mol)
                                    8.26848 (Kcal/Mol)
 Vibrational temperatures:   1903.82  1906.10  4511.80
          (Kelvin)

 Zero-point correction=                           0.013177 (Hartree/Particle)
 Thermal correction to Energy=                    0.015557
 Thermal correction to Enthalpy=                  0.016502
 Thermal correction to Gibbs Free Energy=        -0.007493
 Sum of electronic and zero-point Energies=           -100.914462
 Sum of electronic and thermal Energies=              -100.912081
 Sum of electronic and thermal Enthalpies=            -100.911137
 Sum of electronic and thermal Free Energies=         -100.935132

                     E (Thermal)             CV                S
                      KCal/Mol        Cal/Mol-Kelvin    Cal/Mol-Kelvin
 Total                    9.762              5.242             50.502
 Electronic               0.000              0.000              1.377
 Translational            0.889              2.981             35.068
 Rotational               0.592              1.987             14.007
 Vibrational              8.281              0.274              0.049

 Normal termination of Gaussian 16 at Sat Aug 23 01:14:32 2025.
