 Gaussian 16, Revision C.01,
 Gaussian 16:  ES64L-G16RevC.01  3-Jul-2019

 -----------------------------------------
 # sp b3lyp/6-311g** Force nosymm scf=(qc)
 -----------------------------------------

 -------------------
 Title Card Required
 -------------------
 Symbolic Z-matrix:
 Charge =  0 Multiplicity = 2

                          Input orientation:
 ---------------------------------------------------------------------
 Center     Atomic      Atomic             Coordinates (Angstroms)
 Number     Number       Type             X           Y           Z
 ---------------------------------------------------------------------
      1          1           0        0.000000    0.000000    0.000000
      2          1           0       -2.800000    0.000000    0.000000
      3          9           0        1.350000    0.000000    0.000000
 ---------------------------------------------------------------------

 SCF Done:  E(UB3LYP) =  -100.889624982     a.u. after    7 cycles

 Alpha  occ. eigenvalues --  -24.64242  -1.10578  -0.45251  -0.36769  -0.36769
 Alpha  occ. eigenvalues --   -0.34879
 Alpha virt. eigenvalues --   -0.10065   0.22715   0.27479   0.93138   0.93138
 Alpha virt. eigenvalues --    1.02710   1.18930   1.22645   1.22645   1.24086
 Alpha virt. eigenvalues --    1.33421   1.33421   1.71766   2.13735   2.23614

  Beta  occ. eigenvalues --  -24.64197  -1.10463  -0.45102  -0.36727  -0.36727
  Beta virt. eigenvalues --   -0.12301  -0.06136   0.25681   0.36942   0.93129
  Beta virt. eigenvalues --    0.93129   1.02824   1.19547   1.33284   1.33284
  Beta virt. eigenvalues --    1.44418   1.44470   1.44470   1.71980   2.23395

 Mulliken charges and spin densities:
               1          2
     1  H    0.352927  -0.005288
     2  H    0.007573   0.991348
     3  F   -0.360500   0.013940
 Sum of Mulliken charges =  -0.00000   1.00000

 Dipole moment (field-independent basis, Debye):
    X=             -2.5506    Y=             -0.0000    Z=             -0.0000  Tot=              2.5506
 Quadrupole moment (field-independent basis, Debye-Ang):
   XX=             -9.1229   YY=             -7.2333   ZZ=             -7.2333
   XY=             -0.0000   XZ=             -0.0000   YZ=             -0.0000

  Exact polarizability:      14.863       0.000       2.267       0.000       0.000       2.267
 Approx polarizability:      22.171       0.000       2.208       0.000       0.000       2.208

 ******    2 imaginary frequencies (negative Signs) ******

                      1                      2                      3
                      A                      A                      A
 Frequencies --   -918.1170              -147.9578              1113.1299
 Red. masses --      1.0524                 1.0591                 1.0286
 Frc consts  --      0.5227                 0.0137                 0.7509
 IR Inten    --     91.0227                 0.6686               122.0485

                      4
                      A
 Frequencies --   1113.1299
 Red. masses --      1.0286
 Frc consts  --      0.7509
 IR Inten    --    122.0485

 - Thermochemistry -
 -------------------
 Temperature   298.150 Kelvin.  Pressure   1.00000 Atm.
 Atom     1 has atomic number  1 and mass   1.00783

 Molecular mass:    21.01405 amu.
 Principal axes and moments of inertia in atomic units:
                           1         2         3
     Eigenvalues --     0.00000  63.32176  63.32176
           X            1.00000  -0.00000   0.00000
           Y            0.00000   1.00000   0.00000
           Z            0.00000   0.00000   1.00000
 This molecule is a prolate symmetric top.
 Rotational symmetry number  1.
 Rotational temperature (Kelvin)      1.36784
 Rotational constant (GHZ):          28.501123
    2 imaginary frequencies ignored.
 Zero-point vibrational energy      13316.0 (Joules/Mol)
                                    3.18260 (Kcal/Mol)
 Vibrational temperatures:   1601.55  1601.55
          (Kelvin)

 Zero-point correction=                           0.005072 (Hartree/Particle)
 Thermal correction to Energy=                    0.007480
 Thermal correction to Enthalpy=                  0.008424
 Thermal correction to Gibbs Free Energy=        -0.014977
 Sum of electronic and zero-point Energies=           -100.884553
 Sum of electronic and thermal Energies=              -100.882145
 Sum of electronic and thermal Enthalpies=            -100.881201
 Sum of electronic and thermal Free Energies=         -100.904602

                     E (Thermal)             CV                S
                      KCal/Mol        Cal/Mol-Kelvin    Cal/Mol-Kelvin
 Total                    4.694              5.506             49.251
 Electronic               0.000              0.000              1.377
 Translational            0.889              2.981             35.068
 Rotational               0.592              1.987             12.687
 Vibrational              3.212              0.538              0.118

 Normal termination of Gaussian 16 at Fri Aug 22 16:18:09 2025.
