 Gaussian 16, Revision C.01,
 Gaussian 16:  ES64L-G16RevC.01  3-Jul-2019

 -----------------------------------------
 # sp b3lyp/6-311g** Force nosymm scf=(qc)
 -----------------------------------------

 -------------------
 Title Card Required
 -------------------
 Symbolic Z-matrix:
 Charge =  0 Multiplicity = 2

                          Input orientation:
 ---------------------------------------------------------------------
 Center     Atomic      Atomic             Coordinates (Angstroms)
 Number     Number       Type             X           Y           Z
 ---------------------------------------------------------------------
      1          1           0        0.000000    0.000000    0.000000
      2          1           0       -3.650000    0.000000    0.000000
      3          9           0        3.000000    0.000000    0.000000
 ---------------------------------------------------------------------

 SCF Done:  E(UB3LYP) =  -100.760966006     a.u. after   22 cycles

 Alpha  occ. eigenvalues --  -24.74079  -1.20140  -0.53199  -0.44669  -0.44669
 Alpha  occ. eigenvalues --   -0.32510
 Alpha virt. eigenvalues --   -0.08002   0.23928   0.36186   0.89364   0.92279
 Alpha virt. eigenvalues --    0.92279   1.03888   1.24993   1.24993   1.25081
 Alpha virt. eigenvalues --    1.44153   1.44153   1.44487   2.14630   2.40299

  Beta  occ. eigenvalues --  -24.71052  -1.11465  -0.41640  -0.41640  -0.33729
  Beta virt. eigenvalues --   -0.24771  -0.06336   0.23854   0.38025   0.93741
  Beta virt. eigenvalues --    0.93741   0.98045   1.07605   1.23600   1.23600
  Beta virt. eigenvalues --    1.24026   1.46109   1.46337   1.46337   2.14744

 Mulliken charges and spin densities:
               1          2
     1  H    0.036939  -0.957728
     2  H    0.000305   0.998574
     3  F   -0.037243   0.959154
 Sum of Mulliken charges =  -0.00000   1.00000

 Dipole moment (field-independent basis, Debye):
    X=             -0.5791    Y=              0.0000    Z=             -0.0000  Tot=              0.5791
 Quadrupole moment (field-independent basis, Debye-Ang):
   XX=             -8.3230   YY=             -7.6075   ZZ=             -7.6075
   XY=             -0.0000   XZ=              0.0000   YZ=              0.0000

  Exact polarizability:      31.418      -0.000       2.026       0.000       0.000       2.026
 Approx polarizability:      32.129      -0.000       1.926       0.000      -0.000       1.926

 ******    2 imaginary frequencies (negative Signs) ******

                      1                      2                      3
                      A                      A                      A
 Frequencies --   -372.2543              -101.0398               130.3547
 Red. masses --      1.0498                 1.0619                 1.0205
 Frc consts  --      0.0857                 0.0064                 0.0102
 IR Inten    --     39.4577                 0.3359                 1.2907

                      4
                      A
 Frequencies --    130.3548
 Red. masses --      1.0205
 Frc consts  --      0.0102
 IR Inten    --      1.2907

 - Thermochemistry -
 -------------------
 Temperature   298.150 Kelvin.  Pressure   1.00000 Atm.
 Atom     1 has atomic number  1 and mass   1.00783

 Molecular mass:    21.01405 amu.
 Principal axes and moments of inertia in atomic units:
                           1         2         3
     Eigenvalues --     0.00000 175.47464 175.47464
           X            1.00000  -0.00000   0.00000
           Y            0.00000   1.00000   0.00000
           Z            0.00000   0.00000   1.00000
 This molecule is a prolate symmetric top.
 Rotational symmetry number  1.
 Rotational temperature (Kelvin)      0.49360
 Rotational constant (GHZ):          10.284912
    2 imaginary frequencies ignored.
 Zero-point vibrational energy       1559.4 (Joules/Mol)
                                    0.37270 (Kcal/Mol)
 Warning -- explicit consideration of   2 degrees of freedom as
           vibrations may cause significant error
 Vibrational temperatures:    187.55   187.55
          (Kelvin)

 Zero-point correction=                           0.000594 (Hartree/Particle)
 Thermal correction to Energy=                    0.004311
 Thermal correction to Enthalpy=                  0.005255
 Thermal correction to Gibbs Free Energy=        -0.021846
 Sum of electronic and zero-point Energies=           -100.760372
 Sum of electronic and thermal Energies=              -100.756655
 Sum of electronic and thermal Enthalpies=            -100.755711
 Sum of electronic and thermal Free Energies=         -100.782812

                     E (Thermal)             CV                S
                      KCal/Mol        Cal/Mol-Kelvin    Cal/Mol-Kelvin
 Total                    2.705              8.814             57.040
 Electronic               0.000              0.000              1.377
 Translational            0.889              2.981             35.068
 Rotational               0.592              1.987             14.713
 Vibrational              1.224              3.846              5.882
 Vibration     1          0.612              1.923              2.941
 Vibration     2          0.612              1.923              2.941

 Normal termination of Gaussian 16 at Fri Aug 22 19:33:18 2025.
