 Gaussian 16, Revision C.01,
 Gaussian 16:  ES64L-G16RevC.01  3-Jul-2019

 -----------------------------------------
 # sp b3lyp/6-311g** Force nosymm scf=(qc)
 -----------------------------------------

 -------------------
 Title Card Required
 -------------------
 Symbolic Z-matrix:
 Charge =  0 Multiplicity = 2

                          Input orientation:
 ---------------------------------------------------------------------
 Center     Atomic      Atomic             Coordinates (Angstroms)
 Number     Number       Type             X           Y           Z
 ---------------------------------------------------------------------
      1          1           0        0.000000    0.000000    0.000000
      2          1           0       -1.550000    0.000000    0.000000
      3          9           0        0.800000    0.000000    0.000000
 ---------------------------------------------------------------------

 SCF Done:  E(UB3LYP) =  -100.947361510     a.u. after    6 cycles

 Alpha  occ. eigenvalues --  -24.63432  -1.23004  -0.56928  -0.40485  -0.40485
 Alpha  occ. eigenvalues --   -0.36353
 Alpha virt. eigenvalues --    0.11882   0.21748   0.45066   0.94132   0.94132
 Alpha virt. eigenvalues --    0.97029   1.17594   1.17594   1.26198   1.43639
 Alpha virt. eigenvalues --    1.43639   1.54908   2.06449   2.16913   2.77275

  Beta  occ. eigenvalues --  -24.63289  -1.22623  -0.56026  -0.40368  -0.40368
  Beta virt. eigenvalues --   -0.13251   0.13453   0.29391   0.48636   0.94257
  Beta virt. eigenvalues --    0.94257   0.97334   1.30294   1.30294   1.33917
  Beta virt. eigenvalues --    1.48599   1.48599   1.60850   2.10788   2.32822

 Mulliken charges and spin densities:
               1          2
     1  H    0.256207   0.011526
     2  H    0.018464   0.958996
     3  F   -0.274670   0.029478
 Sum of Mulliken charges =   0.00000   1.00000

 Dipole moment (field-independent basis, Debye):
    X=             -1.8635    Y=              0.0000    Z=             -0.0000  Tot=              1.8635
 Quadrupole moment (field-independent basis, Debye-Ang):
   XX=             -7.2699   YY=             -6.6741   ZZ=             -6.6741
   XY=              0.0000   XZ=             -0.0000   YZ=              0.0000

  Exact polarizability:       8.627      -0.000       2.539      -0.000       0.000       2.539
 Approx polarizability:       8.640      -0.000       2.545       0.000       0.000       2.545

 ******    2 imaginary frequencies (negative Signs) ******

                      1                      2                      3
                      A                      A                      A
 Frequencies --  -1956.1793             -1956.1793               659.3244
 Red. masses --      1.0275                 1.0275                 1.0532
 Frc consts  --      2.3167                 2.3167                 0.2697
 IR Inten    --    136.0951               136.0951                 0.7338

                      4
                      A
 Frequencies --   6300.0902
 Red. masses --      1.0584
 Frc consts  --     24.7502
 IR Inten    --    179.3601

 - Thermochemistry -
 -------------------
 Temperature   298.150 Kelvin.  Pressure   1.00000 Atm.
 Atom     1 has atomic number  1 and mass   1.00783

 Molecular mass:    21.01405 amu.
 Principal axes and moments of inertia in atomic units:
                           1         2         3
     Eigenvalues --     0.00000  20.46620  20.46620
           X            1.00000  -0.00000   0.00000
           Y            0.00000   1.00000   0.00000
           Z            0.00000   0.00000   1.00000
 This molecule is a prolate symmetric top.
 Rotational symmetry number  1.
 Rotational temperature (Kelvin)      4.23205
 Rotational constant (GHZ):          88.181557
    2 imaginary frequencies ignored.
 Zero-point vibrational energy      41626.5 (Joules/Mol)
                                    9.94898 (Kcal/Mol)
 Vibrational temperatures:    948.62  9064.42
          (Kelvin)

 Zero-point correction=                           0.015855 (Hartree/Particle)
 Thermal correction to Energy=                    0.018345
 Thermal correction to Enthalpy=                  0.019289
 Thermal correction to Gibbs Free Energy=        -0.003159
 Sum of electronic and zero-point Energies=           -100.931507
 Sum of electronic and thermal Energies=              -100.929016
 Sum of electronic and thermal Enthalpies=            -100.928072
 Sum of electronic and thermal Free Energies=         -100.950520

                     E (Thermal)             CV                S
                      KCal/Mol        Cal/Mol-Kelvin    Cal/Mol-Kelvin
 Total                   11.512              5.877             47.246
 Electronic               0.000              0.000              1.377
 Translational            0.889              2.981             35.068
 Rotational               0.592              1.987             10.443
 Vibrational             10.031              0.909              0.358

 Normal termination of Gaussian 16 at Fri Aug 22 15:50:47 2025.
