 Gaussian 16, Revision C.01,
 Gaussian 16:  ES64L-G16RevC.01  3-Jul-2019

 -----------------------------------------
 # sp b3lyp/6-311g** Force nosymm scf=(qc)
 -----------------------------------------

 -------------------
 Title Card Required
 -------------------
 Symbolic Z-matrix:
 Charge =  0 Multiplicity = 2

                          Input orientation:
 ---------------------------------------------------------------------
 Center     Atomic      Atomic             Coordinates (Angstroms)
 Number     Number       Type             X           Y           Z
 ---------------------------------------------------------------------
      1          1           0        0.000000    0.000000    0.000000
      2          1           0       -1.350000    0.000000    0.000000
      3          9           0        1.850000    0.000000    0.000000
 ---------------------------------------------------------------------

 SCF Done:  E(UB3LYP) =  -100.860869742     a.u. after   14 cycles

 Alpha  occ. eigenvalues --  -24.69543  -1.15987  -0.49586  -0.40976  -0.40976
 Alpha  occ. eigenvalues --   -0.39016
 Alpha virt. eigenvalues --   -0.07502   0.21593   0.31431   0.88744   0.93061
 Alpha virt. eigenvalues --    0.93061   1.03849   1.13007   1.13007   1.38500
 Alpha virt. eigenvalues --    1.44347   1.44347   1.96207   2.23650   2.49208

  Beta  occ. eigenvalues --  -24.67048  -1.09009  -0.38894  -0.38517  -0.38517
  Beta virt. eigenvalues --   -0.23765  -0.05311   0.23427   0.31758   0.93544
  Beta virt. eigenvalues --    0.93951   0.93951   1.07574   1.15427   1.15427
  Beta virt. eigenvalues --    1.42708   1.45478   1.45478   1.98650   2.24961

 Mulliken charges and spin densities:
               1          2
     1  H    0.099052  -0.239653
     2  H    0.065688   0.459682
     3  F   -0.164740   0.779970
 Sum of Mulliken charges =   0.00000   1.00000

 Dipole moment (field-independent basis, Debye):
    X=             -1.9141    Y=              0.0000    Z=             -0.0000  Tot=              1.9141
 Quadrupole moment (field-independent basis, Debye-Ang):
   XX=             -7.5357   YY=             -7.4077   ZZ=             -7.4077
   XY=              0.0000   XZ=             -0.0000   YZ=              0.0000

  Exact polarizability:      45.303       0.000       2.191      -0.000       0.000       2.191
 Approx polarizability:      70.738      -0.000       2.153       0.000      -0.000       2.153

 ******    2 imaginary frequencies (negative Signs) ******

                      1                      2                      3
                      A                      A                      A
 Frequencies --  -2171.7608              -396.9705              1212.3188
 Red. masses --      1.0153                 1.0996                 1.0146
 Frc consts  --      2.8214                 0.1021                 0.8786
 IR Inten    --   1105.0361                 0.9482                 2.1749

                      4
                      A
 Frequencies --   1212.3188
 Red. masses --      1.0146
 Frc consts  --      0.8786
 IR Inten    --      2.1749

 - Thermochemistry -
 -------------------
 Temperature   298.150 Kelvin.  Pressure   1.00000 Atm.
 Atom     1 has atomic number  1 and mass   1.00783

 Molecular mass:    21.01405 amu.
 Principal axes and moments of inertia in atomic units:
                           1         2         3
     Eigenvalues --     0.00000  44.76955  44.76955
           X            1.00000  -0.00000   0.00000
           Y            0.00000   1.00000   0.00000
           Z            0.00000   0.00000   1.00000
 This molecule is a prolate symmetric top.
 Rotational symmetry number  1.
 Rotational temperature (Kelvin)      1.93466
 Rotational constant (GHZ):          40.311805
    2 imaginary frequencies ignored.
 Zero-point vibrational energy      14502.6 (Joules/Mol)
                                    3.46619 (Kcal/Mol)
 Vibrational temperatures:   1744.26  1744.26
          (Kelvin)

 Zero-point correction=                           0.005524 (Hartree/Particle)
 Thermal correction to Energy=                    0.007916
 Thermal correction to Enthalpy=                  0.008860
 Thermal correction to Gibbs Free Energy=        -0.014194
 Sum of electronic and zero-point Energies=           -100.855346
 Sum of electronic and thermal Energies=              -100.852954
 Sum of electronic and thermal Enthalpies=            -100.852009
 Sum of electronic and thermal Free Energies=         -100.875064

                     E (Thermal)             CV                S
                      KCal/Mol        Cal/Mol-Kelvin    Cal/Mol-Kelvin
 Total                    4.967              5.362             48.522
 Electronic               0.000              0.000              1.377
 Translational            0.889              2.981             35.068
 Rotational               0.592              1.987             11.998
 Vibrational              3.486              0.394              0.079

 Normal termination of Gaussian 16 at Fri Aug 22 16:46:07 2025.
