 Gaussian 16, Revision C.01,
 Gaussian 16:  ES64L-G16RevC.01  3-Jul-2019

 -----------------------------------------
 # sp b3lyp/6-311g** Force nosymm scf=(qc)
 -----------------------------------------

 -------------------
 Title Card Required
 -------------------
 Symbolic Z-matrix:
 Charge =  0 Multiplicity = 2

                          Input orientation:
 ---------------------------------------------------------------------
 Center     Atomic      Atomic             Coordinates (Angstroms)
 Number     Number       Type             X           Y           Z
 ---------------------------------------------------------------------
      1          1           0        0.000000    0.000000    0.000000
      2          1           0       -1.700000    0.000000    0.000000
      3          9           0        3.700000    0.000000    0.000000
 ---------------------------------------------------------------------

 SCF Done:  E(UB3LYP) =  -100.794840386     a.u. after  311 cycles

 Alpha  occ. eigenvalues --  -24.76247  -1.22141  -0.55344  -0.46522  -0.46500
 Alpha  occ. eigenvalues --   -0.33057
 Alpha virt. eigenvalues --   -0.10538   0.25746   0.30966   0.86029   0.90906
 Alpha virt. eigenvalues --    0.91595   1.01026   1.07659   1.23859   1.23861
 Alpha virt. eigenvalues --    1.38298   1.38302   1.67725   2.16948   2.41609

  Beta  occ. eigenvalues --  -24.73093  -1.13069  -0.43364  -0.43337  -0.33045
  Beta virt. eigenvalues --   -0.25993  -0.10575   0.25723   0.31027   0.92408
  Beta virt. eigenvalues --    0.93050   0.95497   1.05143   1.07651   1.23855
  Beta virt. eigenvalues --    1.23858   1.38287   1.38288   1.67750   2.17144

 Mulliken charges and spin densities:
               1          2
     1  H    0.000679  -0.611954
     2  H   -0.002113   0.611947
     3  F    0.001434   1.000007
 Sum of Mulliken charges =   0.00000   1.00000

 Dipole moment (field-independent basis, Debye):
    X=              0.0327    Y=              0.0000    Z=              0.0000  Tot=              0.0327
 Quadrupole moment (field-independent basis, Debye-Ang):
   XX=             -6.5854   YY=             -7.7688   ZZ=             -6.9048
   XY=              0.0000   XZ=              0.0002   YZ=              0.0153

  Exact polarizability:      23.858       0.000       2.018       0.000       0.008       2.482
 Approx polarizability:      37.833       0.000       1.980       0.000       0.010       2.562

 ******    2 imaginary frequencies (negative Signs) ******

                      1                      2                      3
                      A                      A                      A
 Frequencies --  -1906.1424               -46.2456               907.7909
 Red. masses --      1.0078                 1.1085                 1.0112
 Frc consts  --      2.1575                 0.0014                 0.4910
 IR Inten    --      0.0174                 0.0829                 0.0018

                      4
                      A
 Frequencies --    908.5890
 Red. masses --      1.0112
 Frc consts  --      0.4919
 IR Inten    --      0.0009

 - Thermochemistry -
 -------------------
 Temperature   298.150 Kelvin.  Pressure   1.00000 Atm.
 Atom     1 has atomic number  1 and mass   1.00783

 Molecular mass:    21.01405 amu.
 Principal axes and moments of inertia in atomic units:
                           1         2         3
     Eigenvalues --     0.00000 139.92394 139.92394
           X            1.00000  -0.00000   0.00000
           Y            0.00000   1.00000   0.00000
           Z            0.00000   0.00000   1.00000
 This molecule is a prolate symmetric top.
 Rotational symmetry number  1.
 Rotational temperature (Kelvin)      0.61901
 Rotational constant (GHZ):          12.898016
    2 imaginary frequencies ignored.
 Zero-point vibrational energy      10864.4 (Joules/Mol)
                                    2.59665 (Kcal/Mol)
 Vibrational temperatures:   1306.11  1307.26
          (Kelvin)

 Zero-point correction=                           0.004138 (Hartree/Particle)
 Thermal correction to Energy=                    0.006603
 Thermal correction to Enthalpy=                  0.007547
 Thermal correction to Gibbs Free Energy=        -0.016674
 Sum of electronic and zero-point Energies=           -100.790702
 Sum of electronic and thermal Energies=              -100.788237
 Sum of electronic and thermal Enthalpies=            -100.787293
 Sum of electronic and thermal Free Energies=         -100.811514

                     E (Thermal)             CV                S
                      KCal/Mol        Cal/Mol-Kelvin    Cal/Mol-Kelvin
 Total                    4.144              5.946             50.978
 Electronic               0.000              0.000              1.377
 Translational            0.889              2.981             35.068
 Rotational               0.592              1.987             14.263
 Vibrational              2.662              0.978              0.270

 Normal termination of Gaussian 16 at Fri Aug 22 23:59:16 2025.
