 Gaussian 16, Revision C.01,
 Gaussian 16:  ES64L-G16RevC.01  3-Jul-2019

 -----------------------------------------
 # sp b3lyp/6-311g** Force nosymm scf=(qc)
 -----------------------------------------

 -------------------
 Title Card Required
 -------------------
 Symbolic Z-matrix:
 Charge =  0 Multiplicity = 2

                          Input orientation:
 ---------------------------------------------------------------------
 Center     Atomic      Atomic             Coordinates (Angstroms)
 Number     Number       Type             X           Y           Z
 ---------------------------------------------------------------------
      1          1           0        0.000000    0.000000    0.000000
      2          1           0       -1.650000    0.000000    0.000000
      3          9           0        1.450000    0.000000    0.000000
 ---------------------------------------------------------------------

 SCF Done:  E(UB3LYP) =  -100.878578167     a.u. after   11 cycles

 Alpha  occ. eigenvalues --  -24.63976  -1.10586  -0.46206  -0.38038  -0.36421
 Alpha  occ. eigenvalues --   -0.36421
 Alpha virt. eigenvalues --   -0.07631   0.21512   0.28286   0.93891   0.93891
 Alpha virt. eigenvalues --    0.97456   1.03650   1.17168   1.17168   1.37172
 Alpha virt. eigenvalues --    1.37172   1.45940   1.77573   2.14948   2.36573

  Beta  occ. eigenvalues --  -24.62986  -1.07970  -0.42138  -0.35483  -0.35483
  Beta virt. eigenvalues --   -0.20325  -0.03992   0.25206   0.30350   0.93829
  Beta virt. eigenvalues --    0.93829   1.02710   1.05953   1.26268   1.26268
  Beta virt. eigenvalues --    1.39329   1.39329   1.52101   1.80988   2.20419

 Mulliken charges and spin densities:
               1          2
     1  H    0.279783  -0.163628
     2  H    0.065345   0.857187
     3  F   -0.345128   0.306441
 Sum of Mulliken charges =   0.00000   1.00000

 Dipole moment (field-independent basis, Debye):
    X=             -3.0017    Y=              0.0000    Z=              0.0000  Tot=              3.0017
 Quadrupole moment (field-independent basis, Debye-Ang):
   XX=             -8.3783   YY=             -7.2188   ZZ=             -7.2188
   XY=             -0.0000   XZ=             -0.0000   YZ=             -0.0000

  Exact polarizability:      30.847      -0.000       2.295      -0.000      -0.000       2.295
 Approx polarizability:      42.831      -0.000       2.237      -0.000      -0.000       2.237

 ******    2 imaginary frequencies (negative Signs) ******

                      1                      2                      3
                      A                      A                      A
 Frequencies --  -2310.4280              -397.8449              1040.8854
 Red. masses --      1.0263                 1.0870                 1.0196
 Frc consts  --      3.2278                 0.1014                 0.6508
 IR Inten    --     14.0056                 4.8100                46.9093

                      4
                      A
 Frequencies --   1040.8854
 Red. masses --      1.0196
 Frc consts  --      0.6508
 IR Inten    --     46.9093

 - Thermochemistry -
 -------------------
 Temperature   298.150 Kelvin.  Pressure   1.00000 Atm.
 Atom     1 has atomic number  1 and mass   1.00783

 Molecular mass:    21.01405 amu.
 Principal axes and moments of inertia in atomic units:
                           1         2         3
     Eigenvalues --     0.00000  38.57999  38.57999
           X            1.00000  -0.00000   0.00000
           Y            0.00000   1.00000   0.00000
           Z            0.00000   0.00000   1.00000
 This molecule is a prolate symmetric top.
 Rotational symmetry number  1.
 Rotational temperature (Kelvin)      2.24505
 Rotational constant (GHZ):          46.779200
    2 imaginary frequencies ignored.
 Zero-point vibrational energy      12451.8 (Joules/Mol)
                                    2.97604 (Kcal/Mol)
 Vibrational temperatures:   1497.60  1497.60
          (Kelvin)

 Zero-point correction=                           0.004743 (Hartree/Particle)
 Thermal correction to Energy=                    0.007166
 Thermal correction to Enthalpy=                  0.008110
 Thermal correction to Gibbs Free Energy=        -0.014842
 Sum of electronic and zero-point Energies=           -100.873836
 Sum of electronic and thermal Energies=              -100.871412
 Sum of electronic and thermal Enthalpies=            -100.870468
 Sum of electronic and thermal Free Energies=         -100.893420

                     E (Thermal)             CV                S
                      KCal/Mol        Cal/Mol-Kelvin    Cal/Mol-Kelvin
 Total                    4.497              5.637             48.306
 Electronic               0.000              0.000              1.377
 Translational            0.889              2.981             35.068
 Rotational               0.592              1.987             11.702
 Vibrational              3.015              0.669              0.159

 Normal termination of Gaussian 16 at Fri Aug 22 16:22:30 2025.
