 Gaussian 16, Revision C.01,
 Gaussian 16:  ES64L-G16RevC.01  3-Jul-2019

 -----------------------------------------
 # sp b3lyp/6-311g** Force nosymm scf=(qc)
 -----------------------------------------

 -------------------
 Title Card Required
 -------------------
 Symbolic Z-matrix:
 Charge =  0 Multiplicity = 2

                          Input orientation:
 ---------------------------------------------------------------------
 Center     Atomic      Atomic             Coordinates (Angstroms)
 Number     Number       Type             X           Y           Z
 ---------------------------------------------------------------------
      1          1           0        0.000000    0.000000    0.000000
      2          1           0       -2.250000    0.000000    0.000000
      3          9           0        3.050000    0.000000    0.000000
 ---------------------------------------------------------------------

 SCF Done:  E(UB3LYP) =  -100.768325058     a.u. after   23 cycles

 Alpha  occ. eigenvalues --  -24.74391  -1.20424  -0.53509  -0.44928  -0.44928
 Alpha  occ. eigenvalues --   -0.33298
 Alpha virt. eigenvalues --   -0.11085   0.25559   0.32899   0.89387   0.92092
 Alpha virt. eigenvalues --    0.92092   1.03662   1.24352   1.24502   1.24502
 Alpha virt. eigenvalues --    1.38509   1.38509   1.43518   2.13939   2.35496

  Beta  occ. eigenvalues --  -24.71346  -1.11692  -0.41879  -0.41879  -0.33717
  Beta virt. eigenvalues --   -0.24978  -0.10211   0.25781   0.33822   0.93559
  Beta virt. eigenvalues --    0.93559   0.98213   1.07603   1.23778   1.23965
  Beta virt. eigenvalues --    1.23965   1.39910   1.39910   1.44786   2.15102

 Mulliken charges and spin densities:
               1          2
     1  H    0.022058  -0.902316
     2  H    0.008995   0.937203
     3  F   -0.031053   0.965114
 Sum of Mulliken charges =  -0.00000   1.00000

 Dipole moment (field-independent basis, Debye):
    X=             -0.5824    Y=             -0.0000    Z=              0.0000  Tot=              0.5824
 Quadrupole moment (field-independent basis, Debye-Ang):
   XX=             -7.6006   YY=             -7.6799   ZZ=             -7.6799
   XY=             -0.0000   XZ=              0.0000   YZ=              0.0000

  Exact polarizability:      50.722      -0.000       2.009       0.000       0.000       2.009
 Approx polarizability:      43.641      -0.000       1.924       0.000      -0.000       1.924

 ******    2 imaginary frequencies (negative Signs) ******

                      1                      2                      3
                      A                      A                      A
 Frequencies --   -971.3767              -230.5154               371.9238
 Red. masses --      1.0083                 1.1080                 1.0147
 Frc consts  --      0.5605                 0.0347                 0.0827
 IR Inten    --     21.6930                22.8282                 0.3007

                      4
                      A
 Frequencies --    371.9238
 Red. masses --      1.0147
 Frc consts  --      0.0827
 IR Inten    --      0.3007

 - Thermochemistry -
 -------------------
 Temperature   298.150 Kelvin.  Pressure   1.00000 Atm.
 Atom     1 has atomic number  1 and mass   1.00783

 Molecular mass:    21.01405 amu.
 Principal axes and moments of inertia in atomic units:
                           1         2         3
     Eigenvalues --     0.00000 122.54134 122.54134
           X            1.00000  -0.00000   0.00000
           Y            0.00000   1.00000   0.00000
           Z            0.00000   0.00000   1.00000
 This molecule is a prolate symmetric top.
 Rotational symmetry number  1.
 Rotational temperature (Kelvin)      0.70681
 Rotational constant (GHZ):          14.727611
    2 imaginary frequencies ignored.
 Zero-point vibrational energy       4449.2 (Joules/Mol)
                                    1.06338 (Kcal/Mol)
 Warning -- explicit consideration of   2 degrees of freedom as
           vibrations may cause significant error
 Vibrational temperatures:    535.12   535.12
          (Kelvin)

 Zero-point correction=                           0.001695 (Hartree/Particle)
 Thermal correction to Energy=                    0.004730
 Thermal correction to Enthalpy=                  0.005675
 Thermal correction to Gibbs Free Energy=        -0.019312
 Sum of electronic and zero-point Energies=           -100.766630
 Sum of electronic and thermal Energies=              -100.763595
 Sum of electronic and thermal Enthalpies=            -100.762650
 Sum of electronic and thermal Free Energies=         -100.787637

                     E (Thermal)             CV                S
                      KCal/Mol        Cal/Mol-Kelvin    Cal/Mol-Kelvin
 Total                    2.968              8.028             52.588
 Electronic               0.000              0.000              1.377
 Translational            0.889              2.981             35.068
 Rotational               0.592              1.987             13.999
 Vibrational              1.487              3.060              2.144
 Vibration     1          0.744              1.530              1.072
 Vibration     2          0.744              1.530              1.072

 Normal termination of Gaussian 16 at Fri Aug 22 19:43:55 2025.
