 Gaussian 16, Revision C.01,
 Gaussian 16:  ES64L-G16RevC.01  3-Jul-2019

 -----------------------------------------
 # sp b3lyp/6-311g** Force nosymm scf=(qc)
 -----------------------------------------

 -------------------
 Title Card Required
 -------------------
 Symbolic Z-matrix:
 Charge =  0 Multiplicity = 2

                          Input orientation:
 ---------------------------------------------------------------------
 Center     Atomic      Atomic             Coordinates (Angstroms)
 Number     Number       Type             X           Y           Z
 ---------------------------------------------------------------------
      1          1           0        0.000000    0.000000    0.000000
      2          1           0       -1.650000    0.000000    0.000000
      3          9           0        2.900000    0.000000    0.000000
 ---------------------------------------------------------------------

 SCF Done:  E(UB3LYP) =  -100.801784128     a.u. after   53 cycles

 Alpha  occ. eigenvalues --  -24.74549  -1.20575  -0.53680  -0.45073  -0.45073
 Alpha  occ. eigenvalues --   -0.34431
 Alpha virt. eigenvalues --   -0.11417   0.24802   0.30317   0.89860   0.91959
 Alpha virt. eigenvalues --    0.91959   1.04069   1.06871   1.21881   1.21881
 Alpha virt. eigenvalues --    1.37515   1.37515   1.70035   2.16872   2.42933

  Beta  occ. eigenvalues --  -24.71507  -1.11851  -0.42027  -0.42027  -0.34228
  Beta virt. eigenvalues --   -0.25245  -0.11069   0.25502   0.30454   0.93421
  Beta virt. eigenvalues --    0.93421   0.98275   1.05851   1.09592   1.22121
  Beta virt. eigenvalues --    1.22121   1.37833   1.37833   1.70486   2.17812

 Mulliken charges and spin densities:
               1          2
     1  H    0.007771  -0.534369
     2  H    0.022690   0.570422
     3  F   -0.030461   0.963947
 Sum of Mulliken charges =   0.00000   1.00000

 Dipole moment (field-independent basis, Debye):
    X=             -0.6291    Y=             -0.0000    Z=              0.0000  Tot=              0.6291
 Quadrupole moment (field-independent basis, Debye-Ang):
   XX=             -6.7013   YY=             -7.7375   ZZ=             -7.7375
   XY=             -0.0000   XZ=              0.0000   YZ=             -0.0000

  Exact polarizability:      59.831      -0.000       2.022       0.000       0.000       2.022
 Approx polarizability:      70.554      -0.000       1.984       0.000       0.000       1.984

 ******    2 imaginary frequencies (negative Signs) ******

                      1                      2                      3
                      A                      A                      A
 Frequencies --  -1993.4646              -235.4246               958.0676
 Red. masses --      1.0079                 1.1084                 1.0126
 Frc consts  --      2.3599                 0.0362                 0.5476
 IR Inten    --    169.1616                27.9945                 0.0013

                      4
                      A
 Frequencies --    958.0676
 Red. masses --      1.0126
 Frc consts  --      0.5476
 IR Inten    --      0.0013

 - Thermochemistry -
 -------------------
 Temperature   298.150 Kelvin.  Pressure   1.00000 Atm.
 Atom     1 has atomic number  1 and mass   1.00783

 Molecular mass:    21.01405 amu.
 Principal axes and moments of inertia in atomic units:
                           1         2         3
     Eigenvalues --     0.00000  95.19602  95.19602
           X            1.00000  -0.00000   0.00000
           Y            0.00000   1.00000   0.00000
           Z            0.00000   0.00000   1.00000
 This molecule is a prolate symmetric top.
 Rotational symmetry number  1.
 Rotational temperature (Kelvin)      0.90985
 Rotational constant (GHZ):          18.958158
    2 imaginary frequencies ignored.
 Zero-point vibrational energy      11461.0 (Joules/Mol)
                                    2.73925 (Kcal/Mol)
 Vibrational temperatures:   1378.45  1378.45
          (Kelvin)

 Zero-point correction=                           0.004365 (Hartree/Particle)
 Thermal correction to Energy=                    0.006812
 Thermal correction to Enthalpy=                  0.007757
 Thermal correction to Gibbs Free Energy=        -0.016078
 Sum of electronic and zero-point Energies=           -100.797419
 Sum of electronic and thermal Energies=              -100.794972
 Sum of electronic and thermal Enthalpies=            -100.794028
 Sum of electronic and thermal Free Energies=         -100.817862

                     E (Thermal)             CV                S
                      KCal/Mol        Cal/Mol-Kelvin    Cal/Mol-Kelvin
 Total                    4.275              5.819             50.164
 Electronic               0.000              0.000              1.377
 Translational            0.889              2.981             35.068
 Rotational               0.592              1.987             13.497
 Vibrational              2.794              0.851              0.221

 Normal termination of Gaussian 16 at Fri Aug 22 19:02:35 2025.
