 Gaussian 16, Revision C.01,
 Gaussian 16:  ES64L-G16RevC.01  3-Jul-2019

 -----------------------------------------
 # sp b3lyp/6-311g** Force nosymm scf=(qc)
 -----------------------------------------

 -------------------
 Title Card Required
 -------------------
 Symbolic Z-matrix:
 Charge =  0 Multiplicity = 2

                          Input orientation:
 ---------------------------------------------------------------------
 Center     Atomic      Atomic             Coordinates (Angstroms)
 Number     Number       Type             X           Y           Z
 ---------------------------------------------------------------------
      1          1           0        0.000000    0.000000    0.000000
      2          1           0       -1.900000    0.000000    0.000000
      3          9           0        1.600000    0.000000    0.000000
 ---------------------------------------------------------------------

 SCF Done:  E(UB3LYP) =  -100.844763630     a.u. after   12 cycles

 Alpha  occ. eigenvalues --  -24.64613  -1.10793  -0.44522  -0.37671  -0.36697
 Alpha  occ. eigenvalues --   -0.36697
 Alpha virt. eigenvalues --   -0.11951   0.22855   0.28303   0.94573   0.94573
 Alpha virt. eigenvalues --    0.95971   1.04723   1.19577   1.19577   1.33969
 Alpha virt. eigenvalues --    1.34216   1.34216   1.73719   2.11201   2.29520

  Beta  occ. eigenvalues --  -24.63316  -1.07300  -0.40405  -0.35451  -0.35451
  Beta virt. eigenvalues --   -0.19784  -0.08591   0.25566   0.31179   0.94384
  Beta virt. eigenvalues --    0.94384   0.99093   1.07434   1.27716   1.27716
  Beta virt. eigenvalues --    1.36294   1.36294   1.44402   1.73746   2.14449

 Mulliken charges and spin densities:
               1          2
     1  H    0.262256  -0.303475
     2  H    0.055453   0.897144
     3  F   -0.317709   0.406331
 Sum of Mulliken charges =   0.00000   1.00000

 Dipole moment (field-independent basis, Debye):
    X=             -2.9949    Y=              0.0000    Z=              0.0000  Tot=              2.9949
 Quadrupole moment (field-independent basis, Debye-Ang):
   XX=             -8.7566   YY=             -7.3597   ZZ=             -7.3597
   XY=              0.0000   XZ=              0.0000   YZ=              0.0000

  Exact polarizability:      36.413      -0.000       2.192      -0.000       0.000       2.192
 Approx polarizability:      49.231       0.000       2.113       0.000      -0.000       2.113

 ******    2 imaginary frequencies (negative Signs) ******

                      1                      2                      3
                      A                      A                      A
 Frequencies --  -2136.5817              -528.5819               906.9497
 Red. masses --      1.0332                 1.0793                 1.0202
 Frc consts  --      2.7789                 0.1777                 0.4944
 IR Inten    --     55.1859                 3.0837                45.3048

                      4
                      A
 Frequencies --    906.9497
 Red. masses --      1.0202
 Frc consts  --      0.4944
 IR Inten    --     45.3048

 - Thermochemistry -
 -------------------
 Temperature   298.150 Kelvin.  Pressure   1.00000 Atm.
 Atom     1 has atomic number  1 and mass   1.00783

 Molecular mass:    21.01405 amu.
 Principal axes and moments of inertia in atomic units:
                           1         2         3
     Eigenvalues --     0.00000  48.81181  48.81181
           X            1.00000  -0.00000   0.00000
           Y            0.00000   1.00000   0.00000
           Z            0.00000   0.00000   1.00000
 This molecule is a prolate symmetric top.
 Rotational symmetry number  1.
 Rotational temperature (Kelvin)      1.77445
 Rotational constant (GHZ):          36.973453
    2 imaginary frequencies ignored.
 Zero-point vibrational energy      10849.5 (Joules/Mol)
                                    2.59310 (Kcal/Mol)
 Vibrational temperatures:   1304.90  1304.90
          (Kelvin)

 Zero-point correction=                           0.004132 (Hartree/Particle)
 Thermal correction to Energy=                    0.006598
 Thermal correction to Enthalpy=                  0.007542
 Thermal correction to Gibbs Free Energy=        -0.015686
 Sum of electronic and zero-point Energies=           -100.840631
 Sum of electronic and thermal Energies=              -100.838166
 Sum of electronic and thermal Enthalpies=            -100.837221
 Sum of electronic and thermal Free Energies=         -100.860449

                     E (Thermal)             CV                S
                      KCal/Mol        Cal/Mol-Kelvin    Cal/Mol-Kelvin
 Total                    4.140              5.949             48.887
 Electronic               0.000              0.000              1.377
 Translational            0.889              2.981             35.068
 Rotational               0.592              1.987             12.170
 Vibrational              2.659              0.981              0.272

 Normal termination of Gaussian 16 at Fri Aug 22 16:31:05 2025.
