 Gaussian 16, Revision C.01,
 Gaussian 16:  ES64L-G16RevC.01  3-Jul-2019

 -----------------------------------------
 # sp b3lyp/6-311g** Force nosymm scf=(qc)
 -----------------------------------------

 -------------------
 Title Card Required
 -------------------
 Symbolic Z-matrix:
 Charge =  0 Multiplicity = 2

                          Input orientation:
 ---------------------------------------------------------------------
 Center     Atomic      Atomic             Coordinates (Angstroms)
 Number     Number       Type             X           Y           Z
 ---------------------------------------------------------------------
      1          1           0        0.000000    0.000000    0.000000
      2          1           0       -3.950000    0.000000    0.000000
      3          9           0        1.800000    0.000000    0.000000
 ---------------------------------------------------------------------

 SCF Done:  E(UB3LYP) =  -100.797037548     a.u. after   10 cycles

 Alpha  occ. eigenvalues --  -24.64206  -1.08638  -0.40066  -0.35886  -0.35886
 Alpha  occ. eigenvalues --   -0.33675
 Alpha virt. eigenvalues --   -0.20500   0.19995   0.26654   0.92833   0.95651
 Alpha virt. eigenvalues --    0.95651   1.07798   1.23790   1.23829   1.23829
 Alpha virt. eigenvalues --    1.25973   1.25973   1.65544   2.11837   2.16471

  Beta  occ. eigenvalues --  -24.64210  -1.08648  -0.40069  -0.35890  -0.35890
  Beta virt. eigenvalues --   -0.20521  -0.06368   0.22399   0.38037   0.92847
  Beta virt. eigenvalues --    0.95653   0.95653   1.07799   1.26009   1.26009
  Beta virt. eigenvalues --    1.46161   1.46467   1.46467   1.65576   2.14634

 Mulliken charges and spin densities:
               1          2
     1  H    0.314652   0.001979
     2  H    0.000901   0.999056
     3  F   -0.315553  -0.001035
 Sum of Mulliken charges =   0.00000   1.00000

 Dipole moment (field-independent basis, Debye):
    X=             -2.8373    Y=             -0.0000    Z=             -0.0000  Tot=              2.8373
 Quadrupole moment (field-independent basis, Debye-Ang):
   XX=            -11.1047   YY=             -7.4584   ZZ=             -7.4584
   XY=             -0.0000   XZ=             -0.0000   YZ=              0.0000

  Exact polarizability:      21.550      -0.000       2.067       0.000      -0.000       2.067
 Approx polarizability:      57.954       0.000       1.975       0.000      -0.000       1.975

 ******    2 imaginary frequencies (negative Signs) ******

                      1                      2                      3
                      A                      A                      A
 Frequencies --  -1157.1577               -58.2575               803.2008
 Red. masses --      1.0580                 1.0536                 1.0296
 Frc consts  --      0.8346                 0.0021                 0.3913
 IR Inten    --     28.2528                 0.0986                97.0877

                      4
                      A
 Frequencies --    803.2008
 Red. masses --      1.0296
 Frc consts  --      0.3913
 IR Inten    --     97.0877

 - Thermochemistry -
 -------------------
 Temperature   298.150 Kelvin.  Pressure   1.00000 Atm.
 Atom     1 has atomic number  1 and mass   1.00783

 Molecular mass:    21.01405 amu.
 Principal axes and moments of inertia in atomic units:
                           1         2         3
     Eigenvalues --     0.00000 120.81398 120.81398
           X            1.00000  -0.00000   0.00000
           Y            0.00000   1.00000   0.00000
           Z            0.00000   0.00000   1.00000
 This molecule is a prolate symmetric top.
 Rotational symmetry number  1.
 Rotational temperature (Kelvin)      0.71692
 Rotational constant (GHZ):          14.938182
    2 imaginary frequencies ignored.
 Zero-point vibrational energy       9608.4 (Joules/Mol)
                                    2.29647 (Kcal/Mol)
 Vibrational temperatures:   1155.63  1155.63
          (Kelvin)

 Zero-point correction=                           0.003660 (Hartree/Particle)
 Thermal correction to Energy=                    0.006175
 Thermal correction to Enthalpy=                  0.007119
 Thermal correction to Gibbs Free Energy=        -0.017030
 Sum of electronic and zero-point Energies=           -100.793378
 Sum of electronic and thermal Energies=              -100.790862
 Sum of electronic and thermal Enthalpies=            -100.789918
 Sum of electronic and thermal Free Energies=         -100.814067

                     E (Thermal)             CV                S
                      KCal/Mol        Cal/Mol-Kelvin    Cal/Mol-Kelvin
 Total                    3.875              6.259             50.826
 Electronic               0.000              0.000              1.377
 Translational            0.889              2.981             35.068
 Rotational               0.592              1.987             13.971
 Vibrational              2.394              1.291              0.409

 Normal termination of Gaussian 16 at Fri Aug 22 16:45:19 2025.
