 Gaussian 16, Revision C.01,
 Gaussian 16:  ES64L-G16RevC.01  3-Jul-2019

 -----------------------------------------
 # sp b3lyp/6-311g** Force nosymm scf=(qc)
 -----------------------------------------

 -------------------
 Title Card Required
 -------------------
 Symbolic Z-matrix:
 Charge =  0 Multiplicity = 2

                          Input orientation:
 ---------------------------------------------------------------------
 Center     Atomic      Atomic             Coordinates (Angstroms)
 Number     Number       Type             X           Y           Z
 ---------------------------------------------------------------------
      1          1           0        0.000000    0.000000    0.000000
      2          1           0       -2.300000    0.000000    0.000000
      3          9           0        3.300000    0.000000    0.000000
 ---------------------------------------------------------------------

 SCF Done:  E(UB3LYP) =  -100.766283540     a.u. after   31 cycles

 Alpha  occ. eigenvalues --  -24.75097  -1.21079  -0.54217  -0.45523  -0.45523
 Alpha  occ. eigenvalues --   -0.32973
 Alpha virt. eigenvalues --   -0.10477   0.25728   0.33354   0.88342   0.91657
 Alpha virt. eigenvalues --    0.91657   1.02418   1.24791   1.24791   1.25195
 Alpha virt. eigenvalues --    1.39534   1.39534   1.43489   2.14604   2.35712

  Beta  occ. eigenvalues --  -24.72004  -1.12199  -0.42424  -0.42424  -0.33282
  Beta virt. eigenvalues --   -0.25356  -0.09871   0.25656   0.34172   0.93139
  Beta virt. eigenvalues --    0.93139   0.97384   1.06411   1.24401   1.24401
  Beta virt. eigenvalues --    1.24756   1.40475   1.40475   1.44372   2.15484

 Mulliken charges and spin densities:
               1          2
     1  H    0.012139  -0.926001
     2  H    0.005257   0.945578
     3  F   -0.017396   0.980423
 Sum of Mulliken charges =  -0.00000   1.00000

 Dipole moment (field-independent basis, Debye):
    X=             -0.3522    Y=             -0.0000    Z=             -0.0000  Tot=              0.3522
 Quadrupole moment (field-independent basis, Debye-Ang):
   XX=             -7.2349   YY=             -7.6823   ZZ=             -7.6823
   XY=             -0.0000   XZ=             -0.0000   YZ=             -0.0000

  Exact polarizability:      43.893      -0.000       2.015      -0.000      -0.000       2.015
 Approx polarizability:      34.763      -0.000       1.927      -0.000       0.000       1.927

 ******    2 imaginary frequencies (negative Signs) ******

                      1                      2                      3
                      A                      A                      A
 Frequencies --   -895.2574              -177.4987               338.6842
 Red. masses --      1.0080                 1.1083                 1.0142
 Frc consts  --      0.4760                 0.0206                 0.0685
 IR Inten    --     12.1300                12.6097                 0.0869

                      4
                      A
 Frequencies --    338.6842
 Red. masses --      1.0142
 Frc consts  --      0.0685
 IR Inten    --      0.0869

 - Thermochemistry -
 -------------------
 Temperature   298.150 Kelvin.  Pressure   1.00000 Atm.
 Atom     1 has atomic number  1 and mass   1.00783

 Molecular mass:    21.01405 amu.
 Principal axes and moments of inertia in atomic units:
                           1         2         3
     Eigenvalues --     0.00000 138.38592 138.38592
           X            1.00000  -0.00000   0.00000
           Y            0.00000   1.00000   0.00000
           Z            0.00000   0.00000   1.00000
 This molecule is a prolate symmetric top.
 Rotational symmetry number  1.
 Rotational temperature (Kelvin)      0.62589
 Rotational constant (GHZ):          13.041365
    2 imaginary frequencies ignored.
 Zero-point vibrational energy       4051.6 (Joules/Mol)
                                    0.96835 (Kcal/Mol)
 Warning -- explicit consideration of   2 degrees of freedom as
           vibrations may cause significant error
 Vibrational temperatures:    487.29   487.29
          (Kelvin)

 Zero-point correction=                           0.001543 (Hartree/Particle)
 Thermal correction to Energy=                    0.004652
 Thermal correction to Enthalpy=                  0.005596
 Thermal correction to Gibbs Free Energy=        -0.019645
 Sum of electronic and zero-point Energies=           -100.764740
 Sum of electronic and thermal Energies=              -100.761632
 Sum of electronic and thermal Enthalpies=            -100.760688
 Sum of electronic and thermal Free Energies=         -100.785928

                     E (Thermal)             CV                S
                      KCal/Mol        Cal/Mol-Kelvin    Cal/Mol-Kelvin
 Total                    2.919              8.164             53.123
 Electronic               0.000              0.000              1.377
 Translational            0.889              2.981             35.068
 Rotational               0.592              1.987             14.241
 Vibrational              1.438              3.196              2.437
 Vibration     1          0.719              1.598              1.218
 Vibration     2          0.719              1.598              1.218

 Normal termination of Gaussian 16 at Fri Aug 22 20:48:36 2025.
