 Gaussian 16, Revision C.01,
 Gaussian 16:  ES64L-G16RevC.01  3-Jul-2019

 -----------------------------------------
 # sp b3lyp/6-311g** Force nosymm scf=(qc)
 -----------------------------------------

 -------------------
 Title Card Required
 -------------------
 Symbolic Z-matrix:
 Charge =  0 Multiplicity = 2

                          Input orientation:
 ---------------------------------------------------------------------
 Center     Atomic      Atomic             Coordinates (Angstroms)
 Number     Number       Type             X           Y           Z
 ---------------------------------------------------------------------
      1          1           0        0.000000    0.000000    0.000000
      2          1           0       -2.400000    0.000000    0.000000
      3          9           0        0.850000    0.000000    0.000000
 ---------------------------------------------------------------------

 SCF Done:  E(UB3LYP) =  -100.965803369     a.u. after    6 cycles

 Alpha  occ. eigenvalues --  -24.63748  -1.20811  -0.54983  -0.40039  -0.40039
 Alpha  occ. eigenvalues --   -0.34916
 Alpha virt. eigenvalues --    0.05880   0.25234   0.42440   0.94426   0.94426
 Alpha virt. eigenvalues --    0.97194   1.17623   1.22635   1.22635   1.38455
 Alpha virt. eigenvalues --    1.38455   1.42445   2.02780   2.14311   2.43033

  Beta  occ. eigenvalues --  -24.63730  -1.20764  -0.54904  -0.40024  -0.40024
  Beta virt. eigenvalues --   -0.09525   0.07521   0.37047   0.42556   0.94428
  Beta virt. eigenvalues --    0.94428   0.97380   1.27587   1.38412   1.38412
  Beta virt. eigenvalues --    1.44196   1.44196   1.55055   2.02988   2.40764

 Mulliken charges and spin densities:
               1          2
     1  H    0.278433   0.004260
     2  H    0.006564   0.990264
     3  F   -0.284996   0.005477
 Sum of Mulliken charges =   0.00000   1.00000

 Dipole moment (field-independent basis, Debye):
    X=             -1.8912    Y=              0.0000    Z=             -0.0000  Tot=              1.8912
 Quadrupole moment (field-independent basis, Debye-Ang):
   XX=             -7.5239   YY=             -6.8091   ZZ=             -6.8091
   XY=              0.0000   XZ=             -0.0000   YZ=             -0.0000

  Exact polarizability:       7.114       0.000       2.469      -0.000      -0.000       2.469
 Approx polarizability:       7.545      -0.000       2.454       0.000      -0.000       2.454

 ******    2 imaginary frequencies (negative Signs) ******

                      1                      2                      3
                      A                      A                      A
 Frequencies --  -1312.0271             -1312.0271                91.4370
 Red. masses --      1.0336                 1.0336                 1.0532
 Frc consts  --      1.0483                 1.0483                 0.0052
 IR Inten    --    171.2464               171.2464                 0.5791

                      4
                      A
 Frequencies --   5305.3429
 Red. masses --      1.0584
 Frc consts  --     17.5517
 IR Inten    --    134.1947

 - Thermochemistry -
 -------------------
 Temperature   298.150 Kelvin.  Pressure   1.00000 Atm.
 Atom     1 has atomic number  1 and mass   1.00783

 Molecular mass:    21.01405 amu.
 Principal axes and moments of inertia in atomic units:
                           1         2         3
     Eigenvalues --     0.00000  37.71329  37.71329
           X            1.00000  -0.00000   0.00000
           Y            0.00000   1.00000   0.00000
           Z            0.00000   0.00000   1.00000
 This molecule is a prolate symmetric top.
 Rotational symmetry number  1.
 Rotational temperature (Kelvin)      2.29664
 Rotational constant (GHZ):          47.854251
    2 imaginary frequencies ignored.
 Zero-point vibrational energy      32279.9 (Joules/Mol)
                                    7.71508 (Kcal/Mol)
 Warning -- explicit consideration of   1 degrees of freedom as
           vibrations may cause significant error
 Vibrational temperatures:    131.56  7633.21
          (Kelvin)

 Zero-point correction=                           0.012295 (Hartree/Particle)
 Thermal correction to Energy=                    0.015406
 Thermal correction to Enthalpy=                  0.016351
 Thermal correction to Gibbs Free Energy=        -0.008229
 Sum of electronic and zero-point Energies=           -100.953509
 Sum of electronic and thermal Energies=              -100.950397
 Sum of electronic and thermal Enthalpies=            -100.949453
 Sum of electronic and thermal Free Energies=         -100.974032

                     E (Thermal)             CV                S
                      KCal/Mol        Cal/Mol-Kelvin    Cal/Mol-Kelvin
 Total                    9.668              6.923             51.732
 Electronic               0.000              0.000              1.377
 Translational            0.889              2.981             35.068
 Rotational               0.592              1.987             11.657
 Vibrational              8.186              1.955              3.629
 Vibration     1          0.602              1.955              3.629

 Normal termination of Gaussian 16 at Fri Aug 22 15:53:43 2025.
