 Gaussian 16, Revision C.01,
 Gaussian 16:  ES64L-G16RevC.01  3-Jul-2019

 -----------------------------------------
 # sp b3lyp/6-311g** Force nosymm scf=(qc)
 -----------------------------------------

 -------------------
 Title Card Required
 -------------------
 Symbolic Z-matrix:
 Charge =  0 Multiplicity = 2

                          Input orientation:
 ---------------------------------------------------------------------
 Center     Atomic      Atomic             Coordinates (Angstroms)
 Number     Number       Type             X           Y           Z
 ---------------------------------------------------------------------
      1          1           0        0.000000    0.000000    0.000000
      2          1           0       -2.250000    0.000000    0.000000
      3          9           0        3.900000    0.000000    0.000000
 ---------------------------------------------------------------------

 SCF Done:  E(UB3LYP) =  -100.766413796     a.u. after  136 cycles

 Alpha  occ. eigenvalues --  -24.75891  -1.21818  -0.55016  -0.46196  -0.46196
 Alpha  occ. eigenvalues --   -0.32700
 Alpha virt. eigenvalues --   -0.10057   0.25983   0.33850   0.86661   0.91155
 Alpha virt. eigenvalues --    0.91155   1.01111   1.24625   1.25104   1.25104
 Alpha virt. eigenvalues --    1.39993   1.39993   1.44832   2.14579   2.35430

  Beta  occ. eigenvalues --  -24.72747  -1.12778  -0.43044  -0.43044  -0.32800
  Beta virt. eigenvalues --   -0.25758  -0.09879   0.25836   0.34109   0.92654
  Beta virt. eigenvalues --    0.92654   0.96028   1.05236   1.24533   1.24994
  Beta virt. eigenvalues --    1.24994   1.40238   1.40238   1.45038   2.14747

 Mulliken charges and spin densities:
               1          2
     1  H    0.000968  -0.932102
     2  H    0.001787   0.935301
     3  F   -0.002755   0.996800
 Sum of Mulliken charges =   0.00000   1.00000

 Dipole moment (field-independent basis, Debye):
    X=             -0.0741    Y=              0.0000    Z=             -0.0000  Tot=              0.0741
 Quadrupole moment (field-independent basis, Debye-Ang):
   XX=             -6.5605   YY=             -7.6939   ZZ=             -7.6939
   XY=              0.0000   XZ=             -0.0000   YZ=             -0.0000

  Exact polarizability:      25.989       0.000       2.015      -0.000       0.000       2.015
 Approx polarizability:      21.245       0.000       1.932      -0.000       0.000       1.932

 ******    2 imaginary frequencies (negative Signs) ******

                      1                      2                      3
                      A                      A                      A
 Frequencies --   -948.0058               -78.4764               365.4723
 Red. masses --      1.0078                 1.1085                 1.0127
 Frc consts  --      0.5337                 0.0040                 0.0797
 IR Inten    --      0.9221                 1.0310                 0.0001

                      4
                      A
 Frequencies --    365.4723
 Red. masses --      1.0127
 Frc consts  --      0.0797
 IR Inten    --      0.0001

 - Thermochemistry -
 -------------------
 Temperature   298.150 Kelvin.  Pressure   1.00000 Atm.
 Atom     1 has atomic number  1 and mass   1.00783

 Molecular mass:    21.01405 amu.
 Principal axes and moments of inertia in atomic units:
                           1         2         3
     Eigenvalues --     0.00000 173.43069 173.43069
           X            1.00000  -0.00000   0.00000
           Y            0.00000   1.00000   0.00000
           Z            0.00000   0.00000   1.00000
 This molecule is a prolate symmetric top.
 Rotational symmetry number  1.
 Rotational temperature (Kelvin)      0.49942
 Rotational constant (GHZ):          10.406124
    2 imaginary frequencies ignored.
 Zero-point vibrational energy       4372.0 (Joules/Mol)
                                    1.04494 (Kcal/Mol)
 Warning -- explicit consideration of   2 degrees of freedom as
           vibrations may cause significant error
 Vibrational temperatures:    525.83   525.83
          (Kelvin)

 Zero-point correction=                           0.001665 (Hartree/Particle)
 Thermal correction to Energy=                    0.004715
 Thermal correction to Enthalpy=                  0.005659
 Thermal correction to Gibbs Free Energy=        -0.019681
 Sum of electronic and zero-point Energies=           -100.764749
 Sum of electronic and thermal Energies=              -100.761699
 Sum of electronic and thermal Enthalpies=            -100.760755
 Sum of electronic and thermal Free Energies=         -100.786095

                     E (Thermal)             CV                S
                      KCal/Mol        Cal/Mol-Kelvin    Cal/Mol-Kelvin
 Total                    2.959              8.055             53.332
 Electronic               0.000              0.000              1.377
 Translational            0.889              2.981             35.068
 Rotational               0.592              1.987             14.689
 Vibrational              1.477              3.087              2.197
 Vibration     1          0.739              1.543              1.099
 Vibration     2          0.739              1.543              1.099

 Normal termination of Gaussian 16 at Sat Aug 23 01:24:36 2025.
