 Gaussian 16, Revision C.01,
 Gaussian 16:  ES64L-G16RevC.01  3-Jul-2019

 -----------------------------------------
 # sp b3lyp/6-311g** Force nosymm scf=(qc)
 -----------------------------------------

 -------------------
 Title Card Required
 -------------------
 Symbolic Z-matrix:
 Charge =  0 Multiplicity = 2

                          Input orientation:
 ---------------------------------------------------------------------
 Center     Atomic      Atomic             Coordinates (Angstroms)
 Number     Number       Type             X           Y           Z
 ---------------------------------------------------------------------
      1          1           0        0.000000    0.000000    0.000000
      2          1           0       -3.200000    0.000000    0.000000
      3          9           0        3.700000    0.000000    0.000000
 ---------------------------------------------------------------------

 SCF Done:  E(UB3LYP) =  -100.759241711     a.u. after   32 cycles

 Alpha  occ. eigenvalues --  -24.75665  -1.21607  -0.54789  -0.46001  -0.46001
 Alpha  occ. eigenvalues --   -0.32343
 Alpha virt. eigenvalues --   -0.07379   0.24701   0.36803   0.87065   0.91306
 Alpha virt. eigenvalues --    0.91306   1.01401   1.25176   1.25176   1.25580
 Alpha virt. eigenvalues --    1.44656   1.44845   1.44845   2.15497   2.40241

  Beta  occ. eigenvalues --  -24.72533  -1.12605  -0.42862  -0.42862  -0.32653
  Beta virt. eigenvalues --   -0.25627  -0.07017   0.24500   0.37372   0.92801
  Beta virt. eigenvalues --    0.92801   0.96325   1.05477   1.24826   1.24826
  Beta virt. eigenvalues --    1.25208   1.45222   1.45413   1.45413   2.15623

 Mulliken charges and spin densities:
               1          2
     1  H    0.006116  -0.988396
     2  H    0.000264   0.995467
     3  F   -0.006381   0.992928
 Sum of Mulliken charges =   0.00000   1.00000

 Dipole moment (field-independent basis, Debye):
    X=             -0.1257    Y=              0.0000    Z=             -0.0000  Tot=              0.1257
 Quadrupole moment (field-independent basis, Debye-Ang):
   XX=             -7.1044   YY=             -7.6293   ZZ=             -7.6293
   XY=              0.0000   XZ=             -0.0000   YZ=              0.0000

  Exact polarizability:      19.303       0.000       2.026       0.000      -0.000       2.026
 Approx polarizability:      14.388       0.000       1.934      -0.000      -0.000       1.934

 ******    2 imaginary frequencies (negative Signs) ******

                      1                      2                      3
                      A                      A                      A
 Frequencies --   -278.7647              -101.8283                96.8304
 Red. masses --      1.0110                 1.1047                 1.0163
 Frc consts  --      0.0463                 0.0067                 0.0056
 IR Inten    --      3.4487                 1.8227                 0.0358

                      4
                      A
 Frequencies --     96.8304
 Red. masses --      1.0163
 Frc consts  --      0.0056
 IR Inten    --      0.0358

 - Thermochemistry -
 -------------------
 Temperature   298.150 Kelvin.  Pressure   1.00000 Atm.
 Atom     1 has atomic number  1 and mass   1.00783

 Molecular mass:    21.01405 amu.
 Principal axes and moments of inertia in atomic units:
                           1         2         3
     Eigenvalues --     0.00000 201.22511 201.22511
           X            1.00000  -0.00000   0.00000
           Y            0.00000   1.00000   0.00000
           Z            0.00000   0.00000   1.00000
 This molecule is a prolate symmetric top.
 Rotational symmetry number  1.
 Rotational temperature (Kelvin)      0.43043
 Rotational constant (GHZ):           8.968767
    2 imaginary frequencies ignored.
 Zero-point vibrational energy       1158.3 (Joules/Mol)
                                    0.27685 (Kcal/Mol)
 Warning -- explicit consideration of   2 degrees of freedom as
           vibrations may cause significant error
 Vibrational temperatures:    139.32   139.32
          (Kelvin)

 Zero-point correction=                           0.000441 (Hartree/Particle)
 Thermal correction to Energy=                    0.004283
 Thermal correction to Enthalpy=                  0.005227
 Thermal correction to Gibbs Free Energy=        -0.022551
 Sum of electronic and zero-point Energies=           -100.758801
 Sum of electronic and thermal Energies=              -100.754959
 Sum of electronic and thermal Enthalpies=            -100.754014
 Sum of electronic and thermal Free Energies=         -100.781793

                     E (Thermal)             CV                S
                      KCal/Mol        Cal/Mol-Kelvin    Cal/Mol-Kelvin
 Total                    2.688              8.871             58.464
 Electronic               0.000              0.000              1.377
 Translational            0.889              2.981             35.068
 Rotational               0.592              1.987             14.985
 Vibrational              1.206              3.903              7.034
 Vibration     1          0.603              1.951              3.517
 Vibration     2          0.603              1.951              3.517

 Normal termination of Gaussian 16 at Sat Aug 23 00:04:26 2025.
