 Gaussian 16, Revision C.01,
 Gaussian 16:  ES64L-G16RevC.01  3-Jul-2019

 -----------------------------------------
 # sp b3lyp/6-311g** Force nosymm scf=(qc)
 -----------------------------------------

 -------------------
 Title Card Required
 -------------------
 Symbolic Z-matrix:
 Charge =  0 Multiplicity = 2

                          Input orientation:
 ---------------------------------------------------------------------
 Center     Atomic      Atomic             Coordinates (Angstroms)
 Number     Number       Type             X           Y           Z
 ---------------------------------------------------------------------
      1          1           0        0.000000    0.000000    0.000000
      2          1           0       -1.300000    0.000000    0.000000
      3          9           0        1.000000    0.000000    0.000000
 ---------------------------------------------------------------------

 SCF Done:  E(UB3LYP) =  -100.965989668     a.u. after    6 cycles

 Alpha  occ. eigenvalues --  -24.63736  -1.16153  -0.54295  -0.38553  -0.38553
 Alpha  occ. eigenvalues --   -0.37109
 Alpha virt. eigenvalues --    0.09841   0.19865   0.36762   0.93222   0.93222
 Alpha virt. eigenvalues --    0.98597   1.11595   1.11595   1.26791   1.47693
 Alpha virt. eigenvalues --    1.47693   1.55131   2.11108   2.29743   2.61916

  Beta  occ. eigenvalues --  -24.63258  -1.14954  -0.51152  -0.38129  -0.38129
  Beta virt. eigenvalues --   -0.17341   0.12075   0.24342   0.41254   0.93790
  Beta virt. eigenvalues --    0.93790   0.99603   1.20104   1.20104   1.33759
  Beta virt. eigenvalues --    1.52957   1.52957   1.58877   2.23529   2.32413

 Mulliken charges and spin densities:
               1          2
     1  H    0.287064  -0.010055
     2  H    0.035364   0.884840
     3  F   -0.322428   0.125215
 Sum of Mulliken charges =   0.00000   1.00000

 Dipole moment (field-independent basis, Debye):
    X=             -2.2425    Y=             -0.0000    Z=              0.0000  Tot=              2.2425
 Quadrupole moment (field-independent basis, Debye-Ang):
   XX=             -7.6555   YY=             -6.7860   ZZ=             -6.7860
   XY=             -0.0000   XZ=              0.0000   YZ=             -0.0000

  Exact polarizability:      13.999       0.000       2.547      -0.000       0.000       2.547
 Approx polarizability:      15.659      -0.000       2.551      -0.000       0.000       2.551

                      1                      2                      3
                      A                      A                      A
 Frequencies --    504.5875               742.3516               742.3516
 Red. masses --      1.0401                 1.0214                 1.0214
 Frc consts  --      0.1560                 0.3316                 0.3316
 IR Inten    --      3.7475                83.5506                83.5506

                      4
                      A
 Frequencies --   2601.9852
 Red. masses --      1.0719
 Frc consts  --      4.2760
 IR Inten    --    122.9820

 - Thermochemistry -
 -------------------
 Temperature   298.150 Kelvin.  Pressure   1.00000 Atm.
 Atom     1 has atomic number  1 and mass   1.00783

 Molecular mass:    21.01405 amu.
 Principal axes and moments of inertia in atomic units:
                           1         2         3
     Eigenvalues --     0.00000  20.75807  20.75807
           X            1.00000  -0.00000   0.00000
           Y            0.00000   1.00000   0.00000
           Z            0.00000   0.00000   1.00000
 This molecule is a prolate symmetric top.
 Rotational symmetry number  1.
 Rotational temperature (Kelvin)      4.17254
 Rotational constant (GHZ):          86.941648
 Zero-point vibrational energy      27461.9 (Joules/Mol)
                                    6.56356 (Kcal/Mol)
 Warning -- explicit consideration of   1 degrees of freedom as
           vibrations may cause significant error
 Vibrational temperatures:    725.99  1068.08  1068.08  3743.68
          (Kelvin)

 Zero-point correction=                           0.010460 (Hartree/Particle)
 Thermal correction to Energy=                    0.013234
 Thermal correction to Enthalpy=                  0.014179
 Thermal correction to Gibbs Free Energy=        -0.008667
 Sum of electronic and zero-point Energies=           -100.955530
 Sum of electronic and thermal Energies=              -100.952755
 Sum of electronic and thermal Enthalpies=            -100.951811
 Sum of electronic and thermal Free Energies=         -100.974657

                     E (Thermal)             CV                S
                      KCal/Mol        Cal/Mol-Kelvin    Cal/Mol-Kelvin
 Total                    8.305              7.710             48.082
 Electronic               0.000              0.000              1.377
 Translational            0.889              2.981             35.068
 Rotational               0.592              1.987             10.471
 Vibrational              6.824              2.742              1.166
 Vibration     1          0.860              1.240              0.647

 Normal termination of Gaussian 16 at Fri Aug 22 16:00:04 2025.
