 Gaussian 16, Revision C.01,
 Gaussian 16:  ES64L-G16RevC.01  3-Jul-2019

 -----------------------------------------
 # sp b3lyp/6-311g** Force nosymm scf=(qc)
 -----------------------------------------

 -------------------
 Title Card Required
 -------------------
 Symbolic Z-matrix:
 Charge =  0 Multiplicity = 2

                          Input orientation:
 ---------------------------------------------------------------------
 Center     Atomic      Atomic             Coordinates (Angstroms)
 Number     Number       Type             X           Y           Z
 ---------------------------------------------------------------------
      1          1           0        0.000000    0.000000    0.000000
      2          1           0       -1.750000    0.000000    0.000000
      3          9           0        2.700000    0.000000    0.000000
 ---------------------------------------------------------------------

 SCF Done:  E(UB3LYP) =  -100.793911021     a.u. after   22 cycles

 Alpha  occ. eigenvalues --  -24.73428  -1.19530  -0.52556  -0.44124  -0.44124
 Alpha  occ. eigenvalues --   -0.34763
 Alpha virt. eigenvalues --   -0.12086   0.24749   0.30889   0.90094   0.92647
 Alpha virt. eigenvalues --    0.92647   1.04259   1.10816   1.22494   1.22494
 Alpha virt. eigenvalues --    1.35971   1.35971   1.62636   2.14030   2.40195

  Beta  occ. eigenvalues --  -24.70462  -1.11046  -0.41158  -0.41158  -0.34591
  Beta virt. eigenvalues --   -0.24617  -0.11549   0.26052   0.30715   0.94079
  Beta virt. eigenvalues --    0.94079   0.97745   1.06591   1.13554   1.22751
  Beta virt. eigenvalues --    1.22751   1.36597   1.36597   1.63245   2.15087

 Mulliken charges and spin densities:
               1          2
     1  H    0.023274  -0.638081
     2  H    0.029224   0.699107
     3  F   -0.052499   0.938974
 Sum of Mulliken charges =   0.00000   1.00000

 Dipole moment (field-independent basis, Debye):
    X=             -0.9681    Y=             -0.0000    Z=             -0.0000  Tot=              0.9681
 Quadrupole moment (field-independent basis, Debye-Ang):
   XX=             -7.3093   YY=             -7.7126   ZZ=             -7.7126
   XY=             -0.0000   XZ=             -0.0000   YZ=             -0.0000

  Exact polarizability:      63.497      -0.000       2.013      -0.000      -0.000       2.013
 Approx polarizability:      73.288      -0.000       1.960      -0.000       0.000       1.960

 ******    2 imaginary frequencies (negative Signs) ******

                      1                      2                      3
                      A                      A                      A
 Frequencies --  -1833.3033              -307.2718               817.2854
 Red. masses --      1.0081                 1.1082                 1.0135
 Frc consts  --      1.9963                 0.0616                 0.3989
 IR Inten    --    157.5385                41.9713                 0.0988

                      4
                      A
 Frequencies --    817.2854
 Red. masses --      1.0135
 Frc consts  --      0.3989
 IR Inten    --      0.0988

 - Thermochemistry -
 -------------------
 Temperature   298.150 Kelvin.  Pressure   1.00000 Atm.
 Atom     1 has atomic number  1 and mass   1.00783

 Molecular mass:    21.01405 amu.
 Principal axes and moments of inertia in atomic units:
                           1         2         3
     Eigenvalues --     0.00000  88.68204  88.68204
           X            1.00000  -0.00000   0.00000
           Y            0.00000   1.00000   0.00000
           Z            0.00000   0.00000   1.00000
 This molecule is a prolate symmetric top.
 Rotational symmetry number  1.
 Rotational temperature (Kelvin)      0.97668
 Rotational constant (GHZ):          20.350695
    2 imaginary frequencies ignored.
 Zero-point vibrational energy       9776.9 (Joules/Mol)
                                    2.33674 (Kcal/Mol)
 Vibrational temperatures:   1175.89  1175.89
          (Kelvin)

 Zero-point correction=                           0.003724 (Hartree/Particle)
 Thermal correction to Energy=                    0.006231
 Thermal correction to Enthalpy=                  0.007176
 Thermal correction to Gibbs Free Energy=        -0.016671
 Sum of electronic and zero-point Energies=           -100.790187
 Sum of electronic and thermal Energies=              -100.787680
 Sum of electronic and thermal Enthalpies=            -100.786735
 Sum of electronic and thermal Free Energies=         -100.810582

                     E (Thermal)             CV                S
                      KCal/Mol        Cal/Mol-Kelvin    Cal/Mol-Kelvin
 Total                    3.910              6.213             50.189
 Electronic               0.000              0.000              1.377
 Translational            0.889              2.981             35.068
 Rotational               0.592              1.987             13.356
 Vibrational              2.429              1.245              0.387

 Normal termination of Gaussian 16 at Fri Aug 22 18:25:06 2025.
