 Gaussian 16, Revision C.01,
 Gaussian 16:  ES64L-G16RevC.01  3-Jul-2019

 -----------------------------------------
 # sp b3lyp/6-311g** Force nosymm scf=(qc)
 -----------------------------------------

 -------------------
 Title Card Required
 -------------------
 Symbolic Z-matrix:
 Charge =  0 Multiplicity = 2

                          Input orientation:
 ---------------------------------------------------------------------
 Center     Atomic      Atomic             Coordinates (Angstroms)
 Number     Number       Type             X           Y           Z
 ---------------------------------------------------------------------
      1          1           0        0.000000    0.000000    0.000000
      2          1           0       -3.400000    0.000000    0.000000
      3          9           0        2.400000    0.000000    0.000000
 ---------------------------------------------------------------------

 SCF Done:  E(UB3LYP) =  -100.769263917     a.u. after   19 cycles

 Alpha  occ. eigenvalues --  -24.68247  -1.09400  -0.39349  -0.39349  -0.35857
 Alpha  occ. eigenvalues --   -0.32891
 Alpha virt. eigenvalues --   -0.22872   0.21143   0.28118   0.94601   0.95292
 Alpha virt. eigenvalues --    0.95292   1.08496   1.21817   1.21817   1.24498
 Alpha virt. eigenvalues --    1.24498   1.24612   1.33122   2.11728   2.15638

  Beta  occ. eigenvalues --  -24.71024  -1.17282  -0.50115  -0.42112  -0.42112
  Beta virt. eigenvalues --   -0.11293  -0.04416   0.32760   0.40342   0.89390
  Beta virt. eigenvalues --    0.93989   0.93989   1.06459   1.39559   1.39559
  Beta virt. eigenvalues --    1.46043   1.48201   1.48201   1.48617   2.35680

 Mulliken charges and spin densities:
               1          2
     1  H    0.106743   0.877513
     2  H    0.001271   0.998750
     3  F   -0.108015  -0.876263
 Sum of Mulliken charges =   0.00000   1.00000

 Dipole moment (field-independent basis, Debye):
    X=             -1.3336    Y=              0.0000    Z=              0.0000  Tot=              1.3336
 Quadrupole moment (field-independent basis, Debye-Ang):
   XX=             -9.5578   YY=             -7.5458   ZZ=             -7.5458
   XY=              0.0000   XZ=              0.0000   YZ=              0.0000

  Exact polarizability:      31.609       0.000       2.030       0.000      -0.000       2.030
 Approx polarizability:      41.482       0.000       1.923       0.000      -0.000       1.923

 ******    1 imaginary frequencies (negative Signs) ******

                      1                      2                      3
                      A                      A                      A
 Frequencies --   -667.6777                94.7307               267.2767
 Red. masses --      1.0609                 1.0507                 1.0227
 Frc consts  --      0.2786                 0.0056                 0.0430
 IR Inten    --     80.4467                 0.1941                10.7747

                      4
                      A
 Frequencies --    267.2767
 Red. masses --      1.0227
 Frc consts  --      0.0430
 IR Inten    --     10.7747

 - Thermochemistry -
 -------------------
 Temperature   298.150 Kelvin.  Pressure   1.00000 Atm.
 Atom     1 has atomic number  1 and mass   1.00783

 Molecular mass:    21.01405 amu.
 Principal axes and moments of inertia in atomic units:
                           1         2         3
     Eigenvalues --     0.00000 130.19485 130.19485
           X            1.00000  -0.00000   0.00000
           Y            0.00000   1.00000   0.00000
           Z            0.00000   0.00000   1.00000
 This molecule is a prolate symmetric top.
 Rotational symmetry number  1.
 Rotational temperature (Kelvin)      0.66526
 Rotational constant (GHZ):          13.861848
    1 imaginary frequencies ignored.
 Zero-point vibrational energy       3764.0 (Joules/Mol)
                                    0.89961 (Kcal/Mol)
 Warning -- explicit consideration of   3 degrees of freedom as
           vibrations may cause significant error
 Vibrational temperatures:    136.30   384.55   384.55
          (Kelvin)

 Zero-point correction=                           0.001434 (Hartree/Particle)
 Thermal correction to Energy=                    0.005464
 Thermal correction to Enthalpy=                  0.006408
 Thermal correction to Gibbs Free Energy=        -0.020842
 Sum of electronic and zero-point Energies=           -100.767830
 Sum of electronic and thermal Energies=              -100.763800
 Sum of electronic and thermal Enthalpies=            -100.762856
 Sum of electronic and thermal Free Energies=         -100.790105

                     E (Thermal)             CV                S
                      KCal/Mol        Cal/Mol-Kelvin    Cal/Mol-Kelvin
 Total                    3.429             10.387             57.352
 Electronic               0.000              0.000              1.377
 Translational            0.889              2.981             35.068
 Rotational               0.592              1.987             14.119
 Vibrational              1.948              5.419              6.787
 Vibration     1          0.603              1.953              3.560
 Vibration     2          0.672              1.733              1.614
 Vibration     3          0.672              1.733              1.614

 Normal termination of Gaussian 16 at Fri Aug 22 17:33:27 2025.
