 Gaussian 16, Revision C.01,
 Gaussian 16:  ES64L-G16RevC.01  3-Jul-2019

 -----------------------------------------
 # sp b3lyp/6-311g** Force nosymm scf=(qc)
 -----------------------------------------

 -------------------
 Title Card Required
 -------------------
 Symbolic Z-matrix:
 Charge =  0 Multiplicity = 2

                          Input orientation:
 ---------------------------------------------------------------------
 Center     Atomic      Atomic             Coordinates (Angstroms)
 Number     Number       Type             X           Y           Z
 ---------------------------------------------------------------------
      1          1           0        0.000000    0.000000    0.000000
      2          1           0       -1.950000    0.000000    0.000000
      3          9           0        3.250000    0.000000    0.000000
 ---------------------------------------------------------------------

 SCF Done:  E(UB3LYP) =  -100.777489102     a.u. after   28 cycles

 Alpha  occ. eigenvalues --  -24.75142  -1.21122  -0.54264  -0.45564  -0.45564
 Alpha  occ. eigenvalues --   -0.33406
 Alpha virt. eigenvalues --   -0.11380   0.25686   0.31704   0.88565   0.91619
 Alpha virt. eigenvalues --    0.91619   1.02596   1.14956   1.24555   1.24555
 Alpha virt. eigenvalues --    1.37184   1.37184   1.52987   2.12961   2.37252

  Beta  occ. eigenvalues --  -24.72051  -1.12244  -0.42467  -0.42467  -0.33473
  Beta virt. eigenvalues --   -0.25423  -0.11026   0.25774   0.32213   0.93100
  Beta virt. eigenvalues --    0.93100   0.97558   1.06582   1.14963   1.24451
  Beta virt. eigenvalues --    1.24451   1.37682   1.37682   1.53376   2.13841

 Mulliken charges and spin densities:
               1          2
     1  H    0.006968  -0.814259
     2  H    0.010291   0.834151
     3  F   -0.017259   0.980108
 Sum of Mulliken charges =  -0.00000   1.00000

 Dipole moment (field-independent basis, Debye):
    X=             -0.3827    Y=             -0.0000    Z=             -0.0000  Tot=              0.3827
 Quadrupole moment (field-independent basis, Debye-Ang):
   XX=             -6.8411   YY=             -7.7282   ZZ=             -7.7282
   XY=             -0.0000   XZ=             -0.0000   YZ=              0.0000

  Exact polarizability:      53.018      -0.000       2.010      -0.000      -0.000       2.010
 Approx polarizability:      47.819      -0.000       1.939      -0.000       0.000       1.939

 ******    2 imaginary frequencies (negative Signs) ******

                      1                      2                      3
                      A                      A                      A
 Frequencies --  -1452.0577              -180.4858               598.7385
 Red. masses --      1.0079                 1.1085                 1.0129
 Frc consts  --      1.2521                 0.0213                 0.2139
 IR Inten    --     26.1124                15.6792                 0.0066

                      4
                      A
 Frequencies --    598.7385
 Red. masses --      1.0129
 Frc consts  --      0.2139
 IR Inten    --      0.0066

 - Thermochemistry -
 -------------------
 Temperature   298.150 Kelvin.  Pressure   1.00000 Atm.
 Atom     1 has atomic number  1 and mass   1.00783

 Molecular mass:    21.01405 amu.
 Principal axes and moments of inertia in atomic units:
                           1         2         3
     Eigenvalues --     0.00000 123.00715 123.00715
           X            1.00000  -0.00000   0.00000
           Y            0.00000   1.00000   0.00000
           Z            0.00000   0.00000   1.00000
 This molecule is a prolate symmetric top.
 Rotational symmetry number  1.
 Rotational temperature (Kelvin)      0.70414
 Rotational constant (GHZ):          14.671839
    2 imaginary frequencies ignored.
 Zero-point vibrational energy       7162.5 (Joules/Mol)
                                    1.71188 (Kcal/Mol)
 Warning -- explicit consideration of   2 degrees of freedom as
           vibrations may cause significant error
 Vibrational temperatures:    861.45   861.45
          (Kelvin)

 Zero-point correction=                           0.002728 (Hartree/Particle)
 Thermal correction to Energy=                    0.005410
 Thermal correction to Enthalpy=                  0.006354
 Thermal correction to Gibbs Free Energy=        -0.018047
 Sum of electronic and zero-point Energies=           -100.774761
 Sum of electronic and thermal Energies=              -100.772079
 Sum of electronic and thermal Enthalpies=            -100.771135
 Sum of electronic and thermal Free Energies=         -100.795536

                     E (Thermal)             CV                S
                      KCal/Mol        Cal/Mol-Kelvin    Cal/Mol-Kelvin
 Total                    3.395              7.037             51.356
 Electronic               0.000              0.000              1.377
 Translational            0.889              2.981             35.068
 Rotational               0.592              1.987             14.007
 Vibrational              1.914              2.069              0.904
 Vibration     1          0.957              1.034              0.452
 Vibration     2          0.957              1.034              0.452

 Normal termination of Gaussian 16 at Fri Aug 22 20:34:20 2025.
