 Gaussian 16, Revision C.01,
 Gaussian 16:  ES64L-G16RevC.01  3-Jul-2019

 -----------------------------------------
 # sp b3lyp/6-311g** Force nosymm scf=(qc)
 -----------------------------------------

 -------------------
 Title Card Required
 -------------------
 Symbolic Z-matrix:
 Charge =  0 Multiplicity = 2

                          Input orientation:
 ---------------------------------------------------------------------
 Center     Atomic      Atomic             Coordinates (Angstroms)
 Number     Number       Type             X           Y           Z
 ---------------------------------------------------------------------
      1          1           0        0.000000    0.000000    0.000000
      2          1           0       -2.200000    0.000000    0.000000
      3          9           0        1.750000    0.000000    0.000000
 ---------------------------------------------------------------------

 SCF Done:  E(UB3LYP) =  -100.817156289     a.u. after   19 cycles

 Alpha  occ. eigenvalues --  -24.65856  -1.12049  -0.44851  -0.37701  -0.37701
 Alpha  occ. eigenvalues --   -0.36454
 Alpha virt. eigenvalues --   -0.13961   0.23681   0.28957   0.94522   0.94948
 Alpha virt. eigenvalues --    0.94948   1.06024   1.21266   1.21266   1.27272
 Alpha virt. eigenvalues --    1.33665   1.33665   1.71133   2.11195   2.26386

  Beta  occ. eigenvalues --  -24.64080  -1.07179  -0.39246  -0.35973  -0.35973
  Beta virt. eigenvalues --   -0.19500  -0.10407   0.25056   0.33105   0.94905
  Beta virt. eigenvalues --    0.94905   0.96139   1.08471   1.25288   1.25288
  Beta virt. eigenvalues --    1.38364   1.38364   1.42282   1.67586   2.12778

 Mulliken charges and spin densities:
               1          2
     1  H    0.235768  -0.498807
     2  H    0.036262   0.940425
     3  F   -0.272029   0.558383
 Sum of Mulliken charges =   0.00000   1.00000

 Dipole moment (field-independent basis, Debye):
    X=             -2.7078    Y=             -0.0000    Z=             -0.0000  Tot=              2.7078
 Quadrupole moment (field-independent basis, Debye-Ang):
   XX=             -9.1497   YY=             -7.4521   ZZ=             -7.4521
   XY=             -0.0000   XZ=             -0.0000   YZ=             -0.0000

  Exact polarizability:      37.886      -0.000       2.120      -0.000       0.000       2.120
 Approx polarizability:      48.478       0.000       2.022       0.000       0.000       2.022

 ******    2 imaginary frequencies (negative Signs) ******

                      1                      2                      3
                      A                      A                      A
 Frequencies --  -1746.3844              -498.2958               735.5361
 Red. masses --      1.0412                 1.0707                 1.0209
 Frc consts  --      1.8710                 0.1566                 0.3254
 IR Inten    --     81.3207                16.1342                41.5124

                      4
                      A
 Frequencies --    735.5361
 Red. masses --      1.0209
 Frc consts  --      0.3254
 IR Inten    --     41.5124

 - Thermochemistry -
 -------------------
 Temperature   298.150 Kelvin.  Pressure   1.00000 Atm.
 Atom     1 has atomic number  1 and mass   1.00783

 Molecular mass:    21.01405 amu.
 Principal axes and moments of inertia in atomic units:
                           1         2         3
     Eigenvalues --     0.00000  61.56750  61.56750
           X            1.00000  -0.00000   0.00000
           Y            0.00000   1.00000   0.00000
           Z            0.00000   0.00000   1.00000
 This molecule is a prolate symmetric top.
 Rotational symmetry number  1.
 Rotational temperature (Kelvin)      1.40681
 Rotational constant (GHZ):          29.313214
    2 imaginary frequencies ignored.
 Zero-point vibrational energy       8799.0 (Joules/Mol)
                                    2.10300 (Kcal/Mol)
 Vibrational temperatures:   1058.27  1058.27
          (Kelvin)

 Zero-point correction=                           0.003351 (Hartree/Particle)
 Thermal correction to Energy=                    0.005910
 Thermal correction to Enthalpy=                  0.006854
 Thermal correction to Gibbs Free Energy=        -0.016717
 Sum of electronic and zero-point Energies=           -100.813805
 Sum of electronic and thermal Energies=              -100.811246
 Sum of electronic and thermal Enthalpies=            -100.810302
 Sum of electronic and thermal Free Energies=         -100.833873

                     E (Thermal)             CV                S
                      KCal/Mol        Cal/Mol-Kelvin    Cal/Mol-Kelvin
 Total                    3.709              6.494             49.610
 Electronic               0.000              0.000              1.377
 Translational            0.889              2.981             35.068
 Rotational               0.592              1.987             12.631
 Vibrational              2.227              1.526              0.533

 Normal termination of Gaussian 16 at Fri Aug 22 16:40:38 2025.
