 Gaussian 16, Revision C.01,
 Gaussian 16:  ES64L-G16RevC.01  3-Jul-2019

 -----------------------------------------
 # sp b3lyp/6-311g** Force nosymm scf=(qc)
 -----------------------------------------

 -------------------
 Title Card Required
 -------------------
 Symbolic Z-matrix:
 Charge =  0 Multiplicity = 2

                          Input orientation:
 ---------------------------------------------------------------------
 Center     Atomic      Atomic             Coordinates (Angstroms)
 Number     Number       Type             X           Y           Z
 ---------------------------------------------------------------------
      1          1           0        0.000000    0.000000    0.000000
      2          1           0       -1.150000    0.000000    0.000000
      3          9           0        3.550000    0.000000    0.000000
 ---------------------------------------------------------------------

 SCF Done:  E(UB3LYP) =  -100.880827728     a.u. after  405 cycles

 Alpha  occ. eigenvalues --  -24.76351  -1.22225  -0.55425  -0.46617  -0.46579
 Alpha  occ. eigenvalues --   -0.36878
 Alpha virt. eigenvalues --   -0.02959   0.22498   0.35177   0.85971   0.90847
 Alpha virt. eigenvalues --    0.92127   1.01355   1.11817   1.11819   1.25887
 Alpha virt. eigenvalues --    1.57116   1.57119   2.12173   2.33100   2.55020

  Beta  occ. eigenvalues --  -24.73194  -1.13148  -0.43453  -0.43414  -0.36875
  Beta virt. eigenvalues --   -0.26067  -0.02953   0.22506   0.35209   0.92347
  Beta virt. eigenvalues --    0.93630   0.95435   1.05462   1.11816   1.11819
  Beta virt. eigenvalues --    1.25893   1.57116   1.57119   2.12179   2.33102

 Mulliken charges and spin densities:
               1          2
     1  H    0.000136  -0.000183
     2  H   -0.002915  -0.000138
     3  F    0.002779   1.000322
 Sum of Mulliken charges =  -0.00000   1.00000

 Dipole moment (field-independent basis, Debye):
    X=              0.0438    Y=             -0.0000    Z=              0.0000  Tot=              0.0438
 Quadrupole moment (field-independent basis, Debye-Ang):
   XX=             -6.2693   YY=             -6.5795   ZZ=             -7.4438
   XY=             -0.0000   XZ=              0.0000   YZ=             -0.0040

  Exact polarizability:      14.989      -0.000       2.542       0.000      -0.002       2.078
 Approx polarizability:      21.755      -0.000       2.692       0.000      -0.003       2.110

 ******    1 imaginary frequencies (negative Signs) ******

                      1                      2                      3
                      A                      A                      A
 Frequencies --    -48.4947               583.5585              1503.3439
 Red. masses --      1.1085                 1.0078                 1.0098
 Frc consts  --      0.0015                 0.2022                 1.3446
 IR Inten    --      0.1445                 0.1596                 0.0008

                      4
                      A
 Frequencies --   1504.0299
 Red. masses --      1.0098
 Frc consts  --      1.3458
 IR Inten    --      0.0008

 - Thermochemistry -
 -------------------
 Temperature   298.150 Kelvin.  Pressure   1.00000 Atm.
 Atom     1 has atomic number  1 and mass   1.00783

 Molecular mass:    21.01405 amu.
 Principal axes and moments of inertia in atomic units:
                           1         2         3
     Eigenvalues --     0.00000 113.11055 113.11055
           X            1.00000  -0.00000   0.00000
           Y            0.00000   1.00000   0.00000
           Z            0.00000   0.00000   1.00000
 This molecule is a prolate symmetric top.
 Rotational symmetry number  1.
 Rotational temperature (Kelvin)      0.76575
 Rotational constant (GHZ):          15.955552
    1 imaginary frequencies ignored.
 Zero-point vibrational energy      21478.5 (Joules/Mol)
                                    5.13350 (Kcal/Mol)
 Warning -- explicit consideration of   1 degrees of freedom as
           vibrations may cause significant error
 Vibrational temperatures:    839.61  2162.98  2163.96
          (Kelvin)

 Zero-point correction=                           0.008181 (Hartree/Particle)
 Thermal correction to Energy=                    0.010720
 Thermal correction to Enthalpy=                  0.011664
 Thermal correction to Gibbs Free Energy=        -0.012466
 Sum of electronic and zero-point Energies=           -100.872647
 Sum of electronic and thermal Energies=              -100.870108
 Sum of electronic and thermal Enthalpies=            -100.869163
 Sum of electronic and thermal Free Energies=         -100.893294

                     E (Thermal)             CV                S
                      KCal/Mol        Cal/Mol-Kelvin    Cal/Mol-Kelvin
 Total                    6.727              6.183             50.787
 Electronic               0.000              0.000              1.377
 Translational            0.889              2.981             35.068
 Rotational               0.592              1.987             13.840
 Vibrational              5.246              1.215              0.502
 Vibration     1          0.940              1.067              0.479

 Normal termination of Gaussian 16 at Fri Aug 22 22:23:38 2025.
