 Gaussian 16, Revision C.01,
 Gaussian 16:  ES64L-G16RevC.01  3-Jul-2019

 -----------------------------------------
 # sp b3lyp/6-311g** Force nosymm scf=(qc)
 -----------------------------------------

 -------------------
 Title Card Required
 -------------------
 Symbolic Z-matrix:
 Charge =  0 Multiplicity = 2

                          Input orientation:
 ---------------------------------------------------------------------
 Center     Atomic      Atomic             Coordinates (Angstroms)
 Number     Number       Type             X           Y           Z
 ---------------------------------------------------------------------
      1          1           0        0.000000    0.000000    0.000000
      2          1           0       -3.650000    0.000000    0.000000
      3          9           0        1.650000    0.000000    0.000000
 ---------------------------------------------------------------------

 SCF Done:  E(UB3LYP) =  -100.823856766     a.u. after    9 cycles

 Alpha  occ. eigenvalues --  -24.64266  -1.09003  -0.41466  -0.36089  -0.36089
 Alpha  occ. eigenvalues --   -0.33891
 Alpha virt. eigenvalues --   -0.17853   0.19887   0.27294   0.94469   0.94469
 Alpha virt. eigenvalues --    0.98601   1.07114   1.23612   1.23616   1.23616
 Alpha virt. eigenvalues --    1.28454   1.28454   1.71757   2.12662   2.16892

  Beta  occ. eigenvalues --  -24.64284  -1.09051  -0.41496  -0.36106  -0.36106
  Beta virt. eigenvalues --   -0.17905  -0.06639   0.22693   0.38150   0.94479
  Beta virt. eigenvalues --    0.94479   0.98622   1.07117   1.28577   1.28577
  Beta virt. eigenvalues --    1.45807   1.46234   1.46234   1.71844   2.15976

 Mulliken charges and spin densities:
               1          2
     1  H    0.332606   0.007188
     2  H    0.001622   0.998311
     3  F   -0.334228  -0.005499
 Sum of Mulliken charges =  -0.00000   1.00000

 Dipole moment (field-independent basis, Debye):
    X=             -2.7375    Y=              0.0000    Z=              0.0000  Tot=              2.7375
 Quadrupole moment (field-independent basis, Debye-Ang):
   XX=            -10.4656   YY=             -7.3962   ZZ=             -7.3962
   XY=              0.0000   XZ=              0.0000   YZ=             -0.0000

  Exact polarizability:      18.685       0.000       2.122      -0.000      -0.000       2.122
 Approx polarizability:      41.454       0.000       2.037      -0.000       0.000       2.037

 ******    2 imaginary frequencies (negative Signs) ******

                      1                      2                      3
                      A                      A                      A
 Frequencies --  -1188.3343               -74.7680               904.5834
 Red. masses --      1.0577                 1.0539                 1.0297
 Frc consts  --      0.8800                 0.0035                 0.4964
 IR Inten    --     36.1747                 0.2102               106.0486

                      4
                      A
 Frequencies --    904.5834
 Red. masses --      1.0297
 Frc consts  --      0.4964
 IR Inten    --    106.0486

 - Thermochemistry -
 -------------------
 Temperature   298.150 Kelvin.  Pressure   1.00000 Atm.
 Atom     1 has atomic number  1 and mass   1.00783

 Molecular mass:    21.01405 amu.
 Principal axes and moments of inertia in atomic units:
                           1         2         3
     Eigenvalues --     0.00000 102.55711 102.55711
           X            1.00000  -0.00000   0.00000
           Y            0.00000   1.00000   0.00000
           Z            0.00000   0.00000   1.00000
 This molecule is a prolate symmetric top.
 Rotational symmetry number  1.
 Rotational temperature (Kelvin)      0.84454
 Rotational constant (GHZ):          17.597427
    2 imaginary frequencies ignored.
 Zero-point vibrational energy      10821.2 (Joules/Mol)
                                    2.58633 (Kcal/Mol)
 Vibrational temperatures:   1301.49  1301.49
          (Kelvin)

 Zero-point correction=                           0.004122 (Hartree/Particle)
 Thermal correction to Energy=                    0.006588
 Thermal correction to Enthalpy=                  0.007532
 Thermal correction to Gibbs Free Energy=        -0.016398
 Sum of electronic and zero-point Energies=           -100.819735
 Sum of electronic and thermal Energies=              -100.817269
 Sum of electronic and thermal Enthalpies=            -100.816324
 Sum of electronic and thermal Free Energies=         -100.840254

                     E (Thermal)             CV                S
                      KCal/Mol        Cal/Mol-Kelvin    Cal/Mol-Kelvin
 Total                    4.134              5.956             50.365
 Electronic               0.000              0.000              1.377
 Translational            0.889              2.981             35.068
 Rotational               0.592              1.987             13.645
 Vibrational              2.653              0.988              0.274

 Normal termination of Gaussian 16 at Fri Aug 22 16:35:47 2025.
