 Gaussian 16, Revision C.01,
 Gaussian 16:  ES64L-G16RevC.01  3-Jul-2019

 -----------------------------------------
 # sp b3lyp/6-311g** Force nosymm scf=(qc)
 -----------------------------------------

 -------------------
 Title Card Required
 -------------------
 Symbolic Z-matrix:
 Charge =  0 Multiplicity = 2

                          Input orientation:
 ---------------------------------------------------------------------
 Center     Atomic      Atomic             Coordinates (Angstroms)
 Number     Number       Type             X           Y           Z
 ---------------------------------------------------------------------
      1          1           0        0.000000    0.000000    0.000000
      2          1           0       -0.800000    0.000000    0.000000
      3          9           0        2.500000    0.000000    0.000000
 ---------------------------------------------------------------------

 SCF Done:  E(UB3LYP) =  -100.932005946     a.u. after    5 cycles

 Alpha  occ. eigenvalues --  -24.75985  -1.21896  -0.55207  -0.46276  -0.46276
 Alpha  occ. eigenvalues --   -0.42906
 Alpha virt. eigenvalues --    0.04984   0.20204   0.45554   0.89785   0.90995
 Alpha virt. eigenvalues --    0.90995   1.07542   1.07542   1.11531   1.51666
 Alpha virt. eigenvalues --    1.78199   1.78199   2.05023   2.38804   3.04415

  Beta  occ. eigenvalues --  -24.72865  -1.12933  -0.43150  -0.43150  -0.42879
  Beta virt. eigenvalues --   -0.26171   0.05445   0.20499   0.45848   0.92469
  Beta virt. eigenvalues --    0.92469   0.98201   1.07693   1.07693   1.15903
  Beta virt. eigenvalues --    1.51873   1.78292   1.78292   2.05149   2.38978

 Mulliken charges and spin densities:
               1          2
     1  H   -0.013564  -0.009126
     2  H    0.017805   0.022360
     3  F   -0.004241   0.986766
 Sum of Mulliken charges =   0.00000   1.00000

 Dipole moment (field-independent basis, Debye):
    X=             -0.1283    Y=             -0.0000    Z=             -0.0000  Tot=              0.1283
 Quadrupole moment (field-independent basis, Debye-Ang):
   XX=             -5.6158   YY=             -7.0128   ZZ=             -7.0128
   XY=             -0.0000   XZ=             -0.0000   YZ=              0.0000

  Exact polarizability:      13.892       0.000       2.011      -0.000      -0.000       2.011
 Approx polarizability:      15.148       0.000       2.084      -0.000      -0.000       2.084

 ******    1 imaginary frequencies (negative Signs) ******

                      1                      2                      3
                      A                      A                      A
 Frequencies --   -125.9651              1046.2673              1046.2673
 Red. masses --      1.1085                 1.0097                 1.0097
 Frc consts  --      0.0104                 0.6512                 0.6512
 IR Inten    --      3.5136                 0.3049                 0.3049

                      4
                      A
 Frequencies --   3671.9992
 Red. masses --      1.0078
 Frc consts  --      8.0065
 IR Inten    --     37.8530

 - Thermochemistry -
 -------------------
 Temperature   298.150 Kelvin.  Pressure   1.00000 Atm.
 Atom     1 has atomic number  1 and mass   1.00783

 Molecular mass:    21.01405 amu.
 Principal axes and moments of inertia in atomic units:
                           1         2         3
     Eigenvalues --     0.00000  55.88051  55.88051
           X            1.00000  -0.00000   0.00000
           Y            0.00000   1.00000   0.00000
           Z            0.00000   0.00000   1.00000
 This molecule is a prolate symmetric top.
 Rotational symmetry number  1.
 Rotational temperature (Kelvin)      1.54998
 Rotational constant (GHZ):          32.296434
    1 imaginary frequencies ignored.
 Zero-point vibrational energy      34479.6 (Joules/Mol)
                                    8.24081 (Kcal/Mol)
 Vibrational temperatures:   1505.35  1505.35  5283.19
          (Kelvin)

 Zero-point correction=                           0.013133 (Hartree/Particle)
 Thermal correction to Energy=                    0.015555
 Thermal correction to Enthalpy=                  0.016499
 Thermal correction to Gibbs Free Energy=        -0.006801
 Sum of electronic and zero-point Energies=           -100.918873
 Sum of electronic and thermal Energies=              -100.916451
 Sum of electronic and thermal Enthalpies=            -100.915507
 Sum of electronic and thermal Free Energies=         -100.938807

                     E (Thermal)             CV                S
                      KCal/Mol        Cal/Mol-Kelvin    Cal/Mol-Kelvin
 Total                    9.761              5.626             49.039
 Electronic               0.000              0.000              1.377
 Translational            0.889              2.981             35.068
 Rotational               0.592              1.987             12.439
 Vibrational              8.279              0.658              0.155

 Normal termination of Gaussian 16 at Fri Aug 22 17:42:52 2025.
