 Gaussian 16, Revision C.01,
 Gaussian 16:  ES64L-G16RevC.01  3-Jul-2019

 -----------------------------------------
 # sp b3lyp/6-311g** Force nosymm scf=(qc)
 -----------------------------------------

 -------------------
 Title Card Required
 -------------------
 Symbolic Z-matrix:
 Charge =  0 Multiplicity = 2

                          Input orientation:
 ---------------------------------------------------------------------
 Center     Atomic      Atomic             Coordinates (Angstroms)
 Number     Number       Type             X           Y           Z
 ---------------------------------------------------------------------
      1          1           0        0.000000    0.000000    0.000000
      2          1           0       -2.100000    0.000000    0.000000
      3          9           0        3.600000    0.000000    0.000000
 ---------------------------------------------------------------------

 SCF Done:  E(UB3LYP) =  -100.770673522     a.u. after   33 cycles

 Alpha  occ. eigenvalues --  -24.75680  -1.21622  -0.54803  -0.46018  -0.46018
 Alpha  occ. eigenvalues --   -0.32942
 Alpha virt. eigenvalues --   -0.10703   0.25933   0.32879   0.87290   0.91286
 Alpha virt. eigenvalues --    0.91286   1.01502   1.20726   1.24984   1.24984
 Alpha virt. eigenvalues --    1.38611   1.38611   1.47807   2.13457   2.35753

  Beta  occ. eigenvalues --  -24.72551  -1.12628  -0.42881  -0.42881  -0.33046
  Beta virt. eigenvalues --   -0.25669  -0.10453   0.25793   0.33301   0.92780
  Beta virt. eigenvalues --    0.92780   0.96528   1.05578   1.20659   1.24855
  Beta virt. eigenvalues --    1.24855   1.38966   1.38966   1.48074   2.13915

 Mulliken charges and spin densities:
               1          2
     1  H    0.002653  -0.888714
     2  H    0.004222   0.896676
     3  F   -0.006875   0.992038
 Sum of Mulliken charges =   0.00000   1.00000

 Dipole moment (field-independent basis, Debye):
    X=             -0.1689    Y=             -0.0000    Z=             -0.0000  Tot=              0.1689
 Quadrupole moment (field-independent basis, Debye-Ang):
   XX=             -6.6311   YY=             -7.7127   ZZ=             -7.7127
   XY=             -0.0000   XZ=             -0.0000   YZ=              0.0000

  Exact polarizability:      38.111      -0.000       2.007       0.000       0.000       2.007
 Approx polarizability:      31.621      -0.000       1.933      -0.000       0.000       1.933

 ******    2 imaginary frequencies (negative Signs) ******

                      1                      2                      3
                      A                      A                      A
 Frequencies --  -1180.2111              -121.5170               467.2985
 Red. masses --      1.0078                 1.1085                 1.0127
 Frc consts  --      0.8271                 0.0096                 0.1303
 IR Inten    --      5.3289                 4.5212                 0.0010

                      4
                      A
 Frequencies --    467.2985
 Red. masses --      1.0127
 Frc consts  --      0.1303
 IR Inten    --      0.0010

 - Thermochemistry -
 -------------------
 Temperature   298.150 Kelvin.  Pressure   1.00000 Atm.
 Atom     1 has atomic number  1 and mass   1.00783

 Molecular mass:    21.01405 amu.
 Principal axes and moments of inertia in atomic units:
                           1         2         3
     Eigenvalues --     0.00000 148.64617 148.64617
           X            1.00000  -0.00000   0.00000
           Y            0.00000   1.00000   0.00000
           Z            0.00000   0.00000   1.00000
 This molecule is a prolate symmetric top.
 Rotational symmetry number  1.
 Rotational temperature (Kelvin)      0.58269
 Rotational constant (GHZ):          12.141189
    2 imaginary frequencies ignored.
 Zero-point vibrational energy       5590.1 (Joules/Mol)
                                    1.33607 (Kcal/Mol)
 Warning -- explicit consideration of   2 degrees of freedom as
           vibrations may cause significant error
 Vibrational temperatures:    672.34   672.34
          (Kelvin)

 Zero-point correction=                           0.002129 (Hartree/Particle)
 Thermal correction to Energy=                    0.004989
 Thermal correction to Enthalpy=                  0.005933
 Thermal correction to Gibbs Free Energy=        -0.018926
 Sum of electronic and zero-point Energies=           -100.768544
 Sum of electronic and thermal Energies=              -100.765685
 Sum of electronic and thermal Enthalpies=            -100.764741
 Sum of electronic and thermal Free Energies=         -100.789599

                     E (Thermal)             CV                S
                      KCal/Mol        Cal/Mol-Kelvin    Cal/Mol-Kelvin
 Total                    3.130              7.613             52.319
 Electronic               0.000              0.000              1.377
 Translational            0.889              2.981             35.068
 Rotational               0.592              1.987             14.383
 Vibrational              1.649              2.645              1.490
 Vibration     1          0.825              1.323              0.745
 Vibration     2          0.825              1.323              0.745

 Normal termination of Gaussian 16 at Fri Aug 22 23:05:42 2025.
