 Gaussian 16, Revision C.01,
 Gaussian 16:  ES64L-G16RevC.01  3-Jul-2019

 -----------------------------------------
 # sp b3lyp/6-311g** Force nosymm scf=(qc)
 -----------------------------------------

 -------------------
 Title Card Required
 -------------------
 Symbolic Z-matrix:
 Charge =  0 Multiplicity = 2

                          Input orientation:
 ---------------------------------------------------------------------
 Center     Atomic      Atomic             Coordinates (Angstroms)
 Number     Number       Type             X           Y           Z
 ---------------------------------------------------------------------
      1          1           0        0.000000    0.000000    0.000000
      2          1           0       -0.550000    0.000000    0.000000
      3          9           0        2.650000    0.000000    0.000000
 ---------------------------------------------------------------------

 SCF Done:  E(UB3LYP) =  -100.894768395     a.u. after   39 cycles

 Alpha  occ. eigenvalues --  -24.76737  -1.22515  -0.55699  -0.48176  -0.46847
 Alpha  occ. eigenvalues --   -0.46371
 Alpha virt. eigenvalues --    0.10202   0.19205   0.55100   0.85780   0.90648
 Alpha virt. eigenvalues --    0.93749   1.11336   1.11352   1.11644   1.61813
 Alpha virt. eigenvalues --    1.83075   1.96466   1.96484   2.38353   3.64572

  Beta  occ. eigenvalues --  -24.73573  -1.13422  -0.47802  -0.43675  -0.43568
  Beta virt. eigenvalues --   -0.26313   0.10296   0.19270   0.55214   0.92145
  Beta virt. eigenvalues --    0.95228   0.95674   1.11340   1.11351   1.15161
  Beta virt. eigenvalues --    1.61827   1.83089   1.96466   1.96483   2.38367

 Mulliken charges and spin densities:
               1          2
     1  H   -0.011300  -0.002506
     2  H   -0.002849   0.000369
     3  F    0.014149   1.002137
 Sum of Mulliken charges =   0.00000   1.00000

 Dipole moment (field-independent basis, Debye):
    X=              0.1222    Y=             -0.0000    Z=             -0.0000  Tot=              0.1222
 Quadrupole moment (field-independent basis, Debye-Ang):
   XX=             -5.9607   YY=             -6.5257   ZZ=             -5.9594
   XY=             -0.0000   XZ=             -0.0000   YZ=              0.3257

  Exact polarizability:       6.445       0.000       1.937       0.000       0.169       2.231
 Approx polarizability:       6.797       0.000       2.040       0.000       0.213       2.411

 ******    2 imaginary frequencies (negative Signs) ******

                      1                      2                      3
                      A                      A                      A
 Frequencies --  -3685.0852             -3683.1027               160.3414
 Red. masses --      1.0087                 1.0087                 1.1085
 Frc consts  --      8.0707                 8.0620                 0.0168
 IR Inten    --      0.1013                 0.1080                 0.2491

                      4
                      A
 Frequencies --   8343.0570
 Red. masses --      1.0078
 Frc consts  --     41.3319
 IR Inten    --      1.1239

 - Thermochemistry -
 -------------------
 Temperature   298.150 Kelvin.  Pressure   1.00000 Atm.
 Atom     1 has atomic number  1 and mass   1.00783

 Molecular mass:    21.01405 amu.
 Principal axes and moments of inertia in atomic units:
                           1         2         3
     Eigenvalues --     0.00000  56.22084  56.22084
           X            1.00000  -0.00000   0.00000
           Y            0.00000   1.00000   0.00000
           Z            0.00000   0.00000   1.00000
 This molecule is a prolate symmetric top.
 Rotational symmetry number  1.
 Rotational temperature (Kelvin)      1.54060
 Rotational constant (GHZ):          32.100926
    2 imaginary frequencies ignored.
 Zero-point vibrational energy      50861.6 (Joules/Mol)
                                   12.15622 (Kcal/Mol)
 Warning -- explicit consideration of   1 degrees of freedom as
           vibrations may cause significant error
 Vibrational temperatures:    230.70 12003.80
          (Kelvin)

 Zero-point correction=                           0.019372 (Hartree/Particle)
 Thermal correction to Energy=                    0.022358
 Thermal correction to Enthalpy=                  0.023302
 Thermal correction to Gibbs Free Energy=        -0.001139
 Sum of electronic and zero-point Energies=           -100.875396
 Sum of electronic and thermal Energies=              -100.872410
 Sum of electronic and thermal Enthalpies=            -100.871466
 Sum of electronic and thermal Free Energies=         -100.895908

                     E (Thermal)             CV                S
                      KCal/Mol        Cal/Mol-Kelvin    Cal/Mol-Kelvin
 Total                   14.030              6.859             51.442
 Electronic               0.000              0.000              1.377
 Translational            0.889              2.981             35.068
 Rotational               0.592              1.987             12.451
 Vibrational             12.549              1.891              2.546
 Vibration     1          0.622              1.891              2.546

 Normal termination of Gaussian 16 at Fri Aug 22 18:06:26 2025.
