 Gaussian 16, Revision C.01,
 Gaussian 16:  ES64L-G16RevC.01  3-Jul-2019

 -----------------------------------------
 # sp b3lyp/6-311g** Force nosymm scf=(qc)
 -----------------------------------------

 -------------------
 Title Card Required
 -------------------
 Symbolic Z-matrix:
 Charge =  0 Multiplicity = 2

                          Input orientation:
 ---------------------------------------------------------------------
 Center     Atomic      Atomic             Coordinates (Angstroms)
 Number     Number       Type             X           Y           Z
 ---------------------------------------------------------------------
      1          1           0        0.000000    0.000000    0.000000
      2          1           0       -1.750000    0.000000    0.000000
      3          9           0        1.650000    0.000000    0.000000
 ---------------------------------------------------------------------

 SCF Done:  E(UB3LYP) =  -100.843023747     a.u. after   14 cycles

 Alpha  occ. eigenvalues --  -24.65332  -1.11667  -0.45393  -0.38146  -0.37340
 Alpha  occ. eigenvalues --   -0.37340
 Alpha virt. eigenvalues --   -0.11268   0.22335   0.28933   0.91756   0.94519
 Alpha virt. eigenvalues --    0.94519   1.03985   1.18702   1.18702   1.35293
 Alpha virt. eigenvalues --    1.35293   1.36246   1.75999   2.13769   2.33920

  Beta  occ. eigenvalues --  -24.63695  -1.07213  -0.39825  -0.35756  -0.35756
  Beta virt. eigenvalues --   -0.20974  -0.08438   0.25329   0.30148   0.94488
  Beta virt. eigenvalues --    0.94488   0.95152   1.07353   1.25439   1.25439
  Beta virt. eigenvalues --    1.36150   1.36150   1.43963   1.77345   2.15782

 Mulliken charges and spin densities:
               1          2
     1  H    0.225462  -0.350305
     2  H    0.064608   0.837723
     3  F   -0.290070   0.512582
 Sum of Mulliken charges =   0.00000   1.00000

 Dipole moment (field-independent basis, Debye):
    X=             -2.8860    Y=             -0.0000    Z=              0.0000  Tot=              2.8860
 Quadrupole moment (field-independent basis, Debye-Ang):
   XX=             -8.5264   YY=             -7.3782   ZZ=             -7.3782
   XY=             -0.0000   XZ=              0.0000   YZ=             -0.0000

  Exact polarizability:      40.990      -0.000       2.188       0.000      -0.000       2.188
 Approx polarizability:      56.273      -0.000       2.110       0.000       0.000       2.110

 ******    2 imaginary frequencies (negative Signs) ******

                      1                      2                      3
                      A                      A                      A
 Frequencies --  -2255.4955              -586.6607               914.5065
 Red. masses --      1.0261                 1.0873                 1.0187
 Frc consts  --      3.0755                 0.2205                 0.5019
 IR Inten    --    201.7983                 1.9100                28.5945

                      4
                      A
 Frequencies --    914.5065
 Red. masses --      1.0187
 Frc consts  --      0.5019
 IR Inten    --     28.5945

 - Thermochemistry -
 -------------------
 Temperature   298.150 Kelvin.  Pressure   1.00000 Atm.
 Atom     1 has atomic number  1 and mass   1.00783

 Molecular mass:    21.01405 amu.
 Principal axes and moments of inertia in atomic units:
                           1         2         3
     Eigenvalues --     0.00000  47.00093  47.00093
           X            1.00000  -0.00000   0.00000
           Y            0.00000   1.00000   0.00000
           Z            0.00000   0.00000   1.00000
 This molecule is a prolate symmetric top.
 Rotational symmetry number  1.
 Rotational temperature (Kelvin)      1.84281
 Rotational constant (GHZ):          38.397988
    2 imaginary frequencies ignored.
 Zero-point vibrational energy      10939.9 (Joules/Mol)
                                    2.61471 (Kcal/Mol)
 Vibrational temperatures:   1315.77  1315.77
          (Kelvin)

 Zero-point correction=                           0.004167 (Hartree/Particle)
 Thermal correction to Energy=                    0.006629
 Thermal correction to Enthalpy=                  0.007574
 Thermal correction to Gibbs Free Energy=        -0.015615
 Sum of electronic and zero-point Energies=           -100.838857
 Sum of electronic and thermal Energies=              -100.836394
 Sum of electronic and thermal Enthalpies=            -100.835450
 Sum of electronic and thermal Free Energies=         -100.858638

                     E (Thermal)             CV                S
                      KCal/Mol        Cal/Mol-Kelvin    Cal/Mol-Kelvin
 Total                    4.160              5.929             48.804
 Electronic               0.000              0.000              1.377
 Translational            0.889              2.981             35.068
 Rotational               0.592              1.987             12.095
 Vibrational              2.679              0.961              0.264

 Normal termination of Gaussian 16 at Fri Aug 22 16:34:04 2025.
