 Gaussian 16, Revision C.01,
 Gaussian 16:  ES64L-G16RevC.01  3-Jul-2019

 -----------------------------------------
 # sp b3lyp/6-311g** Force nosymm scf=(qc)
 -----------------------------------------

 -------------------
 Title Card Required
 -------------------
 Symbolic Z-matrix:
 Charge =  0 Multiplicity = 2

                          Input orientation:
 ---------------------------------------------------------------------
 Center     Atomic      Atomic             Coordinates (Angstroms)
 Number     Number       Type             X           Y           Z
 ---------------------------------------------------------------------
      1          1           0        0.000000    0.000000    0.000000
      2          1           0       -1.700000    0.000000    0.000000
      3          9           0        2.750000    0.000000    0.000000
 ---------------------------------------------------------------------

 SCF Done:  E(UB3LYP) =  -100.797822939     a.u. after   23 cycles

 Alpha  occ. eigenvalues --  -24.73796  -1.19874  -0.52927  -0.44436  -0.44436
 Alpha  occ. eigenvalues --   -0.34714
 Alpha virt. eigenvalues --   -0.11838   0.24712   0.30654   0.90085   0.92421
 Alpha virt. eigenvalues --    0.92421   1.04052   1.09261   1.22130   1.22130
 Alpha virt. eigenvalues --    1.36541   1.36541   1.66103   2.15224   2.41491

  Beta  occ. eigenvalues --  -24.70804  -1.11312  -0.41444  -0.41444  -0.34497
  Beta virt. eigenvalues --   -0.24841  -0.11370   0.25832   0.30570   0.93863
  Beta virt. eigenvalues --    0.93863   0.97930   1.06101   1.12159   1.22420
  Beta virt. eigenvalues --    1.22420   1.37028   1.37028   1.66662   2.16269

 Mulliken charges and spin densities:
               1          2
     1  H    0.017326  -0.590682
     2  H    0.027970   0.643598
     3  F   -0.045295   0.947084
 Sum of Mulliken charges =  -0.00000   1.00000

 Dipole moment (field-independent basis, Debye):
    X=             -0.8628    Y=             -0.0000    Z=             -0.0000  Tot=              0.8628
 Quadrupole moment (field-independent basis, Debye-Ang):
   XX=             -7.0930   YY=             -7.7212   ZZ=             -7.7212
   XY=             -0.0000   XZ=             -0.0000   YZ=             -0.0000

  Exact polarizability:      62.853      -0.000       2.017      -0.000      -0.000       2.017
 Approx polarizability:      73.996      -0.000       1.971      -0.000       0.000       1.971

 ******    2 imaginary frequencies (negative Signs) ******

                      1                      2                      3
                      A                      A                      A
 Frequencies --  -1916.6707              -285.3782               883.3618
 Red. masses --      1.0080                 1.1083                 1.0132
 Frc consts  --      2.1818                 0.0532                 0.4658
 IR Inten    --    179.9826                37.8627                 0.0258

                      4
                      A
 Frequencies --    883.3618
 Red. masses --      1.0132
 Frc consts  --      0.4658
 IR Inten    --      0.0258

 - Thermochemistry -
 -------------------
 Temperature   298.150 Kelvin.  Pressure   1.00000 Atm.
 Atom     1 has atomic number  1 and mass   1.00783

 Molecular mass:    21.01405 amu.
 Principal axes and moments of inertia in atomic units:
                           1         2         3
     Eigenvalues --     0.00000  89.53893  89.53893
           X            1.00000  -0.00000   0.00000
           Y            0.00000   1.00000   0.00000
           Z            0.00000   0.00000   1.00000
 This molecule is a prolate symmetric top.
 Rotational symmetry number  1.
 Rotational temperature (Kelvin)      0.96733
 Rotational constant (GHZ):          20.155940
    2 imaginary frequencies ignored.
 Zero-point vibrational energy      10567.4 (Joules/Mol)
                                    2.52566 (Kcal/Mol)
 Vibrational temperatures:   1270.96  1270.96
          (Kelvin)

 Zero-point correction=                           0.004025 (Hartree/Particle)
 Thermal correction to Energy=                    0.006500
 Thermal correction to Enthalpy=                  0.007445
 Thermal correction to Gibbs Free Energy=        -0.016369
 Sum of electronic and zero-point Energies=           -100.793798
 Sum of electronic and thermal Energies=              -100.791323
 Sum of electronic and thermal Enthalpies=            -100.790378
 Sum of electronic and thermal Free Energies=         -100.814192

                     E (Thermal)             CV                S
                      KCal/Mol        Cal/Mol-Kelvin    Cal/Mol-Kelvin
 Total                    4.079              6.014             50.119
 Electronic               0.000              0.000              1.377
 Translational            0.889              2.981             35.068
 Rotational               0.592              1.987             13.375
 Vibrational              2.598              1.046              0.298

 Normal termination of Gaussian 16 at Fri Aug 22 18:33:15 2025.
