 Gaussian 16, Revision C.01,
 Gaussian 16:  ES64L-G16RevC.01  3-Jul-2019

 -----------------------------------------
 # sp b3lyp/6-311g** Force nosymm scf=(qc)
 -----------------------------------------

 -------------------
 Title Card Required
 -------------------
 Symbolic Z-matrix:
 Charge =  0 Multiplicity = 2

                          Input orientation:
 ---------------------------------------------------------------------
 Center     Atomic      Atomic             Coordinates (Angstroms)
 Number     Number       Type             X           Y           Z
 ---------------------------------------------------------------------
      1          1           0        0.000000    0.000000    0.000000
      2          1           0       -1.700000    0.000000    0.000000
      3          9           0        3.200000    0.000000    0.000000
 ---------------------------------------------------------------------

 SCF Done:  E(UB3LYP) =  -100.795452477     a.u. after   32 cycles

 Alpha  occ. eigenvalues --  -24.75312  -1.21282  -0.54437  -0.45714  -0.45714
 Alpha  occ. eigenvalues --   -0.33804
 Alpha virt. eigenvalues --   -0.11244   0.25272   0.30337   0.88739   0.91495
 Alpha virt. eigenvalues --    0.91495   1.02781   1.06909   1.23077   1.23077
 Alpha virt. eigenvalues --    1.37481   1.37481   1.67130   2.16235   2.41712

  Beta  occ. eigenvalues --  -24.72215  -1.12387  -0.42611  -0.42611  -0.33723
  Beta virt. eigenvalues --   -0.25580  -0.11032   0.25469   0.30670   0.92977
  Beta virt. eigenvalues --    0.92977   0.97691   1.06581   1.07248   1.23171
  Beta virt. eigenvalues --    1.23171   1.37688   1.37688   1.67409   2.16960

 Mulliken charges and spin densities:
               1          2
     1  H    0.001769  -0.606203
     2  H    0.013505   0.624529
     3  F   -0.015275   0.981674
 Sum of Mulliken charges =   0.00000   1.00000

 Dipole moment (field-independent basis, Debye):
    X=             -0.3584    Y=              0.0000    Z=              0.0000  Tot=              0.3584
 Quadrupole moment (field-independent basis, Debye-Ang):
   XX=             -6.3881   YY=             -7.7546   ZZ=             -7.7546
   XY=              0.0000   XZ=              0.0000   YZ=              0.0000

  Exact polarizability:      52.794      -0.000       1.984      -0.000       0.000       1.984
 Approx polarizability:      58.532       0.000       1.975       0.000      -0.000       1.975

 ******    2 imaginary frequencies (negative Signs) ******

                      1                      2                      3
                      A                      A                      A
 Frequencies --  -1913.8585              -170.5814               896.7656
 Red. masses --      1.0079                 1.1085                 1.0121
 Frc consts  --      2.1750                 0.0190                 0.4795
 IR Inten    --     62.9108                14.5110                 0.0165

                      4
                      A
 Frequencies --    896.7657
 Red. masses --      1.0121
 Frc consts  --      0.4795
 IR Inten    --      0.0165

 - Thermochemistry -
 -------------------
 Temperature   298.150 Kelvin.  Pressure   1.00000 Atm.
 Atom     1 has atomic number  1 and mass   1.00783

 Molecular mass:    21.01405 amu.
 Principal axes and moments of inertia in atomic units:
                           1         2         3
     Eigenvalues --     0.00000 111.94130 111.94130
           X            1.00000  -0.00000   0.00000
           Y            0.00000   1.00000   0.00000
           Z            0.00000   0.00000   1.00000
 This molecule is a prolate symmetric top.
 Rotational symmetry number  1.
 Rotational temperature (Kelvin)      0.77374
 Rotational constant (GHZ):          16.122210
    2 imaginary frequencies ignored.
 Zero-point vibrational energy      10727.7 (Joules/Mol)
                                    2.56398 (Kcal/Mol)
 Vibrational temperatures:   1290.25  1290.25
          (Kelvin)

 Zero-point correction=                           0.004086 (Hartree/Particle)
 Thermal correction to Energy=                    0.006556
 Thermal correction to Enthalpy=                  0.007500
 Thermal correction to Gibbs Free Energy=        -0.016517
 Sum of electronic and zero-point Energies=           -100.791367
 Sum of electronic and thermal Energies=              -100.788897
 Sum of electronic and thermal Enthalpies=            -100.787953
 Sum of electronic and thermal Free Energies=         -100.811969

                     E (Thermal)             CV                S
                      KCal/Mol        Cal/Mol-Kelvin    Cal/Mol-Kelvin
 Total                    4.114              5.977             50.548
 Electronic               0.000              0.000              1.377
 Translational            0.889              2.981             35.068
 Rotational               0.592              1.987             13.819
 Vibrational              2.633              1.009              0.283

 Normal termination of Gaussian 16 at Fri Aug 22 20:22:35 2025.
