 Gaussian 16, Revision C.01,
 Gaussian 16:  ES64L-G16RevC.01  3-Jul-2019

 -----------------------------------------
 # sp b3lyp/6-311g** Force nosymm scf=(qc)
 -----------------------------------------

 -------------------
 Title Card Required
 -------------------
 Symbolic Z-matrix:
 Charge =  0 Multiplicity = 2

                          Input orientation:
 ---------------------------------------------------------------------
 Center     Atomic      Atomic             Coordinates (Angstroms)
 Number     Number       Type             X           Y           Z
 ---------------------------------------------------------------------
      1          1           0        0.000000    0.000000    0.000000
      2          1           0       -1.600000    0.000000    0.000000
      3          9           0        3.400000    0.000000    0.000000
 ---------------------------------------------------------------------

 SCF Done:  E(UB3LYP) =  -100.806233812     a.u. after  251 cycles

 Alpha  occ. eigenvalues --  -24.76402  -1.22272  -0.55472  -0.46667  -0.46626
 Alpha  occ. eigenvalues --   -0.33235
 Alpha virt. eigenvalues --   -0.10208   0.25435   0.30554   0.85926   0.90802
 Alpha virt. eigenvalues --    0.92209   1.01483   1.06736   1.22437   1.22440
 Alpha virt. eigenvalues --    1.39531   1.39535   1.74764   2.19542   2.44394

  Beta  occ. eigenvalues --  -24.73246  -1.13199  -0.43514  -0.43462  -0.33222
  Beta virt. eigenvalues --   -0.26114  -0.10241   0.25438   0.30642   0.92305
  Beta virt. eigenvalues --    0.93675   0.95393   1.05530   1.06733   1.22426
  Beta virt. eigenvalues --    1.22430   1.39522   1.39525   1.74826   2.19814

 Mulliken charges and spin densities:
               1          2
     1  H    0.000339  -0.451245
     2  H   -0.003492   0.451146
     3  F    0.003153   1.000098
 Sum of Mulliken charges =   0.00000   1.00000

 Dipole moment (field-independent basis, Debye):
    X=              0.0579    Y=             -0.0000    Z=              0.0000  Tot=              0.0579
 Quadrupole moment (field-independent basis, Debye-Ang):
   XX=             -6.3863   YY=             -7.7727   ZZ=             -6.9085
   XY=             -0.0000   XZ=              0.0000   YZ=             -0.0037

  Exact polarizability:      23.801      -0.000       2.027      -0.000      -0.002       2.489
 Approx polarizability:      41.414      -0.000       2.005       0.000      -0.002       2.588

 ******    2 imaginary frequencies (negative Signs) ******

                      1                      2                      3
                      A                      A                      A
 Frequencies --  -2062.0311               -36.3563              1055.8328
 Red. masses --      1.0078                 1.1085                 1.0114
 Frc consts  --      2.5248                 0.0009                 0.6643
 IR Inten    --      0.0736                 0.2345                 0.0029

                      4
                      A
 Frequencies --   1056.8195
 Red. masses --      1.0114
 Frc consts  --      0.6655
 IR Inten    --      0.0012

 - Thermochemistry -
 -------------------
 Temperature   298.150 Kelvin.  Pressure   1.00000 Atm.
 Atom     1 has atomic number  1 and mass   1.00783

 Molecular mass:    21.01405 amu.
 Principal axes and moments of inertia in atomic units:
                           1         2         3
     Eigenvalues --     0.00000 119.40061 119.40061
           X            1.00000  -0.00000   0.00000
           Y            0.00000   1.00000   0.00000
           Z            0.00000   0.00000   1.00000
 This molecule is a prolate symmetric top.
 Rotational symmetry number  1.
 Rotational temperature (Kelvin)      0.72541
 Rotational constant (GHZ):          15.115008
    2 imaginary frequencies ignored.
 Zero-point vibrational energy      12636.5 (Joules/Mol)
                                    3.02019 (Kcal/Mol)
 Vibrational temperatures:   1519.11  1520.53
          (Kelvin)

 Zero-point correction=                           0.004813 (Hartree/Particle)
 Thermal correction to Energy=                    0.007233
 Thermal correction to Enthalpy=                  0.008177
 Thermal correction to Gibbs Free Energy=        -0.015837
 Sum of electronic and zero-point Energies=           -100.801421
 Sum of electronic and thermal Energies=              -100.799001
 Sum of electronic and thermal Enthalpies=            -100.798057
 Sum of electronic and thermal Free Energies=         -100.822071

                     E (Thermal)             CV                S
                      KCal/Mol        Cal/Mol-Kelvin    Cal/Mol-Kelvin
 Total                    4.539              5.607             50.542
 Electronic               0.000              0.000              1.377
 Translational            0.889              2.981             35.068
 Rotational               0.592              1.987             13.947
 Vibrational              3.057              0.639              0.149

 Normal termination of Gaussian 16 at Fri Aug 22 21:15:35 2025.
