 Gaussian 16, Revision C.01,
 Gaussian 16:  ES64L-G16RevC.01  3-Jul-2019

 -----------------------------------------
 # sp b3lyp/6-311g** Force nosymm scf=(qc)
 -----------------------------------------

 -------------------
 Title Card Required
 -------------------
 Symbolic Z-matrix:
 Charge =  0 Multiplicity = 2

                          Input orientation:
 ---------------------------------------------------------------------
 Center     Atomic      Atomic             Coordinates (Angstroms)
 Number     Number       Type             X           Y           Z
 ---------------------------------------------------------------------
      1          1           0        0.000000    0.000000    0.000000
      2          1           0       -2.900000    0.000000    0.000000
      3          9           0        1.800000    0.000000    0.000000
 ---------------------------------------------------------------------

 SCF Done:  E(UB3LYP) =  -100.797878091     a.u. after   12 cycles

 Alpha  occ. eigenvalues --  -24.63866  -1.08310  -0.39907  -0.35596  -0.35596
 Alpha  occ. eigenvalues --   -0.34989
 Alpha virt. eigenvalues --   -0.20220   0.20715   0.27105   0.93577   0.95873
 Alpha virt. eigenvalues --    0.95873   1.08264   1.22438   1.22438   1.23232
 Alpha virt. eigenvalues --    1.26028   1.26028   1.66058   2.13179   2.15731

  Beta  occ. eigenvalues --  -24.63902  -1.08410  -0.39828  -0.35631  -0.35631
  Beta virt. eigenvalues --   -0.20432  -0.08452   0.23908   0.36469   0.93780
  Beta virt. eigenvalues --    0.95900   0.95900   1.08335   1.26459   1.26459
  Beta virt. eigenvalues --    1.43547   1.43750   1.43750   1.66497   2.16278

 Mulliken charges and spin densities:
               1          2
     1  H    0.304997   0.025668
     2  H    0.013531   0.985903
     3  F   -0.318528  -0.011571
 Sum of Mulliken charges =   0.00000   1.00000

 Dipole moment (field-independent basis, Debye):
    X=             -3.0343    Y=             -0.0000    Z=             -0.0000  Tot=              3.0343
 Quadrupole moment (field-independent basis, Debye-Ang):
   XX=            -10.6141   YY=             -7.4645   ZZ=             -7.4645
   XY=             -0.0000   XZ=             -0.0000   YZ=              0.0000

  Exact polarizability:      29.867      -0.000       2.068      -0.000       0.000       2.068
 Approx polarizability:      66.232      -0.000       1.979      -0.000       0.000       1.979

 ******    2 imaginary frequencies (negative Signs) ******

                      1                      2                      3
                      A                      A                      A
 Frequencies --  -1195.1211              -196.2483               788.8193
 Red. masses --      1.0535                 1.0581                 1.0246
 Frc consts  --      0.8866                 0.0240                 0.3756
 IR Inten    --    105.2209                 5.5875                84.6679

                      4
                      A
 Frequencies --    788.8193
 Red. masses --      1.0246
 Frc consts  --      0.3756
 IR Inten    --     84.6679

 - Thermochemistry -
 -------------------
 Temperature   298.150 Kelvin.  Pressure   1.00000 Atm.
 Atom     1 has atomic number  1 and mass   1.00783

 Molecular mass:    21.01405 amu.
 Principal axes and moments of inertia in atomic units:
                           1         2         3
     Eigenvalues --     0.00000  83.87024  83.87024
           X            1.00000  -0.00000   0.00000
           Y            0.00000   1.00000   0.00000
           Z            0.00000   0.00000   1.00000
 This molecule is a prolate symmetric top.
 Rotational symmetry number  1.
 Rotational temperature (Kelvin)      1.03271
 Rotational constant (GHZ):          21.518254
    2 imaginary frequencies ignored.
 Zero-point vibrational energy       9436.4 (Joules/Mol)
                                    2.25535 (Kcal/Mol)
 Vibrational temperatures:   1134.93  1134.93
          (Kelvin)

 Zero-point correction=                           0.003594 (Hartree/Particle)
 Thermal correction to Energy=                    0.006118
 Thermal correction to Enthalpy=                  0.007062
 Thermal correction to Gibbs Free Energy=        -0.016753
 Sum of electronic and zero-point Energies=           -100.794284
 Sum of electronic and thermal Energies=              -100.791760
 Sum of electronic and thermal Enthalpies=            -100.790816
 Sum of electronic and thermal Free Energies=         -100.814632

                     E (Thermal)             CV                S
                      KCal/Mol        Cal/Mol-Kelvin    Cal/Mol-Kelvin
 Total                    3.839              6.307             50.124
 Electronic               0.000              0.000              1.377
 Translational            0.889              2.981             35.068
 Rotational               0.592              1.987             13.246
 Vibrational              2.358              1.339              0.433

 Normal termination of Gaussian 16 at Fri Aug 22 16:44:22 2025.
