 Gaussian 16, Revision C.01,
 Gaussian 16:  ES64L-G16RevC.01  3-Jul-2019

 -----------------------------------------
 # sp b3lyp/6-311g** Force nosymm scf=(qc)
 -----------------------------------------

 -------------------
 Title Card Required
 -------------------
 Symbolic Z-matrix:
 Charge =  0 Multiplicity = 2

                          Input orientation:
 ---------------------------------------------------------------------
 Center     Atomic      Atomic             Coordinates (Angstroms)
 Number     Number       Type             X           Y           Z
 ---------------------------------------------------------------------
      1          1           0        0.000000    0.000000    0.000000
      2          1           0       -3.950000    0.000000    0.000000
      3          9           0        1.900000    0.000000    0.000000
 ---------------------------------------------------------------------

 SCF Done:  E(UB3LYP) =  -100.794673885     a.u. after   13 cycles

 Alpha  occ. eigenvalues --  -24.67442  -1.13719  -0.46343  -0.39086  -0.39086
 Alpha  occ. eigenvalues --   -0.33276
 Alpha virt. eigenvalues --   -0.14461   0.22185   0.30357   0.90276   0.94859
 Alpha virt. eigenvalues --    0.94859   1.05585   1.24213   1.24229   1.24229
 Alpha virt. eigenvalues --    1.34501   1.34501   1.65255   2.13517   2.27776

  Beta  occ. eigenvalues --  -24.65266  -1.07674  -0.38620  -0.36950  -0.36950
  Beta virt. eigenvalues --   -0.20046  -0.06311   0.22038   0.38011   0.91097
  Beta virt. eigenvalues --    0.95186   0.95186   1.07992   1.22625   1.22625
  Beta virt. eigenvalues --    1.46341   1.46573   1.46573   1.59151   2.11599

 Mulliken charges and spin densities:
               1          2
     1  H    0.223142  -0.683678
     2  H    0.000563   0.999233
     3  F   -0.223705   0.684446
 Sum of Mulliken charges =   0.00000   1.00000

 Dipole moment (field-independent basis, Debye):
    X=             -2.0963    Y=             -0.0000    Z=              0.0000  Tot=              2.0963
 Quadrupole moment (field-independent basis, Debye-Ang):
   XX=            -10.1916   YY=             -7.4624   ZZ=             -7.4624
   XY=             -0.0000   XZ=              0.0000   YZ=              0.0000

  Exact polarizability:      23.572      -0.000       2.078       0.000       0.000       2.078
 Approx polarizability:      35.952      -0.000       1.963       0.000      -0.000       1.963

 ******    2 imaginary frequencies (negative Signs) ******

                      1                      2                      3
                      A                      A                      A
 Frequencies --  -1305.0809               -68.3553               562.4809
 Red. masses --      1.0580                 1.0536                 1.0287
 Frc consts  --      1.0617                 0.0029                 0.1918
 IR Inten    --    131.3179                 0.0412                47.3545

                      4
                      A
 Frequencies --    562.4809
 Red. masses --      1.0287
 Frc consts  --      0.1918
 IR Inten    --     47.3545

 - Thermochemistry -
 -------------------
 Temperature   298.150 Kelvin.  Pressure   1.00000 Atm.
 Atom     1 has atomic number  1 and mass   1.00783

 Molecular mass:    21.01405 amu.
 Principal axes and moments of inertia in atomic units:
                           1         2         3
     Eigenvalues --     0.00000 125.79229 125.79229
           X            1.00000  -0.00000   0.00000
           Y            0.00000   1.00000   0.00000
           Z            0.00000   0.00000   1.00000
 This molecule is a prolate symmetric top.
 Rotational symmetry number  1.
 Rotational temperature (Kelvin)      0.68855
 Rotational constant (GHZ):          14.346994
    2 imaginary frequencies ignored.
 Zero-point vibrational energy       6728.8 (Joules/Mol)
                                    1.60821 (Kcal/Mol)
 Warning -- explicit consideration of   2 degrees of freedom as
           vibrations may cause significant error
 Vibrational temperatures:    809.28   809.28
          (Kelvin)

 Zero-point correction=                           0.002563 (Hartree/Particle)
 Thermal correction to Energy=                    0.005287
 Thermal correction to Enthalpy=                  0.006231
 Thermal correction to Gibbs Free Energy=        -0.018254
 Sum of electronic and zero-point Energies=           -100.792111
 Sum of electronic and thermal Energies=              -100.789387
 Sum of electronic and thermal Enthalpies=            -100.788443
 Sum of electronic and thermal Free Energies=         -100.812928

                     E (Thermal)             CV                S
                      KCal/Mol        Cal/Mol-Kelvin    Cal/Mol-Kelvin
 Total                    3.318              7.193             51.534
 Electronic               0.000              0.000              1.377
 Translational            0.889              2.981             35.068
 Rotational               0.592              1.987             14.051
 Vibrational              1.836              2.225              1.038
 Vibration     1          0.918              1.112              0.519
 Vibration     2          0.918              1.112              0.519

 Normal termination of Gaussian 16 at Fri Aug 22 16:51:39 2025.
