 Gaussian 16, Revision C.01,
 Gaussian 16:  ES64L-G16RevC.01  3-Jul-2019

 -----------------------------------------
 # sp b3lyp/6-311g** Force nosymm scf=(qc)
 -----------------------------------------

 -------------------
 Title Card Required
 -------------------
 Symbolic Z-matrix:
 Charge =  0 Multiplicity = 2

                          Input orientation:
 ---------------------------------------------------------------------
 Center     Atomic      Atomic             Coordinates (Angstroms)
 Number     Number       Type             X           Y           Z
 ---------------------------------------------------------------------
      1          1           0        0.000000    0.000000    0.000000
      2          1           0       -3.000000    0.000000    0.000000
      3          9           0        0.700000    0.000000    0.000000
 ---------------------------------------------------------------------

 SCF Done:  E(UB3LYP) =  -100.874862374     a.u. after    6 cycles

 Alpha  occ. eigenvalues --  -24.63185  -1.28213  -0.58581  -0.41747  -0.41747
 Alpha  occ. eigenvalues --   -0.33845
 Alpha virt. eigenvalues --    0.06800   0.25460   0.52427   0.93498   0.93498
 Alpha virt. eigenvalues --    0.95782   1.22327   1.23682   1.23682   1.34931
 Alpha virt. eigenvalues --    1.44080   1.44080   1.98181   2.14902   2.86562

  Beta  occ. eigenvalues --  -24.63182  -1.28206  -0.58575  -0.41746  -0.41746
  Beta virt. eigenvalues --   -0.06214   0.07816   0.39255   0.52608   0.93497
  Beta virt. eigenvalues --    0.93497   0.95780   1.31560   1.44081   1.44081
  Beta virt. eigenvalues --    1.50794   1.50794   1.51728   1.98153   2.44486

 Mulliken charges and spin densities:
               1          2
     1  H    0.260848   0.001348
     2  H    0.001924   0.997382
     3  F   -0.262772   0.001270
 Sum of Mulliken charges =   0.00000   1.00000

 Dipole moment (field-independent basis, Debye):
    X=             -1.6087    Y=             -0.0000    Z=              0.0000  Tot=              1.6087
 Quadrupole moment (field-independent basis, Debye-Ang):
   XX=             -7.2133   YY=             -6.6621   ZZ=             -6.6621
   XY=             -0.0000   XZ=              0.0000   YZ=              0.0000

  Exact polarizability:       4.576      -0.000       2.457      -0.000      -0.000       2.457
 Approx polarizability:       4.848       0.000       2.440      -0.000      -0.000       2.440

 ******    3 imaginary frequencies (negative Signs) ******

                      1                      2                      3
                      A                      A                      A
 Frequencies --  -3548.0040             -3548.0040               -29.5824
 Red. masses --      1.0399                 1.0399                 1.0532
 Frc consts  --      7.7128                 7.7128                 0.0005
 IR Inten    --    209.4147               209.4147                 0.1005

                      4
                      A
 Frequencies --   9073.1210
 Red. masses --      1.0583
 Frc consts  --     51.3309
 IR Inten    --    111.1268

 - Thermochemistry -
 -------------------
 Temperature   298.150 Kelvin.  Pressure   1.00000 Atm.
 Atom     1 has atomic number  1 and mass   1.00783

 Molecular mass:    21.01405 amu.
 Principal axes and moments of inertia in atomic units:
                           1         2         3
     Eigenvalues --     0.00000  47.69227  47.69227
           X            1.00000  -0.00000   0.00000
           Y            0.00000   1.00000   0.00000
           Z            0.00000   0.00000   1.00000
 This molecule is a prolate symmetric top.
 Rotational symmetry number  1.
 Rotational temperature (Kelvin)      1.81610
 Rotational constant (GHZ):          37.841377
    3 imaginary frequencies ignored.
 Zero-point vibrational energy      54269.3 (Joules/Mol)
                                   12.97068 (Kcal/Mol)
 Vibrational temperatures:  13054.20
          (Kelvin)

 Zero-point correction=                           0.020670 (Hartree/Particle)
 Thermal correction to Energy=                    0.023031
 Thermal correction to Enthalpy=                  0.023975
 Thermal correction to Gibbs Free Energy=         0.000898
 Sum of electronic and zero-point Energies=           -100.854192
 Sum of electronic and thermal Energies=              -100.851832
 Sum of electronic and thermal Enthalpies=            -100.850888
 Sum of electronic and thermal Free Energies=         -100.873964

                     E (Thermal)             CV                S
                      KCal/Mol        Cal/Mol-Kelvin    Cal/Mol-Kelvin
 Total                   14.452              4.968             48.569
 Electronic               0.000              0.000              1.377
 Translational            0.889              2.981             35.068
 Rotational               0.592              1.987             12.124
 Vibrational             12.971              0.000              0.000

 Normal termination of Gaussian 16 at Fri Aug 22 15:47:04 2025.
