 Gaussian 16, Revision C.01,
 Gaussian 16:  ES64L-G16RevC.01  3-Jul-2019

 -----------------------------------------
 # sp b3lyp/6-311g** Force nosymm scf=(qc)
 -----------------------------------------

 -------------------
 Title Card Required
 -------------------
 Symbolic Z-matrix:
 Charge =  0 Multiplicity = 2

                          Input orientation:
 ---------------------------------------------------------------------
 Center     Atomic      Atomic             Coordinates (Angstroms)
 Number     Number       Type             X           Y           Z
 ---------------------------------------------------------------------
      1          1           0        0.000000    0.000000    0.000000
      2          1           0       -1.100000    0.000000    0.000000
      3          9           0        0.800000    0.000000    0.000000
 ---------------------------------------------------------------------

 SCF Done:  E(UB3LYP) =  -100.930250065     a.u. after    5 cycles

 Alpha  occ. eigenvalues --  -24.64308  -1.24385  -0.60130  -0.41346  -0.41346
 Alpha  occ. eigenvalues --   -0.35657
 Alpha virt. eigenvalues --    0.15038   0.19333   0.55219   0.91210   0.91210
 Alpha virt. eigenvalues --    0.95429   1.09287   1.09287   1.44198   1.58966
 Alpha virt. eigenvalues --    1.58966   1.70100   2.04406   2.32602   3.29264

  Beta  occ. eigenvalues --  -24.63856  -1.23166  -0.57224  -0.40962  -0.40962
  Beta virt. eigenvalues --   -0.15087   0.16199   0.24581   0.60752   0.92399
  Beta virt. eigenvalues --    0.92399   0.96343   1.16934   1.16934   1.45931
  Beta virt. eigenvalues --    1.64764   1.64764   1.80840   2.05507   2.48833

 Mulliken charges and spin densities:
               1          2
     1  H    0.259829   0.000359
     2  H    0.003183   0.907017
     3  F   -0.263012   0.092624
 Sum of Mulliken charges =   0.00000   1.00000

 Dipole moment (field-independent basis, Debye):
    X=             -1.6441    Y=              0.0000    Z=             -0.0000  Tot=              1.6441
 Quadrupole moment (field-independent basis, Debye-Ang):
   XX=             -7.4410   YY=             -6.5843   ZZ=             -6.5843
   XY=              0.0000   XZ=             -0.0000   YZ=              0.0000

  Exact polarizability:       9.739       0.000       2.581      -0.000      -0.000       2.581
 Approx polarizability:       9.990       0.000       2.616      -0.000      -0.000       2.616

 ******    2 imaginary frequencies (negative Signs) ******

                      1                      2                      3
                      A                      A                      A
 Frequencies --  -2129.3482             -2129.3482              1503.4850
 Red. masses --      1.0222                 1.0222                 1.0541
 Frc consts  --      2.7308                 2.7308                 1.4039
 IR Inten    --    105.4330               105.4330                41.1027

                      4
                      A
 Frequencies --   6176.6949
 Red. masses --      1.0574
 Frc consts  --     23.7691
 IR Inten    --    102.2962

 - Thermochemistry -
 -------------------
 Temperature   298.150 Kelvin.  Pressure   1.00000 Atm.
 Atom     1 has atomic number  1 and mass   1.00783

 Molecular mass:    21.01405 amu.
 Principal axes and moments of inertia in atomic units:
                           1         2         3
     Eigenvalues --     0.00000  14.03748  14.03748
           X            1.00000  -0.00000   0.00000
           Y            0.00000   1.00000   0.00000
           Z            0.00000   0.00000   1.00000
 This molecule is a prolate symmetric top.
 Rotational symmetry number  1.
 Rotational temperature (Kelvin)      6.17019
 Rotational constant (GHZ):         128.565879
    2 imaginary frequencies ignored.
 Zero-point vibrational energy      45937.7 (Joules/Mol)
                                   10.97937 (Kcal/Mol)
 Vibrational temperatures:   2163.18  8886.89
          (Kelvin)

 Zero-point correction=                           0.017497 (Hartree/Particle)
 Thermal correction to Energy=                    0.019862
 Thermal correction to Enthalpy=                  0.020806
 Thermal correction to Gibbs Free Energy=        -0.001121
 Sum of electronic and zero-point Energies=           -100.912753
 Sum of electronic and thermal Energies=              -100.910388
 Sum of electronic and thermal Enthalpies=            -100.909444
 Sum of electronic and thermal Free Energies=         -100.931371

                     E (Thermal)             CV                S
                      KCal/Mol        Cal/Mol-Kelvin    Cal/Mol-Kelvin
 Total                   12.464              5.042             46.150
 Electronic               0.000              0.000              1.377
 Translational            0.889              2.981             35.068
 Rotational               0.592              1.987              9.693
 Vibrational             10.982              0.074              0.012

 Normal termination of Gaussian 16 at Fri Aug 22 15:50:28 2025.
