 Gaussian 16, Revision C.01,
 Gaussian 16:  ES64L-G16RevC.01  3-Jul-2019

 -----------------------------------------
 # sp b3lyp/6-311g** Force nosymm scf=(qc)
 -----------------------------------------

 -------------------
 Title Card Required
 -------------------
 Symbolic Z-matrix:
 Charge =  0 Multiplicity = 2

                          Input orientation:
 ---------------------------------------------------------------------
 Center     Atomic      Atomic             Coordinates (Angstroms)
 Number     Number       Type             X           Y           Z
 ---------------------------------------------------------------------
      1          1           0        0.000000    0.000000    0.000000
      2          1           0       -2.850000    0.000000    0.000000
      3          9           0        2.400000    0.000000    0.000000
 ---------------------------------------------------------------------

 SCF Done:  E(UB3LYP) =  -100.771201773     a.u. after   16 cycles

 Alpha  occ. eigenvalues --  -24.71130  -1.17375  -0.50220  -0.42196  -0.42196
 Alpha  occ. eigenvalues --   -0.33478
 Alpha virt. eigenvalues --   -0.11586   0.24170   0.33767   0.89545   0.93931
 Alpha virt. eigenvalues --    0.93931   1.06583   1.24085   1.24085   1.25470
 Alpha virt. eigenvalues --    1.38939   1.38939   1.45544   2.14990   2.33663

  Beta  occ. eigenvalues --  -24.68347  -1.09474  -0.39426  -0.39426  -0.35769
  Beta virt. eigenvalues --   -0.22951  -0.08383   0.24928   0.36145   0.95226
  Beta virt. eigenvalues --    0.95237   0.95237   1.08878   1.21905   1.21905
  Beta virt. eigenvalues --    1.33031   1.43767   1.43767   1.44229   2.13653

 Mulliken charges and spin densities:
               1          2
     1  H    0.100190  -0.867170
     2  H    0.005231   0.988737
     3  F   -0.105421   0.878433
 Sum of Mulliken charges =  -0.00000   1.00000

 Dipole moment (field-independent basis, Debye):
    X=             -1.3532    Y=             -0.0000    Z=             -0.0000  Tot=              1.3532
 Quadrupole moment (field-independent basis, Debye-Ang):
   XX=             -9.2482   YY=             -7.5768   ZZ=             -7.5768
   XY=             -0.0000   XZ=             -0.0000   YZ=              0.0000

  Exact polarizability:      35.485      -0.000       2.024      -0.000      -0.000       2.024
 Approx polarizability:      42.539      -0.000       1.920      -0.000       0.000       1.920

 ******    2 imaginary frequencies (negative Signs) ******

                      1                      2                      3
                      A                      A                      A
 Frequencies --   -739.4238              -256.2563               296.7150
 Red. masses --      1.0421                 1.0698                 1.0202
 Frc consts  --      0.3357                 0.0414                 0.0529
 IR Inten    --     80.5668                 5.7268                 8.9786

                      4
                      A
 Frequencies --    296.7150
 Red. masses --      1.0202
 Frc consts  --      0.0529
 IR Inten    --      8.9786

 - Thermochemistry -
 -------------------
 Temperature   298.150 Kelvin.  Pressure   1.00000 Atm.
 Atom     1 has atomic number  1 and mass   1.00783

 Molecular mass:    21.01405 amu.
 Principal axes and moments of inertia in atomic units:
                           1         2         3
     Eigenvalues --     0.00000 109.82657 109.82657
           X            1.00000  -0.00000   0.00000
           Y            0.00000   1.00000   0.00000
           Z            0.00000   0.00000   1.00000
 This molecule is a prolate symmetric top.
 Rotational symmetry number  1.
 Rotational temperature (Kelvin)      0.78864
 Rotational constant (GHZ):          16.432646
    2 imaginary frequencies ignored.
 Zero-point vibrational energy       3549.5 (Joules/Mol)
                                    0.84835 (Kcal/Mol)
 Warning -- explicit consideration of   2 degrees of freedom as
           vibrations may cause significant error
 Vibrational temperatures:    426.91   426.91
          (Kelvin)

 Zero-point correction=                           0.001352 (Hartree/Particle)
 Thermal correction to Energy=                    0.004561
 Thermal correction to Enthalpy=                  0.005505
 Thermal correction to Gibbs Free Energy=        -0.019723
 Sum of electronic and zero-point Energies=           -100.769850
 Sum of electronic and thermal Energies=              -100.766641
 Sum of electronic and thermal Enthalpies=            -100.765697
 Sum of electronic and thermal Free Energies=         -100.790925

                     E (Thermal)             CV                S
                      KCal/Mol        Cal/Mol-Kelvin    Cal/Mol-Kelvin
 Total                    2.862              8.328             53.097
 Electronic               0.000              0.000              1.377
 Translational            0.889              2.981             35.068
 Rotational               0.592              1.987             13.781
 Vibrational              1.381              3.360              2.871
 Vibration     1          0.690              1.680              1.435
 Vibration     2          0.690              1.680              1.435

 Normal termination of Gaussian 16 at Fri Aug 22 17:32:57 2025.
