 Gaussian 16, Revision C.01,
 Gaussian 16:  ES64L-G16RevC.01  3-Jul-2019

 -----------------------------------------
 # sp b3lyp/6-311g** Force nosymm scf=(qc)
 -----------------------------------------

 -------------------
 Title Card Required
 -------------------
 Symbolic Z-matrix:
 Charge =  0 Multiplicity = 2

                          Input orientation:
 ---------------------------------------------------------------------
 Center     Atomic      Atomic             Coordinates (Angstroms)
 Number     Number       Type             X           Y           Z
 ---------------------------------------------------------------------
      1          1           0        0.000000    0.000000    0.000000
      2          1           0       -2.600000    0.000000    0.000000
      3          9           0        1.700000    0.000000    0.000000
 ---------------------------------------------------------------------

 SCF Done:  E(UB3LYP) =  -100.815980774     a.u. after   11 cycles

 Alpha  occ. eigenvalues --  -24.63641  -1.08212  -0.40720  -0.35551  -0.35497
 Alpha  occ. eigenvalues --   -0.35497
 Alpha virt. eigenvalues --   -0.18324   0.21788   0.26456   0.95196   0.95196
 Alpha virt. eigenvalues --    0.97493   1.08057   1.21767   1.21767   1.23755
 Alpha virt. eigenvalues --    1.27460   1.27460   1.70856   2.12849   2.15990

  Beta  occ. eigenvalues --  -24.63791  -1.08618  -0.40698  -0.35642  -0.35642
  Beta virt. eigenvalues --   -0.18891  -0.08769   0.25040   0.35554   0.95284
  Beta virt. eigenvalues --    0.95284   0.97737   1.08178   1.28655   1.28655
  Beta virt. eigenvalues --    1.42404   1.42404   1.43175   1.71692   2.17716

 Mulliken charges and spin densities:
               1          2
     1  H    0.311031   0.070946
     2  H    0.021906   0.976725
     3  F   -0.332938  -0.047671
 Sum of Mulliken charges =  -0.00000   1.00000

 Dipole moment (field-independent basis, Debye):
    X=             -3.0594    Y=             -0.0000    Z=              0.0000  Tot=              3.0594
 Quadrupole moment (field-independent basis, Debye-Ang):
   XX=            -10.0503   YY=             -7.4212   ZZ=             -7.4212
   XY=             -0.0000   XZ=              0.0000   YZ=             -0.0000

  Exact polarizability:      29.040      -0.000       2.109       0.000      -0.000       2.109
 Approx polarizability:      56.383      -0.000       2.025       0.000      -0.000       2.025

 ******    2 imaginary frequencies (negative Signs) ******

                      1                      2                      3
                      A                      A                      A
 Frequencies --  -1239.8903              -218.2919               851.2890
 Red. masses --      1.0501                 1.0615                 1.0238
 Frc consts  --      0.9512                 0.0298                 0.4371
 IR Inten    --    165.7126                 6.7726                83.8468

                      4
                      A
 Frequencies --    851.2890
 Red. masses --      1.0238
 Frc consts  --      0.4371
 IR Inten    --     83.8468

 - Thermochemistry -
 -------------------
 Temperature   298.150 Kelvin.  Pressure   1.00000 Atm.
 Atom     1 has atomic number  1 and mass   1.00783

 Molecular mass:    21.01405 amu.
 Principal axes and moments of inertia in atomic units:
                           1         2         3
     Eigenvalues --     0.00000  70.73295  70.73295
           X            1.00000  -0.00000   0.00000
           Y            0.00000   1.00000   0.00000
           Z            0.00000   0.00000   1.00000
 This molecule is a prolate symmetric top.
 Rotational symmetry number  1.
 Rotational temperature (Kelvin)      1.22452
 Rotational constant (GHZ):          25.514857
    2 imaginary frequencies ignored.
 Zero-point vibrational energy      10183.7 (Joules/Mol)
                                    2.43396 (Kcal/Mol)
 Vibrational temperatures:   1224.82  1224.82
          (Kelvin)

 Zero-point correction=                           0.003879 (Hartree/Particle)
 Thermal correction to Energy=                    0.006369
 Thermal correction to Enthalpy=                  0.007313
 Thermal correction to Gibbs Free Energy=        -0.016297
 Sum of electronic and zero-point Energies=           -100.812102
 Sum of electronic and thermal Energies=              -100.809612
 Sum of electronic and thermal Enthalpies=            -100.808668
 Sum of electronic and thermal Free Energies=         -100.832278

                     E (Thermal)             CV                S
                      KCal/Mol        Cal/Mol-Kelvin    Cal/Mol-Kelvin
 Total                    3.997              6.108             49.691
 Electronic               0.000              0.000              1.377
 Translational            0.889              2.981             35.068
 Rotational               0.592              1.987             12.907
 Vibrational              2.515              1.140              0.339

 Normal termination of Gaussian 16 at Fri Aug 22 16:37:59 2025.
