 Gaussian 16, Revision C.01,
 Gaussian 16:  ES64L-G16RevC.01  3-Jul-2019

 -----------------------------------------
 # sp b3lyp/6-311g** Force nosymm scf=(qc)
 -----------------------------------------

 -------------------
 Title Card Required
 -------------------
 Symbolic Z-matrix:
 Charge =  0 Multiplicity = 2

                          Input orientation:
 ---------------------------------------------------------------------
 Center     Atomic      Atomic             Coordinates (Angstroms)
 Number     Number       Type             X           Y           Z
 ---------------------------------------------------------------------
      1          1           0        0.000000    0.000000    0.000000
      2          1           0       -3.600000    0.000000    0.000000
      3          9           0        3.200000    0.000000    0.000000
 ---------------------------------------------------------------------

 SCF Done:  E(UB3LYP) =  -100.759923278     a.u. after   22 cycles

 Alpha  occ. eigenvalues --  -24.74716  -1.20730  -0.53838  -0.45204  -0.45204
 Alpha  occ. eigenvalues --   -0.32427
 Alpha virt. eigenvalues --   -0.07441   0.24083   0.36513   0.88654   0.91893
 Alpha virt. eigenvalues --    0.91893   1.02870   1.25076   1.25076   1.25182
 Alpha virt. eigenvalues --    1.44782   1.44782   1.45032   2.14785   2.41056

  Beta  occ. eigenvalues --  -24.71646  -1.11919  -0.42128  -0.42128  -0.33291
  Beta virt. eigenvalues --   -0.25127  -0.06367   0.23890   0.38000   0.93369
  Beta virt. eigenvalues --    0.93369   0.97561   1.06735   1.24078   1.24078
  Beta virt. eigenvalues --    1.24229   1.46048   1.46278   1.46278   2.15072

 Mulliken charges and spin densities:
               1          2
     1  H    0.024145  -0.971649
     2  H    0.000248   0.998373
     3  F   -0.024393   0.973276
 Sum of Mulliken charges =  -0.00000   1.00000

 Dipole moment (field-independent basis, Debye):
    X=             -0.4054    Y=             -0.0000    Z=              0.0000  Tot=              0.4054
 Quadrupole moment (field-independent basis, Debye-Ang):
   XX=             -7.9205   YY=             -7.6151   ZZ=             -7.6151
   XY=             -0.0000   XZ=              0.0000   YZ=              0.0000

  Exact polarizability:      29.611      -0.000       2.029       0.000       0.000       2.029
 Approx polarizability:      27.155      -0.000       1.930       0.000      -0.000       1.930

 ******    2 imaginary frequencies (negative Signs) ******

                      1                      2                      3
                      A                      A                      A
 Frequencies --   -306.4204              -103.6386               102.7608
 Red. masses --      1.0436                 1.0682                 1.0194
 Frc consts  --      0.0577                 0.0068                 0.0063
 IR Inten    --     26.0898                 0.6226                 0.5405

                      4
                      A
 Frequencies --    102.7608
 Red. masses --      1.0194
 Frc consts  --      0.0063
 IR Inten    --      0.5405

 - Thermochemistry -
 -------------------
 Temperature   298.150 Kelvin.  Pressure   1.00000 Atm.
 Atom     1 has atomic number  1 and mass   1.00783

 Molecular mass:    21.01405 amu.
 Principal axes and moments of inertia in atomic units:
                           1         2         3
     Eigenvalues --     0.00000 186.01131 186.01131
           X            1.00000  -0.00000   0.00000
           Y            0.00000   1.00000   0.00000
           Z            0.00000   0.00000   1.00000
 This molecule is a prolate symmetric top.
 Rotational symmetry number  1.
 Rotational temperature (Kelvin)      0.46564
 Rotational constant (GHZ):           9.702320
    2 imaginary frequencies ignored.
 Zero-point vibrational energy       1229.3 (Joules/Mol)
                                    0.29381 (Kcal/Mol)
 Warning -- explicit consideration of   2 degrees of freedom as
           vibrations may cause significant error
 Vibrational temperatures:    147.85   147.85
          (Kelvin)

 Zero-point correction=                           0.000468 (Hartree/Particle)
 Thermal correction to Energy=                    0.004287
 Thermal correction to Enthalpy=                  0.005232
 Thermal correction to Gibbs Free Energy=        -0.022362
 Sum of electronic and zero-point Energies=           -100.759455
 Sum of electronic and thermal Energies=              -100.755636
 Sum of electronic and thermal Enthalpies=            -100.754692
 Sum of electronic and thermal Free Energies=         -100.782286

                     E (Thermal)             CV                S
                      KCal/Mol        Cal/Mol-Kelvin    Cal/Mol-Kelvin
 Total                    2.690              8.862             58.076
 Electronic               0.000              0.000              1.377
 Translational            0.889              2.981             35.068
 Rotational               0.592              1.987             14.828
 Vibrational              1.209              3.894              6.803
 Vibration     1          0.605              1.947              3.401
 Vibration     2          0.605              1.947              3.401

 Normal termination of Gaussian 16 at Fri Aug 22 20:25:01 2025.
