 Gaussian 16, Revision C.01,
 Gaussian 16:  ES64L-G16RevC.01  3-Jul-2019

 -----------------------------------------
 # sp b3lyp/6-311g** Force nosymm scf=(qc)
 -----------------------------------------

 -------------------
 Title Card Required
 -------------------
 Symbolic Z-matrix:
 Charge =  0 Multiplicity = 2

                          Input orientation:
 ---------------------------------------------------------------------
 Center     Atomic      Atomic             Coordinates (Angstroms)
 Number     Number       Type             X           Y           Z
 ---------------------------------------------------------------------
      1          1           0        0.000000    0.000000    0.000000
      2          1           0       -3.850000    0.000000    0.000000
      3          9           0        1.550000    0.000000    0.000000
 ---------------------------------------------------------------------

 SCF Done:  E(UB3LYP) =  -100.843912705     a.u. after    9 cycles

 Alpha  occ. eigenvalues --  -24.64387  -1.09553  -0.42712  -0.36360  -0.36360
 Alpha  occ. eigenvalues --   -0.33700
 Alpha virt. eigenvalues --   -0.15624   0.20311   0.27128   0.93788   0.93788
 Alpha virt. eigenvalues --    1.02611   1.07597   1.23775   1.23807   1.23807
 Alpha virt. eigenvalues --    1.30491   1.30491   1.73193   2.12697   2.18399

  Beta  occ. eigenvalues --  -24.64295  -1.09308  -0.42514  -0.36272  -0.36272
  Beta virt. eigenvalues --   -0.15902  -0.06271   0.22767   0.38235   0.93745
  Beta virt. eigenvalues --    0.93745   1.02771   1.07562   1.29992   1.29992
  Beta virt. eigenvalues --    1.46314   1.46655   1.46655   1.72974   2.16509

 Mulliken charges and spin densities:
               1          2
     1  H    0.344547  -0.028304
     2  H    0.000839   0.999115
     3  F   -0.345386   0.029189
 Sum of Mulliken charges =  -0.00000   1.00000

 Dipole moment (field-independent basis, Debye):
    X=             -2.6405    Y=             -0.0000    Z=             -0.0000  Tot=              2.6405
 Quadrupole moment (field-independent basis, Debye-Ang):
   XX=            -10.1351   YY=             -7.3474   ZZ=             -7.3474
   XY=             -0.0000   XZ=             -0.0000   YZ=              0.0000

  Exact polarizability:      16.015       0.000       2.164       0.000       0.000       2.164
 Approx polarizability:      32.089      -0.000       2.085       0.000       0.000       2.085

 ******    2 imaginary frequencies (negative Signs) ******

                      1                      2                      3
                      A                      A                      A
 Frequencies --  -1269.9327               -55.5457               982.3482
 Red. masses --      1.0577                 1.0538                 1.0316
 Frc consts  --      1.0050                 0.0019                 0.5865
 IR Inten    --     23.4651                 0.0477               115.1880

                      4
                      A
 Frequencies --    982.3482
 Red. masses --      1.0316
 Frc consts  --      0.5865
 IR Inten    --    115.1880

 - Thermochemistry -
 -------------------
 Temperature   298.150 Kelvin.  Pressure   1.00000 Atm.
 Atom     1 has atomic number  1 and mass   1.00783

 Molecular mass:    21.01405 amu.
 Principal axes and moments of inertia in atomic units:
                           1         2         3
     Eigenvalues --     0.00000 105.25636 105.25636
           X            1.00000  -0.00000   0.00000
           Y            0.00000   1.00000   0.00000
           Z            0.00000   0.00000   1.00000
 This molecule is a prolate symmetric top.
 Rotational symmetry number  1.
 Rotational temperature (Kelvin)      0.82289
 Rotational constant (GHZ):          17.146148
    2 imaginary frequencies ignored.
 Zero-point vibrational energy      11751.5 (Joules/Mol)
                                    2.80867 (Kcal/Mol)
 Vibrational temperatures:   1413.38  1413.38
          (Kelvin)

 Zero-point correction=                           0.004476 (Hartree/Particle)
 Thermal correction to Energy=                    0.006915
 Thermal correction to Enthalpy=                  0.007859
 Thermal correction to Gibbs Free Energy=        -0.016060
 Sum of electronic and zero-point Energies=           -100.839437
 Sum of electronic and thermal Energies=              -100.836997
 Sum of electronic and thermal Enthalpies=            -100.836053
 Sum of electronic and thermal Free Energies=         -100.859973

                     E (Thermal)             CV                S
                      KCal/Mol        Cal/Mol-Kelvin    Cal/Mol-Kelvin
 Total                    4.339              5.762             50.343
 Electronic               0.000              0.000              1.377
 Translational            0.889              2.981             35.068
 Rotational               0.592              1.987             13.697
 Vibrational              2.858              0.794              0.201

 Normal termination of Gaussian 16 at Fri Aug 22 16:29:43 2025.
