 Gaussian 16, Revision C.01,
 Gaussian 16:  ES64L-G16RevC.01  3-Jul-2019

 -----------------------------------------
 # sp b3lyp/6-311g** Force nosymm scf=(qc)
 -----------------------------------------

 -------------------
 Title Card Required
 -------------------
 Symbolic Z-matrix:
 Charge =  0 Multiplicity = 2

                          Input orientation:
 ---------------------------------------------------------------------
 Center     Atomic      Atomic             Coordinates (Angstroms)
 Number     Number       Type             X           Y           Z
 ---------------------------------------------------------------------
      1          1           0        0.000000    0.000000    0.000000
      2          1           0       -3.200000    0.000000    0.000000
      3          9           0        1.750000    0.000000    0.000000
 ---------------------------------------------------------------------

 SCF Done:  E(UB3LYP) =  -100.810931908     a.u. after   19 cycles

 Alpha  occ. eigenvalues --  -24.66147  -1.12253  -0.44876  -0.37944  -0.37944
 Alpha  occ. eigenvalues --   -0.34110
 Alpha virt. eigenvalues --   -0.15062   0.21743   0.29695   0.94526   0.94691
 Alpha virt. eigenvalues --    0.94691   1.06066   1.23418   1.23418   1.23737
 Alpha virt. eigenvalues --    1.33379   1.33379   1.71662   2.13856   2.24875

  Beta  occ. eigenvalues --  -24.64425  -1.07534  -0.39741  -0.36269  -0.36269
  Beta virt. eigenvalues --   -0.18859  -0.07715   0.22352   0.37319   0.94560
  Beta virt. eigenvalues --    0.94560   0.95206   1.07882   1.24513   1.24513
  Beta virt. eigenvalues --    1.44550   1.44995   1.44995   1.67445   2.12717

 Mulliken charges and spin densities:
               1          2
     1  H    0.270945  -0.536897
     2  H    0.004265   0.994664
     3  F   -0.275209   0.542233
 Sum of Mulliken charges =  -0.00000   1.00000

 Dipole moment (field-independent basis, Debye):
    X=             -2.4135    Y=             -0.0000    Z=             -0.0000  Tot=              2.4135
 Quadrupole moment (field-independent basis, Debye-Ang):
   XX=            -10.0567   YY=             -7.4282   ZZ=             -7.4282
   XY=             -0.0000   XZ=             -0.0000   YZ=              0.0000

  Exact polarizability:      24.424      -0.000       2.108       0.000      -0.000       2.108
 Approx polarizability:      37.208       0.000       2.003      -0.000       0.000       2.003

 ******    2 imaginary frequencies (negative Signs) ******

                      1                      2                      3
                      A                      A                      A
 Frequencies --  -1627.6280              -162.9959               708.5729
 Red. masses --      1.0569                 1.0547                 1.0266
 Frc consts  --      1.6496                 0.0165                 0.3037
 IR Inten    --    119.4891                 1.1161                66.9334

                      4
                      A
 Frequencies --    708.5729
 Red. masses --      1.0266
 Frc consts  --      0.3037
 IR Inten    --     66.9334

 - Thermochemistry -
 -------------------
 Temperature   298.150 Kelvin.  Pressure   1.00000 Atm.
 Atom     1 has atomic number  1 and mass   1.00783

 Molecular mass:    21.01405 amu.
 Principal axes and moments of inertia in atomic units:
                           1         2         3
     Eigenvalues --     0.00000  91.45835  91.45835
           X            1.00000  -0.00000   0.00000
           Y            0.00000   1.00000   0.00000
           Z            0.00000   0.00000   1.00000
 This molecule is a prolate symmetric top.
 Rotational symmetry number  1.
 Rotational temperature (Kelvin)      0.94703
 Rotational constant (GHZ):          19.732931
    2 imaginary frequencies ignored.
 Zero-point vibrational energy       8476.4 (Joules/Mol)
                                    2.02591 (Kcal/Mol)
 Vibrational temperatures:   1019.48  1019.48
          (Kelvin)

 Zero-point correction=                           0.003228 (Hartree/Particle)
 Thermal correction to Energy=                    0.005807
 Thermal correction to Enthalpy=                  0.006752
 Thermal correction to Gibbs Free Energy=        -0.017221
 Sum of electronic and zero-point Energies=           -100.807703
 Sum of electronic and thermal Energies=              -100.805124
 Sum of electronic and thermal Enthalpies=            -100.804180
 Sum of electronic and thermal Free Energies=         -100.828153

                     E (Thermal)             CV                S
                      KCal/Mol        Cal/Mol-Kelvin    Cal/Mol-Kelvin
 Total                    3.644              6.594             50.455
 Electronic               0.000              0.000              1.377
 Translational            0.889              2.981             35.068
 Rotational               0.592              1.987             13.418
 Vibrational              2.163              1.626              0.592

 Normal termination of Gaussian 16 at Fri Aug 22 16:41:32 2025.
