 Gaussian 16, Revision C.01,
 Gaussian 16:  ES64L-G16RevC.01  3-Jul-2019

 -----------------------------------------
 # sp b3lyp/6-311g** Force nosymm scf=(qc)
 -----------------------------------------

 -------------------
 Title Card Required
 -------------------
 Symbolic Z-matrix:
 Charge =  0 Multiplicity = 2

                          Input orientation:
 ---------------------------------------------------------------------
 Center     Atomic      Atomic             Coordinates (Angstroms)
 Number     Number       Type             X           Y           Z
 ---------------------------------------------------------------------
      1          1           0        0.000000    0.000000    0.000000
      2          1           0       -3.600000    0.000000    0.000000
      3          9           0        0.950000    0.000000    0.000000
 ---------------------------------------------------------------------

 SCF Done:  E(UB3LYP) =  -100.971010866     a.u. after    6 cycles

 Alpha  occ. eigenvalues --  -24.64108  -1.17445  -0.52742  -0.39216  -0.39216
 Alpha  occ. eigenvalues --   -0.33579
 Alpha virt. eigenvalues --    0.01920   0.24028   0.36932   0.94219   0.94219
 Alpha virt. eigenvalues --    0.98131   1.23808   1.23932   1.23932   1.29398
 Alpha virt. eigenvalues --    1.36473   1.36473   1.95781   2.14241   2.34845

  Beta  occ. eigenvalues --  -24.64107  -1.17441  -0.52739  -0.39214  -0.39214
  Beta virt. eigenvalues --   -0.05514   0.02413   0.35669   0.39888   0.94219
  Beta virt. eigenvalues --    0.94219   0.98130   1.29230   1.36472   1.36472
  Beta virt. eigenvalues --    1.50239   1.50693   1.50693   1.95842   2.34696

 Mulliken charges and spin densities:
               1          2
     1  H    0.307907   0.000482
     2  H    0.000764   0.999109
     3  F   -0.308670   0.000409
 Sum of Mulliken charges =   0.00000   1.00000

 Dipole moment (field-independent basis, Debye):
    X=             -1.9639    Y=             -0.0000    Z=              0.0000  Tot=              1.9639
 Quadrupole moment (field-independent basis, Debye-Ang):
   XX=             -8.0775   YY=             -6.9164   ZZ=             -6.9164
   XY=             -0.0000   XZ=              0.0000   YZ=              0.0000

  Exact polarizability:       6.026      -0.000       2.412       0.000      -0.000       2.412
 Approx polarizability:       7.220      -0.000       2.388      -0.000      -0.000       2.388

 ******    1 imaginary frequencies (negative Signs) ******

                      1                      2                      3
                      A                      A                      A
 Frequencies --    -42.6857               676.9894               676.9894
 Red. masses --      1.0532                 1.0381                 1.0381
 Frc consts  --      0.0011                 0.2803                 0.2803
 IR Inten    --      0.0342               175.5803               175.5803

                      4
                      A
 Frequencies --   3679.7719
 Red. masses --      1.0583
 Frc consts  --      8.4433
 IR Inten    --     94.0759

 - Thermochemistry -
 -------------------
 Temperature   298.150 Kelvin.  Pressure   1.00000 Atm.
 Atom     1 has atomic number  1 and mass   1.00783

 Molecular mass:    21.01405 amu.
 Principal axes and moments of inertia in atomic units:
                           1         2         3
     Eigenvalues --     0.00000  72.53522  72.53522
           X            1.00000  -0.00000   0.00000
           Y            0.00000   1.00000   0.00000
           Z            0.00000   0.00000   1.00000
 This molecule is a prolate symmetric top.
 Rotational symmetry number  1.
 Rotational temperature (Kelvin)      1.19409
 Rotational constant (GHZ):          24.880895
    1 imaginary frequencies ignored.
 Zero-point vibrational energy      30108.5 (Joules/Mol)
                                    7.19611 (Kcal/Mol)
 Vibrational temperatures:    974.04   974.04  5294.37
          (Kelvin)

 Zero-point correction=                           0.011468 (Hartree/Particle)
 Thermal correction to Energy=                    0.014073
 Thermal correction to Enthalpy=                  0.015017
 Thermal correction to Gibbs Free Energy=        -0.008774
 Sum of electronic and zero-point Energies=           -100.959543
 Sum of electronic and thermal Energies=              -100.956938
 Sum of electronic and thermal Enthalpies=            -100.955994
 Sum of electronic and thermal Free Energies=         -100.979785

                     E (Thermal)             CV                S
                      KCal/Mol        Cal/Mol-Kelvin    Cal/Mol-Kelvin
 Total                    8.831              6.716             50.072
 Electronic               0.000              0.000              1.377
 Translational            0.889              2.981             35.068
 Rotational               0.592              1.987             12.957
 Vibrational              7.350              1.748              0.669

 Normal termination of Gaussian 16 at Fri Aug 22 15:59:12 2025.
