 Gaussian 16, Revision C.01,
 Gaussian 16:  ES64L-G16RevC.01  3-Jul-2019

 -----------------------------------------
 # sp b3lyp/6-311g** Force nosymm scf=(qc)
 -----------------------------------------

 -------------------
 Title Card Required
 -------------------
 Symbolic Z-matrix:
 Charge =  0 Multiplicity = 2

                          Input orientation:
 ---------------------------------------------------------------------
 Center     Atomic      Atomic             Coordinates (Angstroms)
 Number     Number       Type             X           Y           Z
 ---------------------------------------------------------------------
      1          1           0        0.000000    0.000000    0.000000
      2          1           0       -2.450000    0.000000    0.000000
      3          9           0        0.500000    0.000000    0.000000
 ---------------------------------------------------------------------

 SCF Done:  E(UB3LYP) =  -100.269000896     a.u. after    6 cycles

 Alpha  occ. eigenvalues --  -24.63006  -1.42319  -0.63504  -0.44301  -0.44301
 Alpha  occ. eigenvalues --   -0.34238
 Alpha virt. eigenvalues --    0.09704   0.25630   0.61362   0.89165   0.90191
 Alpha virt. eigenvalues --    0.90191   1.18517   1.23315   1.23315   1.49755
 Alpha virt. eigenvalues --    1.58534   1.58534   1.99025   2.16872   3.76665

  Beta  occ. eigenvalues --  -24.62998  -1.42297  -0.63489  -0.44299  -0.44299
  Beta virt. eigenvalues --   -0.07715   0.11022   0.38558   0.60794   0.89284
  Beta virt. eigenvalues --    0.90172   0.90172   1.31901   1.45984   1.45984
  Beta virt. eigenvalues --    1.58523   1.58523   1.59994   2.00677   2.45916

 Mulliken charges and spin densities:
               1          2
     1  H    0.116224   0.004055
     2  H    0.005020   0.993994
     3  F   -0.121244   0.001950
 Sum of Mulliken charges =   0.00000   1.00000

 Dipole moment (field-independent basis, Debye):
    X=             -1.3431    Y=             -0.0000    Z=             -0.0000  Tot=              1.3431
 Quadrupole moment (field-independent basis, Debye-Ang):
   XX=             -6.4954   YY=             -6.4312   ZZ=             -6.4312
   XY=             -0.0000   XZ=             -0.0000   YZ=              0.0000

  Exact polarizability:       4.436       0.000       2.434      -0.000      -0.000       2.434
 Approx polarizability:       4.383       0.000       2.417       0.000      -0.000       2.417

 ******    2 imaginary frequencies (negative Signs) ******

                      1                      2                      3
                      A                      A                      A
 Frequencies --  -9537.3192             -9537.3192               161.8732
 Red. masses --      1.0417                 1.0417                 1.0533
 Frc consts  --     55.8275                55.8275                 0.0163
 IR Inten    --    263.9799               263.9799                 0.1039

                      4
                      A
 Frequencies --  19158.8483
 Red. masses --      1.0583
 Frc consts  --    228.8762
 IR Inten    --     84.4045

 - Thermochemistry -
 -------------------
 Temperature   298.150 Kelvin.  Pressure   1.00000 Atm.
 Atom     1 has atomic number  1 and mass   1.00783

 Molecular mass:    21.01405 amu.
 Principal axes and moments of inertia in atomic units:
                           1         2         3
     Eigenvalues --     0.00000  30.16567  30.16567
           X            1.00000  -0.00000   0.00000
           Y            0.00000   1.00000   0.00000
           Z            0.00000   0.00000   1.00000
 This molecule is a prolate symmetric top.
 Rotational symmetry number  1.
 Rotational temperature (Kelvin)      2.87127
 Rotational constant (GHZ):          59.827652
    2 imaginary frequencies ignored.
 Zero-point vibrational energy     115563.6 (Joules/Mol)
                                   27.62036 (Kcal/Mol)
 Warning -- explicit consideration of   1 degrees of freedom as
           vibrations may cause significant error
 Vibrational temperatures:    232.90 27565.31
          (Kelvin)

 Zero-point correction=                           0.044016 (Hartree/Particle)
 Thermal correction to Energy=                    0.046999
 Thermal correction to Enthalpy=                  0.047943
 Thermal correction to Gibbs Free Energy=         0.024098
 Sum of electronic and zero-point Energies=           -100.224985
 Sum of electronic and thermal Energies=              -100.222002
 Sum of electronic and thermal Enthalpies=            -100.221057
 Sum of electronic and thermal Free Energies=         -100.244903

                     E (Thermal)             CV                S
                      KCal/Mol        Cal/Mol-Kelvin    Cal/Mol-Kelvin
 Total                   29.492              6.857             50.187
 Electronic               0.000              0.000              1.377
 Translational            0.889              2.981             35.068
 Rotational               0.592              1.987             11.213
 Vibrational             28.011              1.889              2.528
 Vibration     1          0.622              1.889              2.528

 Normal termination of Gaussian 16 at Fri Aug 22 15:37:13 2025.
