 Gaussian 16, Revision C.01,
 Gaussian 16:  ES64L-G16RevC.01  3-Jul-2019

 -----------------------------------------
 # sp b3lyp/6-311g** Force nosymm scf=(qc)
 -----------------------------------------

 -------------------
 Title Card Required
 -------------------
 Symbolic Z-matrix:
 Charge =  0 Multiplicity = 2

                          Input orientation:
 ---------------------------------------------------------------------
 Center     Atomic      Atomic             Coordinates (Angstroms)
 Number     Number       Type             X           Y           Z
 ---------------------------------------------------------------------
      1          1           0        0.000000    0.000000    0.000000
      2          1           0       -1.150000    0.000000    0.000000
      3          9           0        1.200000    0.000000    0.000000
 ---------------------------------------------------------------------

 SCF Done:  E(UB3LYP) =  -100.941649980     a.u. after    7 cycles

 Alpha  occ. eigenvalues --  -24.64829  -1.13789  -0.53311  -0.38195  -0.38195
 Alpha  occ. eigenvalues --   -0.37881
 Alpha virt. eigenvalues --    0.05880   0.19347   0.33548   0.91193   0.91193
 Alpha virt. eigenvalues --    0.99613   1.09038   1.09038   1.25081   1.54315
 Alpha virt. eigenvalues --    1.54315   1.58544   2.15269   2.31821   2.48875

  Beta  occ. eigenvalues --  -24.63661  -1.10790  -0.47245  -0.37115  -0.37115
  Beta virt. eigenvalues --   -0.20838   0.08736   0.22106   0.37260   0.92077
  Beta virt. eigenvalues --    0.92077   1.02225   1.14974   1.14974   1.30654
  Beta virt. eigenvalues --    1.58012   1.58012   1.62030   2.26999   2.30410

 Mulliken charges and spin densities:
               1          2
     1  H    0.273741  -0.066780
     2  H    0.050214   0.728852
     3  F   -0.323954   0.337928
 Sum of Mulliken charges =   0.00000   1.00000

 Dipole moment (field-independent basis, Debye):
    X=             -2.3743    Y=              0.0000    Z=              0.0000  Tot=              2.3743
 Quadrupole moment (field-independent basis, Debye-Ang):
   XX=             -7.7817   YY=             -6.8903   ZZ=             -6.8903
   XY=              0.0000   XZ=              0.0000   YZ=              0.0000

  Exact polarizability:      21.621      -0.000       2.504       0.000      -0.000       2.504
 Approx polarizability:      28.716       0.000       2.496       0.000      -0.000       2.496

 ******    1 imaginary frequencies (negative Signs) ******

                      1                      2                      3
                      A                      A                      A
 Frequencies --  -2268.1448               939.3079              1066.9476
 Red. masses --      1.0218                 1.0920                 1.0174
 Frc consts  --      3.0972                 0.5677                 0.6824
 IR Inten    --    124.6451                46.7679                37.9280

                      4
                      A
 Frequencies --   1066.9476
 Red. masses --      1.0174
 Frc consts  --      0.6824
 IR Inten    --     37.9280

 - Thermochemistry -
 -------------------
 Temperature   298.150 Kelvin.  Pressure   1.00000 Atm.
 Atom     1 has atomic number  1 and mass   1.00783

 Molecular mass:    21.01405 amu.
 Principal axes and moments of inertia in atomic units:
                           1         2         3
     Eigenvalues --     0.00000  22.88282  22.88282
           X            1.00000  -0.00000   0.00000
           Y            0.00000   1.00000   0.00000
           Z            0.00000   0.00000   1.00000
 This molecule is a prolate symmetric top.
 Rotational symmetry number  1.
 Rotational temperature (Kelvin)      3.78511
 Rotational constant (GHZ):          78.868834
    1 imaginary frequencies ignored.
 Zero-point vibrational energy      18381.8 (Joules/Mol)
                                    4.39336 (Kcal/Mol)
 Vibrational temperatures:   1351.45  1535.10  1535.10
          (Kelvin)

 Zero-point correction=                           0.007001 (Hartree/Particle)
 Thermal correction to Energy=                    0.009465
 Thermal correction to Enthalpy=                  0.010409
 Thermal correction to Gibbs Free Energy=        -0.012099
 Sum of electronic and zero-point Energies=           -100.934649
 Sum of electronic and thermal Energies=              -100.932185
 Sum of electronic and thermal Enthalpies=            -100.931241
 Sum of electronic and thermal Free Energies=         -100.953749

                     E (Thermal)             CV                S
                      KCal/Mol        Cal/Mol-Kelvin    Cal/Mol-Kelvin
 Total                    5.939              6.036             47.372
 Electronic               0.000              0.000              1.377
 Translational            0.889              2.981             35.068
 Rotational               0.592              1.987             10.664
 Vibrational              4.458              1.067              0.262

 Normal termination of Gaussian 16 at Fri Aug 22 16:09:33 2025.
