 Gaussian 16, Revision C.01,
 Gaussian 16:  ES64L-G16RevC.01  3-Jul-2019

 -----------------------------------------
 # sp b3lyp/6-311g** Force nosymm scf=(qc)
 -----------------------------------------

 -------------------
 Title Card Required
 -------------------
 Symbolic Z-matrix:
 Charge =  0 Multiplicity = 2

                          Input orientation:
 ---------------------------------------------------------------------
 Center     Atomic      Atomic             Coordinates (Angstroms)
 Number     Number       Type             X           Y           Z
 ---------------------------------------------------------------------
      1          1           0        0.000000    0.000000    0.000000
      2          1           0       -0.500000    0.000000    0.000000
      3          9           0        1.750000    0.000000    0.000000
 ---------------------------------------------------------------------

 SCF Done:  E(UB3LYP) =  -100.859816566     a.u. after    6 cycles

 Alpha  occ. eigenvalues --  -24.74463  -1.20794  -0.57388  -0.48269  -0.45176
 Alpha  occ. eigenvalues --   -0.45176
 Alpha virt. eigenvalues --    0.12198   0.19729   0.53106   0.89506   0.89506
 Alpha virt. eigenvalues --    0.95467   1.11830   1.11830   1.25040   1.67720
 Alpha virt. eigenvalues --    1.84444   1.99093   1.99093   2.50488   3.68906

  Beta  occ. eigenvalues --  -24.71431  -1.12237  -0.51558  -0.42174  -0.42174
  Beta virt. eigenvalues --   -0.24785   0.12705   0.20374   0.54375   0.90814
  Beta virt. eigenvalues --    0.90814   1.02727   1.12698   1.12698   1.28712
  Beta virt. eigenvalues --    1.69288   1.85149   1.99420   1.99420   2.51639

 Mulliken charges and spin densities:
               1          2
     1  H    0.033626  -0.022982
     2  H    0.013686   0.083435
     3  F   -0.047312   0.939547
 Sum of Mulliken charges =   0.00000   1.00000

 Dipole moment (field-independent basis, Debye):
    X=             -0.4124    Y=             -0.0000    Z=             -0.0000  Tot=              0.4124
 Quadrupole moment (field-independent basis, Debye-Ang):
   XX=             -6.0212   YY=             -6.5350   ZZ=             -6.5350
   XY=             -0.0000   XZ=             -0.0000   YZ=             -0.0000

  Exact polarizability:      11.450      -0.000       2.061       0.000       0.000       2.061
 Approx polarizability:      12.214       0.000       2.133       0.000       0.000       2.133

 ******    2 imaginary frequencies (negative Signs) ******

                      1                      2                      3
                      A                      A                      A
 Frequencies --  -4868.4810             -4868.4810               406.9055
 Red. masses --      1.0094                 1.0094                 1.1085
 Frc consts  --     14.0959                14.0959                 0.1081
 IR Inten    --      0.4777                 0.4777                25.8149

                      4
                      A
 Frequencies --   9913.8364
 Red. masses --      1.0078
 Frc consts  --     58.3605
 IR Inten    --    201.7290

 - Thermochemistry -
 -------------------
 Temperature   298.150 Kelvin.  Pressure   1.00000 Atm.
 Atom     1 has atomic number  1 and mass   1.00783

 Molecular mass:    21.01405 amu.
 Principal axes and moments of inertia in atomic units:
                           1         2         3
     Eigenvalues --     0.00000  26.48023  26.48023
           X            1.00000  -0.00000   0.00000
           Y            0.00000   1.00000   0.00000
           Z            0.00000   0.00000   1.00000
 This molecule is a prolate symmetric top.
 Rotational symmetry number  1.
 Rotational temperature (Kelvin)      3.27089
 Rotational constant (GHZ):          68.154278
    2 imaginary frequencies ignored.
 Zero-point vibrational energy      61731.7 (Joules/Mol)
                                   14.75424 (Kcal/Mol)
 Warning -- explicit consideration of   1 degrees of freedom as
           vibrations may cause significant error
 Vibrational temperatures:    585.45 14263.80
          (Kelvin)

 Zero-point correction=                           0.023512 (Hartree/Particle)
 Thermal correction to Energy=                    0.026176
 Thermal correction to Enthalpy=                  0.027120
 Thermal correction to Gibbs Free Energy=         0.004153
 Sum of electronic and zero-point Energies=           -100.836304
 Sum of electronic and thermal Energies=              -100.833641
 Sum of electronic and thermal Enthalpies=            -100.832697
 Sum of electronic and thermal Free Energies=         -100.855664

                     E (Thermal)             CV                S
                      KCal/Mol        Cal/Mol-Kelvin    Cal/Mol-Kelvin
 Total                   16.425              6.423             48.338
 Electronic               0.000              0.000              1.377
 Translational            0.889              2.981             35.068
 Rotational               0.592              1.987             10.955
 Vibrational             14.944              1.455              0.938
 Vibration     1          0.772              1.455              0.938

 Normal termination of Gaussian 16 at Fri Aug 22 16:39:09 2025.
