 Gaussian 16, Revision C.01,
 Gaussian 16:  ES64L-G16RevC.01  3-Jul-2019

 -----------------------------------------
 # sp b3lyp/6-311g** Force nosymm scf=(qc)
 -----------------------------------------

 -------------------
 Title Card Required
 -------------------
 Symbolic Z-matrix:
 Charge =  0 Multiplicity = 2

                          Input orientation:
 ---------------------------------------------------------------------
 Center     Atomic      Atomic             Coordinates (Angstroms)
 Number     Number       Type             X           Y           Z
 ---------------------------------------------------------------------
      1          1           0        0.000000    0.000000    0.000000
      2          1           0       -0.600000    0.000000    0.000000
      3          9           0        3.800000    0.000000    0.000000
 ---------------------------------------------------------------------

 SCF Done:  E(UB3LYP) =  -100.914520734     a.u. after   45 cycles

 Alpha  occ. eigenvalues --  -24.76219  -1.22099  -0.55302  -0.46656  -0.46457
 Alpha  occ. eigenvalues --   -0.46422
 Alpha virt. eigenvalues --    0.08418   0.18883   0.51803   0.86083   0.90959
 Alpha virt. eigenvalues --    0.92256   1.01407   1.10199   1.10201   1.60478
 Alpha virt. eigenvalues --    1.81572   1.92742   1.92745   2.36949   3.64921

  Beta  occ. eigenvalues --  -24.73063  -1.13023  -0.46603  -0.43310  -0.43293
  Beta virt. eigenvalues --   -0.25947   0.08429   0.18889   0.51847   0.92459
  Beta virt. eigenvalues --    0.93748   0.95548   1.05506   1.10199   1.10201
  Beta virt. eigenvalues --    1.60482   1.81587   1.92742   1.92745   2.36949

 Mulliken charges and spin densities:
               1          2
     1  H   -0.000848  -0.000308
     2  H   -0.001485   0.000053
     3  F    0.002333   1.000255
 Sum of Mulliken charges =   0.00000   1.00000

 Dipole moment (field-independent basis, Debye):
    X=              0.0298    Y=             -0.0000    Z=             -0.0000  Tot=              0.0298
 Quadrupole moment (field-independent basis, Debye-Ang):
   XX=             -6.2117   YY=             -6.7371   ZZ=             -5.8726
   XY=             -0.0000   XZ=              0.0000   YZ=             -0.0018

  Exact polarizability:       6.314       0.000       1.867       0.000      -0.001       2.333
 Approx polarizability:       6.898      -0.000       1.949       0.000      -0.001       2.531

 ******    3 imaginary frequencies (negative Signs) ******

                      1                      2                      3
                      A                      A                      A
 Frequencies --  -2766.5624             -2765.9958               -53.1193
 Red. masses --      1.0084                 1.0084                 1.1085
 Frc consts  --      4.5472                 4.5454                 0.0018
 IR Inten    --      0.0006                 0.0005                 0.0790

                      4
                      A
 Frequencies --   7042.5734
 Red. masses --      1.0078
 Frc consts  --     29.4509
 IR Inten    --      0.0298

 - Thermochemistry -
 -------------------
 Temperature   298.150 Kelvin.  Pressure   1.00000 Atm.
 Atom     1 has atomic number  1 and mass   1.00783

 Molecular mass:    21.01405 amu.
 Principal axes and moments of inertia in atomic units:
                           1         2         3
     Eigenvalues --     0.00000 110.04040 110.04040
           X            1.00000  -0.00000   0.00000
           Y            0.00000   1.00000   0.00000
           Z            0.00000   0.00000   1.00000
 This molecule is a prolate symmetric top.
 Rotational symmetry number  1.
 Rotational temperature (Kelvin)      0.78711
 Rotational constant (GHZ):          16.400715
    3 imaginary frequencies ignored.
 Zero-point vibrational energy      42123.9 (Joules/Mol)
                                   10.06786 (Kcal/Mol)
 Vibrational temperatures:  10132.69
          (Kelvin)

 Zero-point correction=                           0.016044 (Hartree/Particle)
 Thermal correction to Energy=                    0.018405
 Thermal correction to Enthalpy=                  0.019349
 Thermal correction to Gibbs Free Energy=        -0.004517
 Sum of electronic and zero-point Energies=           -100.898477
 Sum of electronic and thermal Energies=              -100.896116
 Sum of electronic and thermal Enthalpies=            -100.895172
 Sum of electronic and thermal Free Energies=         -100.919038

                     E (Thermal)             CV                S
                      KCal/Mol        Cal/Mol-Kelvin    Cal/Mol-Kelvin
 Total                   11.549              4.968             50.231
 Electronic               0.000              0.000              1.377
 Translational            0.889              2.981             35.068
 Rotational               0.592              1.987             13.785
 Vibrational             10.068              0.000              0.000

 Normal termination of Gaussian 16 at Sat Aug 23 00:29:17 2025.
