 Gaussian 16, Revision C.01,
 Gaussian 16:  ES64L-G16RevC.01  3-Jul-2019

 -----------------------------------------
 # sp b3lyp/6-311g** Force nosymm scf=(qc)
 -----------------------------------------

 -------------------
 Title Card Required
 -------------------
 Symbolic Z-matrix:
 Charge =  0 Multiplicity = 2

                          Input orientation:
 ---------------------------------------------------------------------
 Center     Atomic      Atomic             Coordinates (Angstroms)
 Number     Number       Type             X           Y           Z
 ---------------------------------------------------------------------
      1          1           0        0.000000    0.000000    0.000000
      2          1           0       -1.600000    0.000000    0.000000
      3          9           0        2.000000    0.000000    0.000000
 ---------------------------------------------------------------------

 SCF Done:  E(UB3LYP) =  -100.824817580     a.u. after   12 cycles

 Alpha  occ. eigenvalues --  -24.69204  -1.15563  -0.48587  -0.40606  -0.40606
 Alpha  occ. eigenvalues --   -0.37646
 Alpha virt. eigenvalues --   -0.11506   0.22723   0.30841   0.85080   0.94233
 Alpha virt. eigenvalues --    0.94233   1.02907   1.18185   1.18185   1.28399
 Alpha virt. eigenvalues --    1.36570   1.36570   1.76284   2.17197   2.40811

  Beta  occ. eigenvalues --  -24.66689  -1.08501  -0.38120  -0.38120  -0.37371
  Beta virt. eigenvalues --   -0.23009  -0.09962   0.25097   0.30513   0.88703
  Beta virt. eigenvalues --    0.95158   0.95158   1.07097   1.20392   1.20392
  Beta virt. eigenvalues --    1.33330   1.37295   1.37295   1.77559   2.17985

 Mulliken charges and spin densities:
               1          2
     1  H    0.099483  -0.438053
     2  H    0.061903   0.647990
     3  F   -0.161386   0.790064
 Sum of Mulliken charges =  -0.00000   1.00000

 Dipole moment (field-independent basis, Debye):
    X=             -2.0779    Y=             -0.0000    Z=              0.0000  Tot=              2.0779
 Quadrupole moment (field-independent basis, Debye-Ang):
   XX=             -7.9375   YY=             -7.5420   ZZ=             -7.5420
   XY=             -0.0000   XZ=              0.0000   YZ=              0.0000

  Exact polarizability:      53.254      -0.000       2.098       0.000      -0.000       2.098
 Approx polarizability:      77.383       0.000       2.038      -0.000      -0.000       2.038

 ******    2 imaginary frequencies (negative Signs) ******

                      1                      2                      3
                      A                      A                      A
 Frequencies --  -2118.7120              -527.0657               969.7450
 Red. masses --      1.0121                 1.1034                 1.0155
 Frc consts  --      2.6769                 0.1806                 0.5626
 IR Inten    --    525.7922                23.4078                 3.3922

                      4
                      A
 Frequencies --    969.7450
 Red. masses --      1.0155
 Frc consts  --      0.5626
 IR Inten    --      3.3922

 - Thermochemistry -
 -------------------
 Temperature   298.150 Kelvin.  Pressure   1.00000 Atm.
 Atom     1 has atomic number  1 and mass   1.00783

 Molecular mass:    21.01405 amu.
 Principal axes and moments of inertia in atomic units:
                           1         2         3
     Eigenvalues --     0.00000  55.62623  55.62623
           X            1.00000  -0.00000   0.00000
           Y            0.00000   1.00000   0.00000
           Z            0.00000   0.00000   1.00000
 This molecule is a prolate symmetric top.
 Rotational symmetry number  1.
 Rotational temperature (Kelvin)      1.55707
 Rotational constant (GHZ):          32.444067
    2 imaginary frequencies ignored.
 Zero-point vibrational energy      11600.7 (Joules/Mol)
                                    2.77264 (Kcal/Mol)
 Vibrational temperatures:   1395.25  1395.25
          (Kelvin)

 Zero-point correction=                           0.004418 (Hartree/Particle)
 Thermal correction to Energy=                    0.006862
 Thermal correction to Enthalpy=                  0.007806
 Thermal correction to Gibbs Free Energy=        -0.015517
 Sum of electronic and zero-point Energies=           -100.820399
 Sum of electronic and thermal Energies=              -100.817956
 Sum of electronic and thermal Enthalpies=            -100.817012
 Sum of electronic and thermal Free Energies=         -100.840334

                     E (Thermal)             CV                S
                      KCal/Mol        Cal/Mol-Kelvin    Cal/Mol-Kelvin
 Total                    4.306              5.791             49.086
 Electronic               0.000              0.000              1.377
 Translational            0.889              2.981             35.068
 Rotational               0.592              1.987             12.430
 Vibrational              2.825              0.823              0.211

 Normal termination of Gaussian 16 at Fri Aug 22 16:56:08 2025.
