 Gaussian 16, Revision C.01,
 Gaussian 16:  ES64L-G16RevC.01  3-Jul-2019

 -----------------------------------------
 # sp b3lyp/6-311g** Force nosymm scf=(qc)
 -----------------------------------------

 -------------------
 Title Card Required
 -------------------
 Symbolic Z-matrix:
 Charge =  0 Multiplicity = 2

                          Input orientation:
 ---------------------------------------------------------------------
 Center     Atomic      Atomic             Coordinates (Angstroms)
 Number     Number       Type             X           Y           Z
 ---------------------------------------------------------------------
      1          1           0        0.000000    0.000000    0.000000
      2          1           0       -2.700000    0.000000    0.000000
      3          9           0        2.100000    0.000000    0.000000
 ---------------------------------------------------------------------

 SCF Done:  E(UB3LYP) =  -100.757120899     a.u. after   16 cycles

 Alpha  occ. eigenvalues --  -24.63730  -1.07964  -0.38687  -0.35990  -0.35385
 Alpha  occ. eigenvalues --   -0.34256
 Alpha virt. eigenvalues --   -0.23380   0.21366   0.26721   0.90796   0.97865
 Alpha virt. eigenvalues --    0.97894   1.09768   1.21696   1.21696   1.22937
 Alpha virt. eigenvalues --    1.22943   1.23281   1.48401   2.12691   2.14326

  Beta  occ. eigenvalues --  -24.63747  -1.08014  -0.38426  -0.35403  -0.34598
  Beta virt. eigenvalues --   -0.23471  -0.09969   0.24893   0.34747   0.91137
  Beta virt. eigenvalues --    0.97882   0.97909   1.09991   1.23633   1.23639
  Beta virt. eigenvalues --    1.41592   1.41592   1.41696   1.49389   2.15331

 Mulliken charges and spin densities:
               1          2
     1  H    0.246522   0.039233
     2  H    0.031024   0.966605
     3  F   -0.277546  -0.005838
 Sum of Mulliken charges =  -0.00000   1.00000

 Dipole moment (field-independent basis, Debye):
    X=             -3.3653    Y=              0.0006    Z=             -0.0000  Tot=              3.3653
 Quadrupole moment (field-independent basis, Debye-Ang):
   XX=            -11.2508   YY=             -7.5240   ZZ=             -7.5733
   XY=             -0.0003   XZ=              0.0000   YZ=             -0.0033

  Exact polarizability:      56.212       0.001       2.018      -0.000       0.009       2.148
 Approx polarizability:     143.434      -0.034       1.928       0.002      -0.002       1.898

 ******    2 imaginary frequencies (negative Signs) ******

                      1                      2                      3
                      A                      A                      A
 Frequencies --  -1219.4755              -277.1817               583.1314
 Red. masses --      1.0504                 1.0612                 1.0213
 Frc consts  --      0.9204                 0.0480                 0.2046
 IR Inten    --     26.3210                25.9840                58.5363

                      4
                      A
 Frequencies --    604.6031
 Red. masses --      1.0213
 Frc consts  --      0.2200
 IR Inten    --     52.7345

 - Thermochemistry -
 -------------------
 Temperature   298.150 Kelvin.  Pressure   1.00000 Atm.
 Atom     1 has atomic number  1 and mass   1.00783

 Molecular mass:    21.01405 amu.
 Principal axes and moments of inertia in atomic units:
                           1         2         3
     Eigenvalues --     0.00000  90.57497  90.57497
           X            1.00000  -0.00000   0.00000
           Y            0.00000   1.00000   0.00000
           Z            0.00000   0.00000   1.00000
 This molecule is a prolate symmetric top.
 Rotational symmetry number  1.
 Rotational temperature (Kelvin)      0.95627
 Rotational constant (GHZ):          19.925386
    2 imaginary frequencies ignored.
 Zero-point vibrational energy       7104.2 (Joules/Mol)
                                    1.69795 (Kcal/Mol)
 Warning -- explicit consideration of   2 degrees of freedom as
           vibrations may cause significant error
 Vibrational temperatures:    839.00   869.89
          (Kelvin)

 Zero-point correction=                           0.002706 (Hartree/Particle)
 Thermal correction to Energy=                    0.005393
 Thermal correction to Enthalpy=                  0.006337
 Thermal correction to Gibbs Free Energy=        -0.017783
 Sum of electronic and zero-point Energies=           -100.754415
 Sum of electronic and thermal Energies=              -100.751728
 Sum of electronic and thermal Enthalpies=            -100.750783
 Sum of electronic and thermal Free Energies=         -100.774904

                     E (Thermal)             CV                S
                      KCal/Mol        Cal/Mol-Kelvin    Cal/Mol-Kelvin
 Total                    3.384              7.058             50.765
 Electronic               0.000              0.000              1.377
 Translational            0.889              2.981             35.068
 Rotational               0.592              1.987             13.398
 Vibrational              1.903              2.090              0.921
 Vibration     1          0.940              1.068              0.480
 Vibration     2          0.963              1.022              0.442

 Normal termination of Gaussian 16 at Fri Aug 22 17:04:31 2025.
