 Gaussian 16, Revision C.01,
 Gaussian 16:  ES64L-G16RevC.01  3-Jul-2019

 -----------------------------------------
 # sp b3lyp/6-311g** Force nosymm scf=(qc)
 -----------------------------------------

 -------------------
 Title Card Required
 -------------------
 Symbolic Z-matrix:
 Charge =  0 Multiplicity = 2

                          Input orientation:
 ---------------------------------------------------------------------
 Center     Atomic      Atomic             Coordinates (Angstroms)
 Number     Number       Type             X           Y           Z
 ---------------------------------------------------------------------
      1          1           0        0.000000    0.000000    0.000000
      2          1           0       -2.600000    0.000000    0.000000
      3          9           0        1.350000    0.000000    0.000000
 ---------------------------------------------------------------------

 SCF Done:  E(UB3LYP) =  -100.889967141     a.u. after    6 cycles

 Alpha  occ. eigenvalues --  -24.64153  -1.10525  -0.45247  -0.36697  -0.36697
 Alpha  occ. eigenvalues --   -0.35287
 Alpha virt. eigenvalues --   -0.09795   0.23386   0.27111   0.93214   0.93214
 Alpha virt. eigenvalues --    1.02758   1.18362   1.22228   1.22228   1.25396
 Alpha virt. eigenvalues --    1.33534   1.33534   1.72167   2.13402   2.23845

  Beta  occ. eigenvalues --  -24.64082  -1.10340  -0.44988  -0.36630  -0.36630
  Beta virt. eigenvalues --   -0.13006  -0.05880   0.26099   0.36320   0.93199
  Beta virt. eigenvalues --    0.93199   1.02932   1.19829   1.33313   1.33313
  Beta virt. eigenvalues --    1.43450   1.43450   1.44131   1.72453   2.23442

 Mulliken charges and spin densities:
               1          2
     1  H    0.349834  -0.008811
     2  H    0.011569   0.986437
     3  F   -0.361403   0.022374
 Sum of Mulliken charges =  -0.00000   1.00000

 Dipole moment (field-independent basis, Debye):
    X=             -2.5993    Y=             -0.0000    Z=              0.0000  Tot=              2.5993
 Quadrupole moment (field-independent basis, Debye-Ang):
   XX=             -9.0138   YY=             -7.2317   ZZ=             -7.2317
   XY=             -0.0000   XZ=              0.0000   YZ=              0.0000

  Exact polarizability:      16.061       0.000       2.272      -0.000      -0.000       2.272
 Approx polarizability:      23.313       0.000       2.214       0.000      -0.000       2.214

 ******    2 imaginary frequencies (negative Signs) ******

                      1                      2                      3
                      A                      A                      A
 Frequencies --   -953.7796              -178.6933              1107.6989
 Red. masses --      1.0491                 1.0625                 1.0274
 Frc consts  --      0.5623                 0.0200                 0.7428
 IR Inten    --    115.3986                 0.7956               117.1803

                      4
                      A
 Frequencies --   1107.6989
 Red. masses --      1.0274
 Frc consts  --      0.7428
 IR Inten    --    117.1803

 - Thermochemistry -
 -------------------
 Temperature   298.150 Kelvin.  Pressure   1.00000 Atm.
 Atom     1 has atomic number  1 and mass   1.00783

 Molecular mass:    21.01405 amu.
 Principal axes and moments of inertia in atomic units:
                           1         2         3
     Eigenvalues --     0.00000  57.86420  57.86420
           X            1.00000  -0.00000   0.00000
           Y            0.00000   1.00000   0.00000
           Z            0.00000   0.00000   1.00000
 This molecule is a prolate symmetric top.
 Rotational symmetry number  1.
 Rotational temperature (Kelvin)      1.49685
 Rotational constant (GHZ):          31.189256
    2 imaginary frequencies ignored.
 Zero-point vibrational energy      13251.0 (Joules/Mol)
                                    3.16707 (Kcal/Mol)
 Vibrational temperatures:   1593.73  1593.73
          (Kelvin)

 Zero-point correction=                           0.005047 (Hartree/Particle)
 Thermal correction to Energy=                    0.007456
 Thermal correction to Enthalpy=                  0.008400
 Thermal correction to Gibbs Free Energy=        -0.014917
 Sum of electronic and zero-point Energies=           -100.884920
 Sum of electronic and thermal Energies=              -100.882511
 Sum of electronic and thermal Enthalpies=            -100.881567
 Sum of electronic and thermal Free Energies=         -100.904884

                     E (Thermal)             CV                S
                      KCal/Mol        Cal/Mol-Kelvin    Cal/Mol-Kelvin
 Total                    4.679              5.515             49.074
 Electronic               0.000              0.000              1.377
 Translational            0.889              2.981             35.068
 Rotational               0.592              1.987             12.508
 Vibrational              3.197              0.547              0.121

 Normal termination of Gaussian 16 at Fri Aug 22 16:18:01 2025.
