 Gaussian 16, Revision C.01,
 Gaussian 16:  ES64L-G16RevC.01  3-Jul-2019

 -----------------------------------------
 # sp b3lyp/6-311g** Force nosymm scf=(qc)
 -----------------------------------------

 -------------------
 Title Card Required
 -------------------
 Symbolic Z-matrix:
 Charge =  0 Multiplicity = 2

                          Input orientation:
 ---------------------------------------------------------------------
 Center     Atomic      Atomic             Coordinates (Angstroms)
 Number     Number       Type             X           Y           Z
 ---------------------------------------------------------------------
      1          1           0        0.000000    0.000000    0.000000
      2          1           0       -2.600000    0.000000    0.000000
      3          9           0        1.250000    0.000000    0.000000
 ---------------------------------------------------------------------

 SCF Done:  E(UB3LYP) =  -100.914079726     a.u. after    6 cycles

 Alpha  occ. eigenvalues --  -24.64179  -1.11515  -0.46827  -0.37131  -0.37131
 Alpha  occ. eigenvalues --   -0.35167
 Alpha virt. eigenvalues --   -0.06681   0.24053   0.27800   0.93210   0.93210
 Alpha virt. eigenvalues --    1.01540   1.20899   1.22363   1.22363   1.28889
 Alpha virt. eigenvalues --    1.34448   1.34448   1.72423   2.13557   2.27514

  Beta  occ. eigenvalues --  -24.64135  -1.11402  -0.46653  -0.37091  -0.37091
  Beta virt. eigenvalues --   -0.11579  -0.03846   0.27326   0.36586   0.93206
  Beta virt. eigenvalues --    0.93206   1.01642   1.25328   1.34340   1.34340
  Beta virt. eigenvalues --    1.43810   1.43810   1.44896   1.72775   2.27249

 Mulliken charges and spin densities:
               1          2
     1  H    0.350036  -0.002201
     2  H    0.009506   0.988446
     3  F   -0.359542   0.013755
 Sum of Mulliken charges =  -0.00000   1.00000

 Dipole moment (field-independent basis, Debye):
    X=             -2.4642    Y=              0.0000    Z=              0.0000  Tot=              2.4642
 Quadrupole moment (field-independent basis, Debye-Ang):
   XX=             -8.7271   YY=             -7.1620   ZZ=             -7.1620
   XY=              0.0000   XZ=              0.0000   YZ=              0.0000

  Exact polarizability:      13.423       0.000       2.320       0.000       0.000       2.320
 Approx polarizability:      18.069      -0.000       2.273      -0.000      -0.000       2.273

 ******    1 imaginary frequencies (negative Signs) ******

                      1                      2                      3
                      A                      A                      A
 Frequencies --   -235.3061               340.1055              1166.5633
 Red. masses --      1.0188                 1.0955                 1.0287
 Frc consts  --      0.0332                 0.0747                 0.8248
 IR Inten    --     31.2818                82.8457               127.8706

                      4
                      A
 Frequencies --   1166.5633
 Red. masses --      1.0287
 Frc consts  --      0.8248
 IR Inten    --    127.8706

 - Thermochemistry -
 -------------------
 Temperature   298.150 Kelvin.  Pressure   1.00000 Atm.
 Atom     1 has atomic number  1 and mass   1.00783

 Molecular mass:    21.01405 amu.
 Principal axes and moments of inertia in atomic units:
                           1         2         3
     Eigenvalues --     0.00000  54.48025  54.48025
           X            1.00000  -0.00000   0.00000
           Y            0.00000   1.00000   0.00000
           Z            0.00000   0.00000   1.00000
 This molecule is a prolate symmetric top.
 Rotational symmetry number  1.
 Rotational temperature (Kelvin)      1.58982
 Rotational constant (GHZ):          33.126523
    1 imaginary frequencies ignored.
 Zero-point vibrational energy      15989.5 (Joules/Mol)
                                    3.82158 (Kcal/Mol)
 Warning -- explicit consideration of   1 degrees of freedom as
           vibrations may cause significant error
 Vibrational temperatures:    489.34  1678.42  1678.42
          (Kelvin)

 Zero-point correction=                           0.006090 (Hartree/Particle)
 Thermal correction to Energy=                    0.008861
 Thermal correction to Enthalpy=                  0.009805
 Thermal correction to Gibbs Free Energy=        -0.014018
 Sum of electronic and zero-point Energies=           -100.907990
 Sum of electronic and thermal Energies=              -100.905219
 Sum of electronic and thermal Enthalpies=            -100.904274
 Sum of electronic and thermal Free Energies=         -100.928098

                     E (Thermal)             CV                S
                      KCal/Mol        Cal/Mol-Kelvin    Cal/Mol-Kelvin
 Total                    5.560              7.019             50.140
 Electronic               0.000              0.000              1.377
 Translational            0.889              2.981             35.068
 Rotational               0.592              1.987             12.388
 Vibrational              4.079              2.051              1.307
 Vibration     1          0.720              1.595              1.212

 Normal termination of Gaussian 16 at Fri Aug 22 16:13:01 2025.
