 Gaussian 16, Revision C.01,
 Gaussian 16:  ES64L-G16RevC.01  3-Jul-2019

 -----------------------------------------
 # sp b3lyp/6-311g** Force nosymm scf=(qc)
 -----------------------------------------

 -------------------
 Title Card Required
 -------------------
 Symbolic Z-matrix:
 Charge =  0 Multiplicity = 2

                          Input orientation:
 ---------------------------------------------------------------------
 Center     Atomic      Atomic             Coordinates (Angstroms)
 Number     Number       Type             X           Y           Z
 ---------------------------------------------------------------------
      1          1           0        0.000000    0.000000    0.000000
      2          1           0       -2.450000    0.000000    0.000000
      3          9           0        3.800000    0.000000    0.000000
 ---------------------------------------------------------------------

 SCF Done:  E(UB3LYP) =  -100.763182627     a.u. after   34 cycles

 Alpha  occ. eigenvalues --  -24.75802  -1.21735  -0.54926  -0.46119  -0.46119
 Alpha  occ. eigenvalues --   -0.32592
 Alpha virt. eigenvalues --   -0.09434   0.25821   0.34512   0.86839   0.91215
 Alpha virt. eigenvalues --    0.91215   1.01229   1.25084   1.25084   1.26512
 Alpha virt. eigenvalues --    1.41363   1.41363   1.43360   2.15698   2.36430

  Beta  occ. eigenvalues --  -24.72663  -1.12710  -0.42972  -0.42972  -0.32755
  Beta virt. eigenvalues --   -0.25708  -0.09175   0.25649   0.34882   0.92712
  Beta virt. eigenvalues --    0.92712   0.96163   1.05338   1.24899   1.24899
  Beta virt. eigenvalues --    1.26304   1.41741   1.41741   1.43727   2.15906

 Mulliken charges and spin densities:
               1          2
     1  H    0.002756  -0.960096
     2  H    0.001410   0.964839
     3  F   -0.004167   0.995257
 Sum of Mulliken charges =   0.00000   1.00000

 Dipole moment (field-independent basis, Debye):
    X=             -0.0978    Y=             -0.0000    Z=             -0.0000  Tot=              0.0978
 Quadrupole moment (field-independent basis, Debye-Ang):
   XX=             -6.7674   YY=             -7.6716   ZZ=             -7.6716
   XY=             -0.0000   XZ=             -0.0000   YZ=             -0.0000

  Exact polarizability:      24.768      -0.000       2.018       0.000       0.000       2.018
 Approx polarizability:      18.662      -0.000       1.931      -0.000       0.000       1.931

 ******    2 imaginary frequencies (negative Signs) ******

                      1                      2                      3
                      A                      A                      A
 Frequencies --   -711.1796               -95.1316               264.8134
 Red. masses --      1.0079                 1.1085                 1.0135
 Frc consts  --      0.3003                 0.0059                 0.0419
 IR Inten    --      1.5614                 1.7537                 0.0046

                      4
                      A
 Frequencies --    264.8134
 Red. masses --      1.0135
 Frc consts  --      0.0419
 IR Inten    --      0.0046

 - Thermochemistry -
 -------------------
 Temperature   298.150 Kelvin.  Pressure   1.00000 Atm.
 Atom     1 has atomic number  1 and mass   1.00783

 Molecular mass:    21.01405 amu.
 Principal axes and moments of inertia in atomic units:
                           1         2         3
     Eigenvalues --     0.00000 175.12222 175.12222
           X            1.00000  -0.00000   0.00000
           Y            0.00000   1.00000   0.00000
           Z            0.00000   0.00000   1.00000
 This molecule is a prolate symmetric top.
 Rotational symmetry number  1.
 Rotational temperature (Kelvin)      0.49459
 Rotational constant (GHZ):          10.305609
    2 imaginary frequencies ignored.
 Zero-point vibrational energy       3167.9 (Joules/Mol)
                                    0.75714 (Kcal/Mol)
 Warning -- explicit consideration of   2 degrees of freedom as
           vibrations may cause significant error
 Vibrational temperatures:    381.01   381.01
          (Kelvin)

 Zero-point correction=                           0.001207 (Hartree/Particle)
 Thermal correction to Energy=                    0.004499
 Thermal correction to Enthalpy=                  0.005443
 Thermal correction to Gibbs Free Energy=        -0.020410
 Sum of electronic and zero-point Energies=           -100.761976
 Sum of electronic and thermal Energies=              -100.758684
 Sum of electronic and thermal Enthalpies=            -100.757739
 Sum of electronic and thermal Free Energies=         -100.783593

                     E (Thermal)             CV                S
                      KCal/Mol        Cal/Mol-Kelvin    Cal/Mol-Kelvin
 Total                    2.823              8.443             54.414
 Electronic               0.000              0.000              1.377
 Translational            0.889              2.981             35.068
 Rotational               0.592              1.987             14.709
 Vibrational              1.342              3.475              3.260
 Vibration     1          0.671              1.737              1.630
 Vibration     2          0.671              1.737              1.630

 Normal termination of Gaussian 16 at Sat Aug 23 00:50:24 2025.
