 Gaussian 16, Revision C.01,
 Gaussian 16:  ES64L-G16RevC.01  3-Jul-2019

 -----------------------------------------
 # sp b3lyp/6-311g** Force nosymm scf=(qc)
 -----------------------------------------

 -------------------
 Title Card Required
 -------------------
 Symbolic Z-matrix:
 Charge =  0 Multiplicity = 2

                          Input orientation:
 ---------------------------------------------------------------------
 Center     Atomic      Atomic             Coordinates (Angstroms)
 Number     Number       Type             X           Y           Z
 ---------------------------------------------------------------------
      1          1           0        0.000000    0.000000    0.000000
      2          1           0       -1.350000    0.000000    0.000000
      3          9           0        1.150000    0.000000    0.000000
 ---------------------------------------------------------------------

 SCF Done:  E(UB3LYP) =  -100.944748780     a.u. after    8 cycles

 Alpha  occ. eigenvalues --  -24.63721  -1.13106  -0.51568  -0.37610  -0.37444
 Alpha  occ. eigenvalues --   -0.37444
 Alpha virt. eigenvalues --    0.04564   0.19976   0.31609   0.93013   0.93013
 Alpha virt. eigenvalues --    1.00215   1.12292   1.12292   1.16488   1.45636
 Alpha virt. eigenvalues --    1.45636   1.54981   2.02109   2.32082   2.43058

  Beta  occ. eigenvalues --  -24.63056  -1.11425  -0.47596  -0.36838  -0.36838
  Beta virt. eigenvalues --   -0.19153   0.07606   0.23854   0.35165   0.93435
  Beta virt. eigenvalues --    0.93435   1.01693   1.20533   1.20533   1.23680
  Beta virt. eigenvalues --    1.50009   1.50009   1.57578   2.13345   2.32016

 Mulliken charges and spin densities:
               1          2
     1  H    0.296235  -0.040114
     2  H    0.051512   0.849558
     3  F   -0.347746   0.190555
 Sum of Mulliken charges =  -0.00000   1.00000

 Dipole moment (field-independent basis, Debye):
    X=             -2.5498    Y=             -0.0000    Z=              0.0000  Tot=              2.5498
 Quadrupole moment (field-independent basis, Debye-Ang):
   XX=             -7.8536   YY=             -6.9155   ZZ=             -6.9155
   XY=              0.0000   XZ=              0.0000   YZ=              0.0000

  Exact polarizability:      18.909       0.000       2.491       0.000       0.000       2.491
 Approx polarizability:      23.282      -0.000       2.477      -0.000       0.000       2.477

 ******    1 imaginary frequencies (negative Signs) ******

                      1                      2                      3
                      A                      A                      A
 Frequencies --  -1506.6779               931.7715              1084.0532
 Red. masses --      1.0106                 1.1052                 1.0200
 Frc consts  --      1.3517                 0.5653                 0.7062
 IR Inten    --      6.3986                51.6076                63.5894

                      4
                      A
 Frequencies --   1084.0532
 Red. masses --      1.0200
 Frc consts  --      0.7062
 IR Inten    --     63.5894

 - Thermochemistry -
 -------------------
 Temperature   298.150 Kelvin.  Pressure   1.00000 Atm.
 Atom     1 has atomic number  1 and mass   1.00783

 Molecular mass:    21.01405 amu.
 Principal axes and moments of inertia in atomic units:
                           1         2         3
     Eigenvalues --     0.00000  24.95394  24.95394
           X            1.00000  -0.00000   0.00000
           Y            0.00000   1.00000   0.00000
           Z            0.00000   0.00000   1.00000
 This molecule is a prolate symmetric top.
 Rotational symmetry number  1.
 Rotational temperature (Kelvin)      3.47095
 Rotational constant (GHZ):          72.322906
    1 imaginary frequencies ignored.
 Zero-point vibrational energy      18541.4 (Joules/Mol)
                                    4.43150 (Kcal/Mol)
 Vibrational temperatures:   1340.61  1559.71  1559.71
          (Kelvin)

 Zero-point correction=                           0.007062 (Hartree/Particle)
 Thermal correction to Energy=                    0.009523
 Thermal correction to Enthalpy=                  0.010468
 Thermal correction to Gibbs Free Energy=        -0.012119
 Sum of electronic and zero-point Energies=           -100.937687
 Sum of electronic and thermal Energies=              -100.935225
 Sum of electronic and thermal Enthalpies=            -100.934281
 Sum of electronic and thermal Free Energies=         -100.956868

                     E (Thermal)             CV                S
                      KCal/Mol        Cal/Mol-Kelvin    Cal/Mol-Kelvin
 Total                    5.976              6.014             47.538
 Electronic               0.000              0.000              1.377
 Translational            0.889              2.981             35.068
 Rotational               0.592              1.987             10.837
 Vibrational              4.495              1.046              0.256

 Normal termination of Gaussian 16 at Fri Aug 22 16:07:17 2025.
