 Gaussian 16, Revision C.01,
 Gaussian 16:  ES64L-G16RevC.01  3-Jul-2019

 -----------------------------------------
 # sp b3lyp/6-311g** Force nosymm scf=(qc)
 -----------------------------------------

 -------------------
 Title Card Required
 -------------------
 Symbolic Z-matrix:
 Charge =  0 Multiplicity = 2

                          Input orientation:
 ---------------------------------------------------------------------
 Center     Atomic      Atomic             Coordinates (Angstroms)
 Number     Number       Type             X           Y           Z
 ---------------------------------------------------------------------
      1          1           0        0.000000    0.000000    0.000000
      2          1           0       -3.300000    0.000000    0.000000
      3          9           0        3.600000    0.000000    0.000000
 ---------------------------------------------------------------------

 SCF Done:  E(UB3LYP) =  -100.759201753     a.u. after   26 cycles

 Alpha  occ. eigenvalues --  -24.75541  -1.21493  -0.54665  -0.45897  -0.45897
 Alpha  occ. eigenvalues --   -0.32347
 Alpha virt. eigenvalues --   -0.07264   0.24536   0.36864   0.87313   0.91384
 Alpha virt. eigenvalues --    0.91384   1.01584   1.25166   1.25166   1.25464
 Alpha virt. eigenvalues --    1.44782   1.44977   1.44977   2.15330   2.40569

  Beta  occ. eigenvalues --  -24.72418  -1.12515  -0.42766  -0.42766  -0.32733
  Beta virt. eigenvalues --   -0.25563  -0.06823   0.24318   0.37596   0.92876
  Beta virt. eigenvalues --    0.92876   0.96519   1.05631   1.24727   1.24727
  Beta virt. eigenvalues --    1.25001   1.45457   1.45684   1.45684   2.15502

 Mulliken charges and spin densities:
               1          2
     1  H    0.008399  -0.986949
     2  H    0.000250   0.996499
     3  F   -0.008649   0.990451
 Sum of Mulliken charges =  -0.00000   1.00000

 Dipole moment (field-independent basis, Debye):
    X=             -0.1643    Y=             -0.0000    Z=              0.0000  Tot=              0.1643
 Quadrupole moment (field-independent basis, Debye-Ang):
   XX=             -7.2355   YY=             -7.6263   ZZ=             -7.6263
   XY=             -0.0000   XZ=              0.0000   YZ=             -0.0000

  Exact polarizability:      21.655      -0.000       2.042       0.000       0.000       2.042
 Approx polarizability:      16.497      -0.000       1.934       0.000       0.000       1.934

 ******    2 imaginary frequencies (negative Signs) ******

                      1                      2                      3
                      A                      A                      A
 Frequencies --   -264.5605              -108.8142                80.9354
 Red. masses --      1.0155                 1.0993                 1.0169
 Frc consts  --      0.0419                 0.0077                 0.0039
 IR Inten    --      6.0775                 2.0019                 0.0529

                      4
                      A
 Frequencies --     80.9355
 Red. masses --      1.0169
 Frc consts  --      0.0039
 IR Inten    --      0.0529

 - Thermochemistry -
 -------------------
 Temperature   298.150 Kelvin.  Pressure   1.00000 Atm.
 Atom     1 has atomic number  1 and mass   1.00783

 Molecular mass:    21.01405 amu.
 Principal axes and moments of inertia in atomic units:
                           1         2         3
     Eigenvalues --     0.00000 198.96203 198.96203
           X            1.00000  -0.00000   0.00000
           Y            0.00000   1.00000   0.00000
           Z            0.00000   0.00000   1.00000
 This molecule is a prolate symmetric top.
 Rotational symmetry number  1.
 Rotational temperature (Kelvin)      0.43533
 Rotational constant (GHZ):           9.070782
    2 imaginary frequencies ignored.
 Zero-point vibrational energy        968.2 (Joules/Mol)
                                    0.23141 (Kcal/Mol)
 Warning -- explicit consideration of   2 degrees of freedom as
           vibrations may cause significant error
 Vibrational temperatures:    116.45   116.45
          (Kelvin)

 Zero-point correction=                           0.000369 (Hartree/Particle)
 Thermal correction to Energy=                    0.004273
 Thermal correction to Enthalpy=                  0.005217
 Thermal correction to Gibbs Free Energy=        -0.022884
 Sum of electronic and zero-point Energies=           -100.758833
 Sum of electronic and thermal Energies=              -100.754929
 Sum of electronic and thermal Enthalpies=            -100.753985
 Sum of electronic and thermal Free Energies=         -100.782086

                     E (Thermal)             CV                S
                      KCal/Mol        Cal/Mol-Kelvin    Cal/Mol-Kelvin
 Total                    2.681              8.892             59.144
 Electronic               0.000              0.000              1.377
 Translational            0.889              2.981             35.068
 Rotational               0.592              1.987             14.962
 Vibrational              1.200              3.924              7.736
 Vibration     1          0.600              1.962              3.868
 Vibration     2          0.600              1.962              3.868

 Normal termination of Gaussian 16 at Fri Aug 22 23:07:36 2025.
