 Gaussian 16, Revision C.01,
 Gaussian 16:  ES64L-G16RevC.01  3-Jul-2019

 -----------------------------------------
 # sp b3lyp/6-311g** Force nosymm scf=(qc)
 -----------------------------------------

 -------------------
 Title Card Required
 -------------------
 Symbolic Z-matrix:
 Charge =  0 Multiplicity = 2

                          Input orientation:
 ---------------------------------------------------------------------
 Center     Atomic      Atomic             Coordinates (Angstroms)
 Number     Number       Type             X           Y           Z
 ---------------------------------------------------------------------
      1          1           0        0.000000    0.000000    0.000000
      2          1           0       -2.950000    0.000000    0.000000
      3          9           0        2.000000    0.000000    0.000000
 ---------------------------------------------------------------------

 SCF Done:  E(UB3LYP) =  -100.788182104     a.u. after   14 cycles

 Alpha  occ. eigenvalues --  -24.68209  -1.14526  -0.47190  -0.39739  -0.39739
 Alpha  occ. eigenvalues --   -0.34009
 Alpha virt. eigenvalues --   -0.13730   0.23073   0.31547   0.89291   0.94879
 Alpha virt. eigenvalues --    0.94879   1.05984   1.23541   1.23541   1.24428
 Alpha virt. eigenvalues --    1.35335   1.35335   1.60467   2.14307   2.29595

  Beta  occ. eigenvalues --  -24.65837  -1.07898  -0.37881  -0.37402  -0.37402
  Beta virt. eigenvalues --   -0.20769  -0.08327   0.23597   0.36567   0.90953
  Beta virt. eigenvalues --    0.95520   0.95520   1.08377   1.22065   1.22065
  Beta virt. eigenvalues --    1.43582   1.44046   1.44046   1.53975   2.12789

 Mulliken charges and spin densities:
               1          2
     1  H    0.186954  -0.736216
     2  H    0.006340   0.990488
     3  F   -0.193294   0.745728
 Sum of Mulliken charges =   0.00000   1.00000

 Dipole moment (field-independent basis, Debye):
    X=             -2.0004    Y=             -0.0000    Z=              0.0000  Tot=              2.0004
 Quadrupole moment (field-independent basis, Debye-Ang):
   XX=             -9.7918   YY=             -7.5017   ZZ=             -7.5017
   XY=             -0.0000   XZ=              0.0000   YZ=             -0.0000

  Exact polarizability:      30.043      -0.000       2.060       0.000      -0.000       2.060
 Approx polarizability:      40.162      -0.000       1.948       0.000      -0.000       1.948

 ******    2 imaginary frequencies (negative Signs) ******

                      1                      2                      3
                      A                      A                      A
 Frequencies --  -1148.6904              -232.3491               483.0146
 Red. masses --      1.0536                 1.0579                 1.0233
 Frc consts  --      0.8191                 0.0337                 0.1407
 IR Inten    --    113.8141                 2.8215                31.2650

                      4
                      A
 Frequencies --    483.0146
 Red. masses --      1.0233
 Frc consts  --      0.1407
 IR Inten    --     31.2650

 - Thermochemistry -
 -------------------
 Temperature   298.150 Kelvin.  Pressure   1.00000 Atm.
 Atom     1 has atomic number  1 and mass   1.00783

 Molecular mass:    21.01405 amu.
 Principal axes and moments of inertia in atomic units:
                           1         2         3
     Eigenvalues --     0.00000  94.24340  94.24340
           X            1.00000  -0.00000   0.00000
           Y            0.00000   1.00000   0.00000
           Z            0.00000   0.00000   1.00000
 This molecule is a prolate symmetric top.
 Rotational symmetry number  1.
 Rotational temperature (Kelvin)      0.91905
 Rotational constant (GHZ):          19.149790
    2 imaginary frequencies ignored.
 Zero-point vibrational energy       5778.1 (Joules/Mol)
                                    1.38101 (Kcal/Mol)
 Warning -- explicit consideration of   2 degrees of freedom as
           vibrations may cause significant error
 Vibrational temperatures:    694.95   694.95
          (Kelvin)

 Zero-point correction=                           0.002201 (Hartree/Particle)
 Thermal correction to Energy=                    0.005035
 Thermal correction to Enthalpy=                  0.005979
 Thermal correction to Gibbs Free Energy=        -0.018408
 Sum of electronic and zero-point Energies=           -100.785981
 Sum of electronic and thermal Energies=              -100.783147
 Sum of electronic and thermal Enthalpies=            -100.782203
 Sum of electronic and thermal Free Energies=         -100.806590

                     E (Thermal)             CV                S
                      KCal/Mol        Cal/Mol-Kelvin    Cal/Mol-Kelvin
 Total                    3.160              7.543             51.327
 Electronic               0.000              0.000              1.377
 Translational            0.889              2.981             35.068
 Rotational               0.592              1.987             13.477
 Vibrational              1.678              2.575              1.404
 Vibration     1          0.839              1.288              0.702
 Vibration     2          0.839              1.288              0.702

 Normal termination of Gaussian 16 at Fri Aug 22 16:57:19 2025.
