 Gaussian 16, Revision C.01,
 Gaussian 16:  ES64L-G16RevC.01  3-Jul-2019

 -----------------------------------------
 # sp b3lyp/6-311g** Force nosymm scf=(qc)
 -----------------------------------------

 -------------------
 Title Card Required
 -------------------
 Symbolic Z-matrix:
 Charge =  0 Multiplicity = 2

                          Input orientation:
 ---------------------------------------------------------------------
 Center     Atomic      Atomic             Coordinates (Angstroms)
 Number     Number       Type             X           Y           Z
 ---------------------------------------------------------------------
      1          1           0        0.000000    0.000000    0.000000
      2          1           0       -1.500000    0.000000    0.000000
      3          9           0        2.050000    0.000000    0.000000
 ---------------------------------------------------------------------

 SCF Done:  E(UB3LYP) =  -100.833473975     a.u. after   13 cycles

 Alpha  occ. eigenvalues --  -24.70232  -1.16563  -0.49655  -0.41485  -0.41485
 Alpha  occ. eigenvalues --   -0.37723
 Alpha virt. eigenvalues --   -0.10509   0.22574   0.31246   0.85405   0.93755
 Alpha virt. eigenvalues --    0.93755   1.02992   1.16584   1.16584   1.27785
 Alpha virt. eigenvalues --    1.38981   1.38981   1.82181   2.19764   2.44495

  Beta  occ. eigenvalues --  -24.67600  -1.09145  -0.38878  -0.38878  -0.37234
  Beta virt. eigenvalues --   -0.23666  -0.08966   0.24520   0.31111   0.89708
  Beta virt. eigenvalues --    0.94835   0.94835   1.07006   1.18361   1.18361
  Beta virt. eigenvalues --    1.32105   1.39806   1.39806   1.83656   2.20759

 Mulliken charges and spin densities:
               1          2
     1  H    0.075603  -0.353642
     2  H    0.060274   0.526725
     3  F   -0.135877   0.826917
 Sum of Mulliken charges =  -0.00000   1.00000

 Dipole moment (field-independent basis, Debye):
    X=             -1.8172    Y=             -0.0000    Z=             -0.0000  Tot=              1.8172
 Quadrupole moment (field-independent basis, Debye-Ang):
   XX=             -7.6156   YY=             -7.5436   ZZ=             -7.5436
   XY=             -0.0000   XZ=              0.0000   YZ=             -0.0000

  Exact polarizability:      53.117      -0.000       2.106       0.000       0.000       2.106
 Approx polarizability:      80.246       0.000       2.062      -0.000       0.000       2.062

 ******    2 imaginary frequencies (negative Signs) ******

                      1                      2                      3
                      A                      A                      A
 Frequencies --  -2140.5927              -459.3638              1086.7890
 Red. masses --      1.0113                 1.1044                 1.0146
 Frc consts  --      2.7302                 0.1373                 0.7061
 IR Inten    --    776.2013                19.8592                 1.3626

                      4
                      A
 Frequencies --   1086.7890
 Red. masses --      1.0146
 Frc consts  --      0.7061
 IR Inten    --      1.3626

 - Thermochemistry -
 -------------------
 Temperature   298.150 Kelvin.  Pressure   1.00000 Atm.
 Atom     1 has atomic number  1 and mass   1.00783

 Molecular mass:    21.01405 amu.
 Principal axes and moments of inertia in atomic units:
                           1         2         3
     Eigenvalues --     0.00000  55.06839  55.06839
           X            1.00000  -0.00000   0.00000
           Y            0.00000   1.00000   0.00000
           Z            0.00000   0.00000   1.00000
 This molecule is a prolate symmetric top.
 Rotational symmetry number  1.
 Rotational temperature (Kelvin)      1.57284
 Rotational constant (GHZ):          32.772728
    2 imaginary frequencies ignored.
 Zero-point vibrational energy      13000.9 (Joules/Mol)
                                    3.10729 (Kcal/Mol)
 Vibrational temperatures:   1563.65  1563.65
          (Kelvin)

 Zero-point correction=                           0.004952 (Hartree/Particle)
 Thermal correction to Energy=                    0.007365
 Thermal correction to Enthalpy=                  0.008309
 Thermal correction to Gibbs Free Energy=        -0.014966
 Sum of electronic and zero-point Energies=           -100.828522
 Sum of electronic and thermal Energies=              -100.826109
 Sum of electronic and thermal Enthalpies=            -100.825165
 Sum of electronic and thermal Free Energies=         -100.848440

                     E (Thermal)             CV                S
                      KCal/Mol        Cal/Mol-Kelvin    Cal/Mol-Kelvin
 Total                    4.621              5.551             48.987
 Electronic               0.000              0.000              1.377
 Translational            0.889              2.981             35.068
 Rotational               0.592              1.987             12.410
 Vibrational              3.140              0.583              0.132

 Normal termination of Gaussian 16 at Fri Aug 22 16:59:40 2025.
