 Gaussian 16, Revision C.01,
 Gaussian 16:  ES64L-G16RevC.01  3-Jul-2019

 -----------------------------------------
 # sp b3lyp/6-311g** Force nosymm scf=(qc)
 -----------------------------------------

 -------------------
 Title Card Required
 -------------------
 Symbolic Z-matrix:
 Charge =  0 Multiplicity = 2

                          Input orientation:
 ---------------------------------------------------------------------
 Center     Atomic      Atomic             Coordinates (Angstroms)
 Number     Number       Type             X           Y           Z
 ---------------------------------------------------------------------
      1          1           0        0.000000    0.000000    0.000000
      2          1           0       -0.650000    0.000000    0.000000
      3          9           0        1.300000    0.000000    0.000000
 ---------------------------------------------------------------------

 SCF Done:  E(UB3LYP) =  -100.924211001     a.u. after    6 cycles

 Alpha  occ. eigenvalues --  -24.69767  -1.18112  -0.60039  -0.42128  -0.42128
 Alpha  occ. eigenvalues --   -0.40891
 Alpha virt. eigenvalues --    0.11641   0.19206   0.50811   0.87731   0.87731
 Alpha virt. eigenvalues --    0.96299   1.10648   1.10648   1.45298   1.61749
 Alpha virt. eigenvalues --    1.86241   1.86241   1.90144   2.42103   3.53000

  Beta  occ. eigenvalues --  -24.67322  -1.11622  -0.51765  -0.39805  -0.39805
  Beta virt. eigenvalues --   -0.21483   0.12957   0.20050   0.54219   0.89067
  Beta virt. eigenvalues --    0.89067   1.01626   1.13523   1.13523   1.48971
  Beta virt. eigenvalues --    1.65682   1.88249   1.88249   1.91141   2.46570

 Mulliken charges and spin densities:
               1          2
     1  H    0.204889  -0.026525
     2  H   -0.015096   0.318778
     3  F   -0.189793   0.707747
 Sum of Mulliken charges =   0.00000   1.00000

 Dipole moment (field-independent basis, Debye):
    X=             -1.2621    Y=              0.0000    Z=              0.0000  Tot=              1.2621
 Quadrupole moment (field-independent basis, Debye-Ang):
   XX=             -7.0375   YY=             -6.5930   ZZ=             -6.5930
   XY=              0.0000   XZ=              0.0000   YZ=              0.0000

  Exact polarizability:      16.101       0.000       2.376      -0.000      -0.000       2.376
 Approx polarizability:      20.207       0.000       2.423       0.000      -0.000       2.423

 ******    2 imaginary frequencies (negative Signs) ******

                      1                      2                      3
                      A                      A                      A
 Frequencies --  -2334.4472             -2334.4472               692.2709
 Red. masses --      1.0117                 1.0117                 1.1082
 Frc consts  --      3.2485                 3.2485                 0.3129
 IR Inten    --      2.9787                 2.9787                55.8409

                      4
                      A
 Frequencies --   5584.1476
 Red. masses --      1.0081
 Frc consts  --     18.5210
 IR Inten    --    547.2602

 - Thermochemistry -
 -------------------
 Temperature   298.150 Kelvin.  Pressure   1.00000 Atm.
 Atom     1 has atomic number  1 and mass   1.00783

 Molecular mass:    21.01405 amu.
 Principal axes and moments of inertia in atomic units:
                           1         2         3
     Eigenvalues --     0.00000  17.94439  17.94439
           X            1.00000  -0.00000   0.00000
           Y            0.00000   1.00000   0.00000
           Z            0.00000   0.00000   1.00000
 This molecule is a prolate symmetric top.
 Rotational symmetry number  1.
 Rotational temperature (Kelvin)      4.82680
 Rotational constant (GHZ):         100.574097
    2 imaginary frequencies ignored.
 Zero-point vibrational energy      37541.3 (Joules/Mol)
                                    8.97259 (Kcal/Mol)
 Vibrational temperatures:    996.02  8034.34
          (Kelvin)

 Zero-point correction=                           0.014299 (Hartree/Particle)
 Thermal correction to Energy=                    0.016775
 Thermal correction to Enthalpy=                  0.017719
 Thermal correction to Gibbs Free Energy=        -0.004585
 Sum of electronic and zero-point Energies=           -100.909912
 Sum of electronic and thermal Energies=              -100.907436
 Sum of electronic and thermal Enthalpies=            -100.906492
 Sum of electronic and thermal Free Energies=         -100.928796

                     E (Thermal)             CV                S
                      KCal/Mol        Cal/Mol-Kelvin    Cal/Mol-Kelvin
 Total                   10.526              5.812             46.942
 Electronic               0.000              0.000              1.377
 Translational            0.889              2.981             35.068
 Rotational               0.592              1.987             10.181
 Vibrational              9.045              0.844              0.315

 Normal termination of Gaussian 16 at Fri Aug 22 16:14:04 2025.
