 Gaussian 16, Revision C.01,
 Gaussian 16:  ES64L-G16RevC.01  3-Jul-2019

 -----------------------------------------
 # sp b3lyp/6-311g** Force nosymm scf=(qc)
 -----------------------------------------

 -------------------
 Title Card Required
 -------------------
 Symbolic Z-matrix:
 Charge =  0 Multiplicity = 2

                          Input orientation:
 ---------------------------------------------------------------------
 Center     Atomic      Atomic             Coordinates (Angstroms)
 Number     Number       Type             X           Y           Z
 ---------------------------------------------------------------------
      1          1           0        0.000000    0.000000    0.000000
      2          1           0       -3.550000    0.000000    0.000000
      3          9           0        2.300000    0.000000    0.000000
 ---------------------------------------------------------------------

 SCF Done:  E(UB3LYP) =  -100.772850747     a.u. after   13 cycles

 Alpha  occ. eigenvalues --  -24.70470  -1.16752  -0.49549  -0.41650  -0.41650
 Alpha  occ. eigenvalues --   -0.33069
 Alpha virt. eigenvalues --   -0.11536   0.23103   0.34269   0.88771   0.94223
 Alpha virt. eigenvalues --    0.94223   1.06186   1.24441   1.24441   1.24559
 Alpha virt. eigenvalues --    1.38567   1.38567   1.48509   2.14240   2.34071

  Beta  occ. eigenvalues --  -24.67758  -1.09074  -0.38955  -0.38955  -0.36259
  Beta virt. eigenvalues --   -0.22472  -0.06754   0.23534   0.37946   0.92885
  Beta virt. eigenvalues --    0.95441   0.95441   1.08283   1.21607   1.21607
  Beta virt. eigenvalues --    1.37110   1.45784   1.46026   1.46026   2.11959

 Mulliken charges and spin densities:
               1          2
     1  H    0.122945  -0.853299
     2  H    0.001009   0.998103
     3  F   -0.123953   0.855196
 Sum of Mulliken charges =  -0.00000   1.00000

 Dipole moment (field-independent basis, Debye):
    X=             -1.4538    Y=              0.0000    Z=             -0.0000  Tot=              1.4538
 Quadrupole moment (field-independent basis, Debye-Ang):
   XX=             -9.6503   YY=             -7.5439   ZZ=             -7.5439
   XY=              0.0000   XZ=             -0.0000   YZ=              0.0000

  Exact polarizability:      29.029       0.000       2.033      -0.000      -0.000       2.033
 Approx polarizability:      38.864       0.000       1.924      -0.000      -0.000       1.924

 ******    2 imaginary frequencies (negative Signs) ******

                      1                      2                      3
                      A                      A                      A
 Frequencies --   -768.4427              -114.0372               314.7950
 Red. masses --      1.0560                 1.0556                 1.0240
 Frc consts  --      0.3674                 0.0081                 0.0598
 IR Inten    --     97.3258                 0.2032                14.4207

                      4
                      A
 Frequencies --    314.7950
 Red. masses --      1.0240
 Frc consts  --      0.0598
 IR Inten    --     14.4207

 - Thermochemistry -
 -------------------
 Temperature   298.150 Kelvin.  Pressure   1.00000 Atm.
 Atom     1 has atomic number  1 and mass   1.00783

 Molecular mass:    21.01405 amu.
 Principal axes and moments of inertia in atomic units:
                           1         2         3
     Eigenvalues --     0.00000 130.74084 130.74084
           X            1.00000  -0.00000   0.00000
           Y            0.00000   1.00000   0.00000
           Z            0.00000   0.00000   1.00000
 This molecule is a prolate symmetric top.
 Rotational symmetry number  1.
 Rotational temperature (Kelvin)      0.66249
 Rotational constant (GHZ):          13.803959
    2 imaginary frequencies ignored.
 Zero-point vibrational energy       3765.8 (Joules/Mol)
                                    0.90004 (Kcal/Mol)
 Warning -- explicit consideration of   2 degrees of freedom as
           vibrations may cause significant error
 Vibrational temperatures:    452.92   452.92
          (Kelvin)

 Zero-point correction=                           0.001434 (Hartree/Particle)
 Thermal correction to Energy=                    0.004599
 Thermal correction to Enthalpy=                  0.005543
 Thermal correction to Gibbs Free Energy=        -0.019757
 Sum of electronic and zero-point Energies=           -100.771416
 Sum of electronic and thermal Energies=              -100.768252
 Sum of electronic and thermal Enthalpies=            -100.767308
 Sum of electronic and thermal Free Energies=         -100.792607

                     E (Thermal)             CV                S
                      KCal/Mol        Cal/Mol-Kelvin    Cal/Mol-Kelvin
 Total                    2.886              8.259             53.247
 Electronic               0.000              0.000              1.377
 Translational            0.889              2.981             35.068
 Rotational               0.592              1.987             14.128
 Vibrational              1.405              3.291              2.674
 Vibration     1          0.702              1.645              1.337
 Vibration     2          0.702              1.645              1.337

 Normal termination of Gaussian 16 at Fri Aug 22 17:23:16 2025.
