 Gaussian 16, Revision C.01,
 Gaussian 16:  ES64L-G16RevC.01  3-Jul-2019

 -----------------------------------------
 # sp b3lyp/6-311g** Force nosymm scf=(qc)
 -----------------------------------------

 -------------------
 Title Card Required
 -------------------
 Symbolic Z-matrix:
 Charge =  0 Multiplicity = 2

                          Input orientation:
 ---------------------------------------------------------------------
 Center     Atomic      Atomic             Coordinates (Angstroms)
 Number     Number       Type             X           Y           Z
 ---------------------------------------------------------------------
      1          1           0        0.000000    0.000000    0.000000
      2          1           0       -3.550000    0.000000    0.000000
      3          9           0        2.150000    0.000000    0.000000
 ---------------------------------------------------------------------

 SCF Done:  E(UB3LYP) =  -100.778343347     a.u. after   17 cycles

 Alpha  occ. eigenvalues --  -24.66765  -1.08424  -0.38154  -0.38154  -0.37065
 Alpha  occ. eigenvalues --   -0.33144
 Alpha virt. eigenvalues --   -0.21637   0.20457   0.27820   0.90817   0.95647
 Alpha virt. eigenvalues --    0.95647   1.08198   1.21526   1.21526   1.24310
 Alpha virt. eigenvalues --    1.24310   1.24358   1.44740   2.10795   2.15455

  Beta  occ. eigenvalues --  -24.69333  -1.15655  -0.48374  -0.40696  -0.40696
  Beta virt. eigenvalues --   -0.12922  -0.04691   0.30534   0.40084   0.88381
  Beta virt. eigenvalues --    0.94655   0.94655   1.05967   1.37057   1.37057
  Beta virt. eigenvalues --    1.47722   1.47722   1.47936   1.53870   2.31604

 Mulliken charges and spin densities:
               1          2
     1  H    0.155763   0.809431
     2  H    0.001055   0.998971
     3  F   -0.156818  -0.808401
 Sum of Mulliken charges =   0.00000   1.00000

 Dipole moment (field-independent basis, Debye):
    X=             -1.7015    Y=              0.0000    Z=              0.0000  Tot=              1.7015
 Quadrupole moment (field-independent basis, Debye-Ang):
   XX=             -9.9311   YY=             -7.5086   ZZ=             -7.5086
   XY=              0.0000   XZ=             -0.0000   YZ=             -0.0000

  Exact polarizability:      27.864       0.000       2.045      -0.000      -0.000       2.045
 Approx polarizability:      39.189      -0.000       1.933       0.000      -0.000       1.933

 ******    1 imaginary frequencies (negative Signs) ******

                      1                      2                      3
                      A                      A                      A
 Frequencies --   -911.9314                66.7733               383.3215
 Red. masses --      1.0592                 1.0524                 1.0250
 Frc consts  --      0.5190                 0.0028                 0.0887
 IR Inten    --    103.4187                 0.1644                22.9934

                      4
                      A
 Frequencies --    383.3215
 Red. masses --      1.0250
 Frc consts  --      0.0887
 IR Inten    --     22.9934

 - Thermochemistry -
 -------------------
 Temperature   298.150 Kelvin.  Pressure   1.00000 Atm.
 Atom     1 has atomic number  1 and mass   1.00783

 Molecular mass:    21.01405 amu.
 Principal axes and moments of inertia in atomic units:
                           1         2         3
     Eigenvalues --     0.00000 122.93173 122.93173
           X            1.00000  -0.00000   0.00000
           Y            0.00000   1.00000   0.00000
           Z            0.00000   0.00000   1.00000
 This molecule is a prolate symmetric top.
 Rotational symmetry number  1.
 Rotational temperature (Kelvin)      0.70457
 Rotational constant (GHZ):          14.680841
    1 imaginary frequencies ignored.
 Zero-point vibrational energy       4984.9 (Joules/Mol)
                                    1.19143 (Kcal/Mol)
 Warning -- explicit consideration of   3 degrees of freedom as
           vibrations may cause significant error
 Vibrational temperatures:     96.07   551.51   551.51
          (Kelvin)

 Zero-point correction=                           0.001899 (Hartree/Particle)
 Thermal correction to Energy=                    0.005711
 Thermal correction to Enthalpy=                  0.006655
 Thermal correction to Gibbs Free Energy=        -0.020308
 Sum of electronic and zero-point Energies=           -100.776445
 Sum of electronic and thermal Energies=              -100.772632
 Sum of electronic and thermal Enthalpies=            -100.771688
 Sum of electronic and thermal Free Energies=         -100.798651

                     E (Thermal)             CV                S
                      KCal/Mol        Cal/Mol-Kelvin    Cal/Mol-Kelvin
 Total                    3.584              9.950             56.749
 Electronic               0.000              0.000              1.377
 Translational            0.889              2.981             35.068
 Rotational               0.592              1.987             14.005
 Vibrational              2.103              4.982              6.298
 Vibration     1          0.598              1.970              4.246
 Vibration     2          0.753              1.506              1.026
 Vibration     3          0.753              1.506              1.026

 Normal termination of Gaussian 16 at Fri Aug 22 17:09:09 2025.
