 Gaussian 16, Revision C.01,
 Gaussian 16:  ES64L-G16RevC.01  3-Jul-2019

 -----------------------------------------
 # sp b3lyp/6-311g** Force nosymm scf=(qc)
 -----------------------------------------

 -------------------
 Title Card Required
 -------------------
 Symbolic Z-matrix:
 Charge =  0 Multiplicity = 2

                          Input orientation:
 ---------------------------------------------------------------------
 Center     Atomic      Atomic             Coordinates (Angstroms)
 Number     Number       Type             X           Y           Z
 ---------------------------------------------------------------------
      1          1           0        0.000000    0.000000    0.000000
      2          1           0       -2.100000    0.000000    0.000000
      3          9           0        3.850000    0.000000    0.000000
 ---------------------------------------------------------------------

 SCF Done:  E(UB3LYP) =  -100.770460016     a.u. after  401 cycles

 Alpha  occ. eigenvalues --  -24.75914  -1.21839  -0.55037  -0.46217  -0.46216
 Alpha  occ. eigenvalues --   -0.32813
 Alpha virt. eigenvalues --   -0.10502   0.26024   0.33143   0.86658   0.91137
 Alpha virt. eigenvalues --    0.91188   1.01122   1.20860   1.25115   1.25115
 Alpha virt. eigenvalues --    1.38870   1.38871   1.48003   2.13594   2.35685

  Beta  occ. eigenvalues --  -24.72770  -1.12799  -0.43066  -0.43064  -0.32874
  Beta virt. eigenvalues --   -0.25780  -0.10373   0.25899   0.33371   0.92635
  Beta virt. eigenvalues --    0.92673   0.96029   1.05243   1.20824   1.25045
  Beta virt. eigenvalues --    1.25046   1.39049   1.39049   1.48133   2.13816

 Mulliken charges and spin densities:
               1          2
     1  H    0.000450  -0.892750
     2  H    0.002188   0.895962
     3  F   -0.002638   0.996788
 Sum of Mulliken charges =   0.00000   1.00000

 Dipole moment (field-independent basis, Debye):
    X=             -0.0743    Y=             -0.0005    Z=              0.0000  Tot=              0.0743
 Quadrupole moment (field-independent basis, Debye-Ang):
   XX=             -6.5220   YY=             -7.6157   ZZ=             -7.7142
   XY=             -0.2744   XZ=              0.0005   YZ=             -0.0002

  Exact polarizability:      28.017      -0.119       2.065       0.000      -0.000       2.011
 Approx polarizability:      25.972      -0.175       2.001       0.000      -0.000       1.935

 ******    2 imaginary frequencies (negative Signs) ******

                      1                      2                      3
                      A                      A                      A
 Frequencies --  -1176.5328               -80.1493               468.6042
 Red. masses --      1.0078                 1.1085                 1.0123
 Frc consts  --      0.8219                 0.0042                 0.1310
 IR Inten    --      0.8016                 0.9171                 0.0001

                      4
                      A
 Frequencies --    468.6288
 Red. masses --      1.0123
 Frc consts  --      0.1310
 IR Inten    --      0.0064

 - Thermochemistry -
 -------------------
 Temperature   298.150 Kelvin.  Pressure   1.00000 Atm.
 Atom     1 has atomic number  1 and mass   1.00783

 Molecular mass:    21.01405 amu.
 Principal axes and moments of inertia in atomic units:
                           1         2         3
     Eigenvalues --     0.00000 164.18304 164.18304
           X            1.00000  -0.00000   0.00000
           Y            0.00000   1.00000   0.00000
           Z            0.00000   0.00000   1.00000
 This molecule is a prolate symmetric top.
 Rotational symmetry number  1.
 Rotational temperature (Kelvin)      0.52754
 Rotational constant (GHZ):          10.992251
    2 imaginary frequencies ignored.
 Zero-point vibrational energy       5605.9 (Joules/Mol)
                                    1.33984 (Kcal/Mol)
 Warning -- explicit consideration of   2 degrees of freedom as
           vibrations may cause significant error
 Vibrational temperatures:    674.22   674.25
          (Kelvin)

 Zero-point correction=                           0.002135 (Hartree/Particle)
 Thermal correction to Energy=                    0.004992
 Thermal correction to Enthalpy=                  0.005937
 Thermal correction to Gibbs Free Energy=        -0.019012
 Sum of electronic and zero-point Energies=           -100.768325
 Sum of electronic and thermal Energies=              -100.765468
 Sum of electronic and thermal Enthalpies=            -100.764523
 Sum of electronic and thermal Free Energies=         -100.789472

                     E (Thermal)             CV                S
                      KCal/Mol        Cal/Mol-Kelvin    Cal/Mol-Kelvin
 Total                    3.133              7.607             52.509
 Electronic               0.000              0.000              1.377
 Translational            0.889              2.981             35.068
 Rotational               0.592              1.987             14.580
 Vibrational              1.652              2.639              1.483
 Vibration     1          0.826              1.320              0.741
 Vibration     2          0.826              1.320              0.741

 Normal termination of Gaussian 16 at Sat Aug 23 01:08:04 2025.
