 Gaussian 16, Revision C.01,
 Gaussian 16:  ES64L-G16RevC.01  3-Jul-2019

 -----------------------------------------
 # sp b3lyp/6-311g** Force nosymm scf=(qc)
 -----------------------------------------

 -------------------
 Title Card Required
 -------------------
 Symbolic Z-matrix:
 Charge =  0 Multiplicity = 2

                          Input orientation:
 ---------------------------------------------------------------------
 Center     Atomic      Atomic             Coordinates (Angstroms)
 Number     Number       Type             X           Y           Z
 ---------------------------------------------------------------------
      1          1           0        0.000000    0.000000    0.000000
      2          1           0       -2.650000    0.000000    0.000000
      3          9           0        2.150000    0.000000    0.000000
 ---------------------------------------------------------------------

 SCF Done:  E(UB3LYP) =  -100.781139332     a.u. after   20 cycles

 Alpha  occ. eigenvalues --  -24.69352  -1.15664  -0.48394  -0.40700  -0.40700
 Alpha  occ. eigenvalues --   -0.34205
 Alpha virt. eigenvalues --   -0.13088   0.24027   0.32134   0.88881   0.94664
 Alpha virt. eigenvalues --    0.94664   1.06353   1.23399   1.23399   1.25573
 Alpha virt. eigenvalues --    1.36378   1.36378   1.53333   2.14441   2.30683

  Beta  occ. eigenvalues --  -24.66780  -1.08422  -0.38153  -0.38153  -0.36939
  Beta virt. eigenvalues --   -0.21715  -0.09252   0.24898   0.35327   0.92087
  Beta virt. eigenvalues --    0.95667   0.95667   1.08702   1.21759   1.21759
  Beta virt. eigenvalues --    1.42040   1.42423   1.42423   1.46302   2.13207

 Mulliken charges and spin densities:
               1          2
     1  H    0.143382  -0.789634
     2  H    0.011136   0.980027
     3  F   -0.154518   0.809607
 Sum of Mulliken charges =   0.00000   1.00000

 Dipole moment (field-independent basis, Debye):
    X=             -1.8010    Y=             -0.0000    Z=             -0.0000  Tot=              1.8010
 Quadrupole moment (field-independent basis, Debye-Ang):
   XX=             -9.4324   YY=             -7.5464   ZZ=             -7.5464
   XY=             -0.0000   XZ=             -0.0000   YZ=              0.0000

  Exact polarizability:      36.442      -0.000       2.039      -0.000       0.000       2.039
 Approx polarizability:      44.225      -0.000       1.932      -0.000      -0.000       1.932

 ******    2 imaginary frequencies (negative Signs) ******

                      1                      2                      3
                      A                      A                      A
 Frequencies --   -993.1351              -331.5982               412.7331
 Red. masses --      1.0432                 1.0687                 1.0207
 Frc consts  --      0.6062                 0.0692                 0.1024
 IR Inten    --     91.8964                10.5433                17.6382

                      4
                      A
 Frequencies --    412.7331
 Red. masses --      1.0207
 Frc consts  --      0.1024
 IR Inten    --     17.6382

 - Thermochemistry -
 -------------------
 Temperature   298.150 Kelvin.  Pressure   1.00000 Atm.
 Atom     1 has atomic number  1 and mass   1.00783

 Molecular mass:    21.01405 amu.
 Principal axes and moments of inertia in atomic units:
                           1         2         3
     Eigenvalues --     0.00000  91.22023  91.22023
           X            1.00000  -0.00000   0.00000
           Y            0.00000   1.00000   0.00000
           Z            0.00000   0.00000   1.00000
 This molecule is a prolate symmetric top.
 Rotational symmetry number  1.
 Rotational temperature (Kelvin)      0.94950
 Rotational constant (GHZ):          19.784441
    2 imaginary frequencies ignored.
 Zero-point vibrational energy       4937.4 (Joules/Mol)
                                    1.18006 (Kcal/Mol)
 Warning -- explicit consideration of   2 degrees of freedom as
           vibrations may cause significant error
 Vibrational temperatures:    593.83   593.83
          (Kelvin)

 Zero-point correction=                           0.001881 (Hartree/Particle)
 Thermal correction to Energy=                    0.004835
 Thermal correction to Enthalpy=                  0.005780
 Thermal correction to Gibbs Free Energy=        -0.018781
 Sum of electronic and zero-point Energies=           -100.779259
 Sum of electronic and thermal Energies=              -100.776304
 Sum of electronic and thermal Enthalpies=            -100.775360
 Sum of electronic and thermal Free Energies=         -100.799920

                     E (Thermal)             CV                S
                      KCal/Mol        Cal/Mol-Kelvin    Cal/Mol-Kelvin
 Total                    3.034              7.853             51.692
 Electronic               0.000              0.000              1.377
 Translational            0.889              2.981             35.068
 Rotational               0.592              1.987             13.412
 Vibrational              1.553              2.885              1.834
 Vibration     1          0.777              1.443              0.917
 Vibration     2          0.777              1.443              0.917

 Normal termination of Gaussian 16 at Fri Aug 22 17:08:17 2025.
