 Gaussian 16, Revision C.01,
 Gaussian 16:  ES64L-G16RevC.01  3-Jul-2019

 -----------------------------------------
 # sp b3lyp/6-311g** Force nosymm scf=(qc)
 -----------------------------------------

 -------------------
 Title Card Required
 -------------------
 Symbolic Z-matrix:
 Charge =  0 Multiplicity = 2

                          Input orientation:
 ---------------------------------------------------------------------
 Center     Atomic      Atomic             Coordinates (Angstroms)
 Number     Number       Type             X           Y           Z
 ---------------------------------------------------------------------
      1          1           0        0.000000    0.000000    0.000000
      2          1           0       -2.900000    0.000000    0.000000
      3          9           0        3.650000    0.000000    0.000000
 ---------------------------------------------------------------------

 SCF Done:  E(UB3LYP) =  -100.760101599     a.u. after   31 cycles

 Alpha  occ. eigenvalues --  -24.75622  -1.21567  -0.54745  -0.45965  -0.45965
 Alpha  occ. eigenvalues --   -0.32430
 Alpha virt. eigenvalues --   -0.08152   0.25167   0.35845   0.87183   0.91333
 Alpha virt. eigenvalues --    0.91333   1.01477   1.25119   1.25119   1.26029
 Alpha virt. eigenvalues --    1.43695   1.43695   1.43816   2.15880   2.39140

  Beta  occ. eigenvalues --  -24.72493  -1.12575  -0.42829  -0.42829  -0.32738
  Beta virt. eigenvalues --   -0.25608  -0.07753   0.24959   0.36450   0.92826
  Beta virt. eigenvalues --    0.92826   0.96427   1.05547   1.24767   1.24767
  Beta virt. eigenvalues --    1.25642   1.44317   1.44317   1.44435   2.16098

 Mulliken charges and spin densities:
               1          2
     1  H    0.006616  -0.982039
     2  H    0.000633   0.990108
     3  F   -0.007249   0.991932
 Sum of Mulliken charges =  -0.00000   1.00000

 Dipole moment (field-independent basis, Debye):
    X=             -0.1450    Y=             -0.0000    Z=              0.0000  Tot=              0.1450
 Quadrupole moment (field-independent basis, Debye-Ang):
   XX=             -7.0950   YY=             -7.6398   ZZ=             -7.6398
   XY=             -0.0000   XZ=             -0.0000   YZ=             -0.0000

  Exact polarizability:      22.851       0.000       2.016       0.000      -0.000       2.016
 Approx polarizability:      17.025      -0.000       1.932      -0.000       0.000       1.932

 ******    2 imaginary frequencies (negative Signs) ******

                      1                      2                      3
                      A                      A                      A
 Frequencies --   -392.4297              -113.6631               141.5358
 Red. masses --      1.0088                 1.1074                 1.0154
 Frc consts  --      0.0915                 0.0084                 0.0120
 IR Inten    --      3.6905                 2.8617                 0.0442

                      4
                      A
 Frequencies --    141.5359
 Red. masses --      1.0154
 Frc consts  --      0.0120
 IR Inten    --      0.0442

 - Thermochemistry -
 -------------------
 Temperature   298.150 Kelvin.  Pressure   1.00000 Atm.
 Atom     1 has atomic number  1 and mass   1.00783

 Molecular mass:    21.01405 amu.
 Principal axes and moments of inertia in atomic units:
                           1         2         3
     Eigenvalues --     0.00000 184.39623 184.39623
           X            1.00000  -0.00000   0.00000
           Y            0.00000   1.00000   0.00000
           Z            0.00000   0.00000   1.00000
 This molecule is a prolate symmetric top.
 Rotational symmetry number  1.
 Rotational temperature (Kelvin)      0.46972
 Rotational constant (GHZ):           9.787300
    2 imaginary frequencies ignored.
 Zero-point vibrational energy       1693.1 (Joules/Mol)
                                    0.40467 (Kcal/Mol)
 Warning -- explicit consideration of   2 degrees of freedom as
           vibrations may cause significant error
 Vibrational temperatures:    203.64   203.64
          (Kelvin)

 Zero-point correction=                           0.000645 (Hartree/Particle)
 Thermal correction to Energy=                    0.004322
 Thermal correction to Enthalpy=                  0.005266
 Thermal correction to Gibbs Free Energy=        -0.021732
 Sum of electronic and zero-point Energies=           -100.759457
 Sum of electronic and thermal Energies=              -100.755780
 Sum of electronic and thermal Enthalpies=            -100.754836
 Sum of electronic and thermal Free Energies=         -100.781834

                     E (Thermal)             CV                S
                      KCal/Mol        Cal/Mol-Kelvin    Cal/Mol-Kelvin
 Total                    2.712              8.791             56.823
 Electronic               0.000              0.000              1.377
 Translational            0.889              2.981             35.068
 Rotational               0.592              1.987             14.811
 Vibrational              1.231              3.823              5.566
 Vibration     1          0.615              1.912              2.783
 Vibration     2          0.615              1.912              2.783

 Normal termination of Gaussian 16 at Fri Aug 22 23:37:09 2025.
