 Gaussian 16, Revision C.01,
 Gaussian 16:  ES64L-G16RevC.01  3-Jul-2019

 -----------------------------------------
 # sp b3lyp/6-311g** Force nosymm scf=(qc)
 -----------------------------------------

 -------------------
 Title Card Required
 -------------------
 Symbolic Z-matrix:
 Charge =  0 Multiplicity = 2

                          Input orientation:
 ---------------------------------------------------------------------
 Center     Atomic      Atomic             Coordinates (Angstroms)
 Number     Number       Type             X           Y           Z
 ---------------------------------------------------------------------
      1          1           0        0.000000    0.000000    0.000000
      2          1           0       -1.800000    0.000000    0.000000
      3          9           0        3.150000    0.000000    0.000000
 ---------------------------------------------------------------------

 SCF Done:  E(UB3LYP) =  -100.787050796     a.u. after   28 cycles

 Alpha  occ. eigenvalues --  -24.75040  -1.21028  -0.54163  -0.45481  -0.45481
 Alpha  occ. eigenvalues --   -0.33733
 Alpha virt. eigenvalues --   -0.11512   0.25434   0.30805   0.88986   0.91673
 Alpha virt. eigenvalues --    0.91673   1.03061   1.09402   1.23864   1.23864
 Alpha virt. eigenvalues --    1.36810   1.36810   1.60731   2.14234   2.39656

  Beta  occ. eigenvalues --  -24.71958  -1.12181  -0.42394  -0.42394  -0.33695
  Beta virt. eigenvalues --   -0.25410  -0.11222   0.25695   0.31174   0.93150
  Beta virt. eigenvalues --    0.93150   0.97877   1.06967   1.09599   1.23899
  Beta virt. eigenvalues --    1.23899   1.37159   1.37159   1.61077   2.15121

 Mulliken charges and spin densities:
               1          2
     1  H    0.005714  -0.707447
     2  H    0.014138   0.730657
     3  F   -0.019852   0.976791
 Sum of Mulliken charges =   0.00000   1.00000

 Dipole moment (field-independent basis, Debye):
    X=             -0.4408    Y=              0.0000    Z=              0.0000  Tot=              0.4408
 Quadrupole moment (field-independent basis, Debye-Ang):
   XX=             -6.6938   YY=             -7.7440   ZZ=             -7.7440
   XY=             -0.0000   XZ=             -0.0000   YZ=              0.0000

  Exact polarizability:      56.347      -0.000       2.013      -0.000       0.000       2.013
 Approx polarizability:      57.294      -0.000       1.955      -0.000      -0.000       1.955

 ******    2 imaginary frequencies (negative Signs) ******

                      1                      2                      3
                      A                      A                      A
 Frequencies --  -1736.2896              -191.4787               764.3125
 Red. masses --      1.0079                 1.1085                 1.0126
 Frc consts  --      1.7902                 0.0239                 0.3485
 IR Inten    --     53.2786                19.1152                 0.0000

                      4
                      A
 Frequencies --    764.3125
 Red. masses --      1.0126
 Frc consts  --      0.3485
 IR Inten    --      0.0000

 - Thermochemistry -
 -------------------
 Temperature   298.150 Kelvin.  Pressure   1.00000 Atm.
 Atom     1 has atomic number  1 and mass   1.00783

 Molecular mass:    21.01405 amu.
 Principal axes and moments of inertia in atomic units:
                           1         2         3
     Eigenvalues --     0.00000 112.57113 112.57113
           X            1.00000  -0.00000   0.00000
           Y            0.00000   1.00000   0.00000
           Z            0.00000   0.00000   1.00000
 This molecule is a prolate symmetric top.
 Rotational symmetry number  1.
 Rotational temperature (Kelvin)      0.76942
 Rotational constant (GHZ):          16.032008
    2 imaginary frequencies ignored.
 Zero-point vibrational energy       9143.2 (Joules/Mol)
                                    2.18528 (Kcal/Mol)
 Vibrational temperatures:   1099.68  1099.68
          (Kelvin)

 Zero-point correction=                           0.003482 (Hartree/Particle)
 Thermal correction to Energy=                    0.006022
 Thermal correction to Enthalpy=                  0.006966
 Thermal correction to Gibbs Free Energy=        -0.017148
 Sum of electronic and zero-point Energies=           -100.783568
 Sum of electronic and thermal Energies=              -100.781029
 Sum of electronic and thermal Enthalpies=            -100.780085
 Sum of electronic and thermal Free Energies=         -100.804199

                     E (Thermal)             CV                S
                      KCal/Mol        Cal/Mol-Kelvin    Cal/Mol-Kelvin
 Total                    3.779              6.391             50.753
 Electronic               0.000              0.000              1.377
 Translational            0.889              2.981             35.068
 Rotational               0.592              1.987             13.830
 Vibrational              2.297              1.423              0.477

 Normal termination of Gaussian 16 at Fri Aug 22 20:09:35 2025.
