 Gaussian 16, Revision C.01,
 Gaussian 16:  ES64L-G16RevC.01  3-Jul-2019

 -----------------------------------------
 # sp b3lyp/6-311g** Force nosymm scf=(qc)
 -----------------------------------------

 -------------------
 Title Card Required
 -------------------
 Symbolic Z-matrix:
 Charge =  0 Multiplicity = 2

                          Input orientation:
 ---------------------------------------------------------------------
 Center     Atomic      Atomic             Coordinates (Angstroms)
 Number     Number       Type             X           Y           Z
 ---------------------------------------------------------------------
      1          1           0        0.000000    0.000000    0.000000
      2          1           0       -3.650000    0.000000    0.000000
      3          9           0        1.550000    0.000000    0.000000
 ---------------------------------------------------------------------

 SCF Done:  E(UB3LYP) =  -100.843948221     a.u. after    9 cycles

 Alpha  occ. eigenvalues --  -24.64397  -1.09598  -0.42751  -0.36370  -0.36370
 Alpha  occ. eigenvalues --   -0.33865
 Alpha virt. eigenvalues --   -0.15553   0.20227   0.27515   0.93806   0.93806
 Alpha virt. eigenvalues --    1.02585   1.07662   1.23642   1.23645   1.23645
 Alpha virt. eigenvalues --    1.30617   1.30617   1.73342   2.13002   2.18435

  Beta  occ. eigenvalues --  -24.64264  -1.09245  -0.42464  -0.36244  -0.36244
  Beta virt. eigenvalues --   -0.15961  -0.06546   0.22802   0.38191   0.93745
  Beta virt. eigenvalues --    0.93745   1.02820   1.07617   1.29901   1.29901
  Beta virt. eigenvalues --    1.45952   1.46369   1.46369   1.73023   2.16539

 Mulliken charges and spin densities:
               1          2
     1  H    0.343963  -0.040518
     2  H    0.001405   0.998512
     3  F   -0.345368   0.042006
 Sum of Mulliken charges =  -0.00000   1.00000

 Dipole moment (field-independent basis, Debye):
    X=             -2.6496    Y=             -0.0000    Z=             -0.0000  Tot=              2.6496
 Quadrupole moment (field-independent basis, Debye-Ang):
   XX=            -10.0960   YY=             -7.3478   ZZ=             -7.3478
   XY=             -0.0000   XZ=              0.0000   YZ=             -0.0000

  Exact polarizability:      16.565       0.000       2.165       0.000       0.000       2.165
 Approx polarizability:      32.425       0.000       2.085      -0.000       0.000       2.085

 ******    2 imaginary frequencies (negative Signs) ******

                      1                      2                      3
                      A                      A                      A
 Frequencies --  -1342.9279               -71.1490               978.9754
 Red. masses --      1.0573                 1.0542                 1.0307
 Frc consts  --      1.1235                 0.0031                 0.5820
 IR Inten    --     17.0330                 0.1043               113.9048

                      4
                      A
 Frequencies --    978.9754
 Red. masses --      1.0307
 Frc consts  --      0.5820
 IR Inten    --    113.9048

 - Thermochemistry -
 -------------------
 Temperature   298.150 Kelvin.  Pressure   1.00000 Atm.
 Atom     1 has atomic number  1 and mass   1.00783

 Molecular mass:    21.01405 amu.
 Principal axes and moments of inertia in atomic units:
                           1         2         3
     Eigenvalues --     0.00000  98.09941  98.09941
           X            1.00000  -0.00000   0.00000
           Y            0.00000   1.00000   0.00000
           Z            0.00000   0.00000   1.00000
 This molecule is a prolate symmetric top.
 Rotational symmetry number  1.
 Rotational temperature (Kelvin)      0.88292
 Rotational constant (GHZ):          18.397065
    2 imaginary frequencies ignored.
 Zero-point vibrational energy      11711.1 (Joules/Mol)
                                    2.79903 (Kcal/Mol)
 Vibrational temperatures:   1408.53  1408.53
          (Kelvin)

 Zero-point correction=                           0.004461 (Hartree/Particle)
 Thermal correction to Energy=                    0.006901
 Thermal correction to Enthalpy=                  0.007845
 Thermal correction to Gibbs Free Energy=        -0.016009
 Sum of electronic and zero-point Energies=           -100.839488
 Sum of electronic and thermal Energies=              -100.837047
 Sum of electronic and thermal Enthalpies=            -100.836103
 Sum of electronic and thermal Free Energies=         -100.859958

                     E (Thermal)             CV                S
                      KCal/Mol        Cal/Mol-Kelvin    Cal/Mol-Kelvin
 Total                    4.330              5.770             50.206
 Electronic               0.000              0.000              1.377
 Translational            0.889              2.981             35.068
 Rotational               0.592              1.987             13.557
 Vibrational              2.849              0.802              0.204

 Normal termination of Gaussian 16 at Fri Aug 22 16:29:35 2025.
