 Gaussian 16, Revision C.01,
 Gaussian 16:  ES64L-G16RevC.01  3-Jul-2019

 -----------------------------------------
 # sp b3lyp/6-311g** Force nosymm scf=(qc)
 -----------------------------------------

 -------------------
 Title Card Required
 -------------------
 Symbolic Z-matrix:
 Charge =  0 Multiplicity = 2

                          Input orientation:
 ---------------------------------------------------------------------
 Center     Atomic      Atomic             Coordinates (Angstroms)
 Number     Number       Type             X           Y           Z
 ---------------------------------------------------------------------
      1          1           0        0.000000    0.000000    0.000000
      2          1           0       -1.850000    0.000000    0.000000
      3          9           0        3.550000    0.000000    0.000000
 ---------------------------------------------------------------------

 SCF Done:  E(UB3LYP) =  -100.782650871     a.u. after   51 cycles

 Alpha  occ. eigenvalues --  -24.75749  -1.21687  -0.54873  -0.46081  -0.46080
 Alpha  occ. eigenvalues --   -0.33224
 Alpha virt. eigenvalues --   -0.11114   0.25785   0.31365   0.87367   0.91231
 Alpha virt. eigenvalues --    0.91268   1.01548   1.11402   1.24588   1.24588
 Alpha virt. eigenvalues --    1.37351   1.37351   1.58286   2.14017   2.38495

  Beta  occ. eigenvalues --  -24.72619  -1.12691  -0.42944  -0.42943  -0.33239
  Beta virt. eigenvalues --   -0.25739  -0.10967   0.25695   0.31699   0.92725
  Beta virt. eigenvalues --    0.92746   0.96600   1.05617   1.11434   1.24570
  Beta virt. eigenvalues --    1.24570   1.37526   1.37526   1.58435   2.14455

 Mulliken charges and spin densities:
               1          2
     1  H    0.000277  -0.759179
     2  H    0.006093   0.766889
     3  F   -0.006370   0.992291
 Sum of Mulliken charges =   0.00000   1.00000

 Dipole moment (field-independent basis, Debye):
    X=             -0.1690    Y=              0.0003    Z=              0.0002  Tot=              0.1690
 Quadrupole moment (field-independent basis, Debye-Ang):
   XX=             -6.3237   YY=             -7.7305   ZZ=             -7.7398
   XY=              0.1224   XZ=              0.0848   YZ=              0.0125

  Exact polarizability:      47.704       0.105       2.021       0.329       0.007       2.030
 Approx polarizability:      42.178       0.072       1.964       0.050       0.008       1.958

 ******    2 imaginary frequencies (negative Signs) ******

                      1                      2                      3
                      A                      A                      A
 Frequencies --  -1641.1110              -123.9538               708.0340
 Red. masses --      1.0078                 1.1085                 1.0120
 Frc consts  --      1.5992                 0.0100                 0.2989
 IR Inten    --     25.5493                 7.0214                 0.2176

                      4
                      A
 Frequencies --    708.6480
 Red. masses --      1.0120
 Frc consts  --      0.2994
 IR Inten    --      0.0331

 - Thermochemistry -
 -------------------
 Temperature   298.150 Kelvin.  Pressure   1.00000 Atm.
 Atom     1 has atomic number  1 and mass   1.00783

 Molecular mass:    21.01405 amu.
 Principal axes and moments of inertia in atomic units:
                           1         2         3
     Eigenvalues --     0.00000 136.47735 136.47735
           X            1.00000  -0.00000   0.00000
           Y            0.00000   1.00000   0.00000
           Z            0.00000   0.00000   1.00000
 This molecule is a prolate symmetric top.
 Rotational symmetry number  1.
 Rotational temperature (Kelvin)      0.63464
 Rotational constant (GHZ):          13.223742
    2 imaginary frequencies ignored.
 Zero-point vibrational energy       8473.6 (Joules/Mol)
                                    2.02525 (Kcal/Mol)
 Vibrational temperatures:   1018.70  1019.59
          (Kelvin)

 Zero-point correction=                           0.003227 (Hartree/Particle)
 Thermal correction to Energy=                    0.005807
 Thermal correction to Enthalpy=                  0.006751
 Thermal correction to Gibbs Free Energy=        -0.017600
 Sum of electronic and zero-point Energies=           -100.779423
 Sum of electronic and thermal Energies=              -100.776844
 Sum of electronic and thermal Enthalpies=            -100.775900
 Sum of electronic and thermal Free Energies=         -100.800251

                     E (Thermal)             CV                S
                      KCal/Mol        Cal/Mol-Kelvin    Cal/Mol-Kelvin
 Total                    3.644              6.595             51.251
 Electronic               0.000              0.000              1.377
 Translational            0.889              2.981             35.068
 Rotational               0.592              1.987             14.213
 Vibrational              2.162              1.627              0.593

 Normal termination of Gaussian 16 at Fri Aug 22 22:38:41 2025.
