 Gaussian 16, Revision C.01,
 Gaussian 16:  ES64L-G16RevC.01  3-Jul-2019

 -----------------------------------------
 # sp b3lyp/6-311g** Force nosymm scf=(qc)
 -----------------------------------------

 -------------------
 Title Card Required
 -------------------
 Symbolic Z-matrix:
 Charge =  0 Multiplicity = 2

                          Input orientation:
 ---------------------------------------------------------------------
 Center     Atomic      Atomic             Coordinates (Angstroms)
 Number     Number       Type             X           Y           Z
 ---------------------------------------------------------------------
      1          1           0        0.000000    0.000000    0.000000
      2          1           0       -1.200000    0.000000    0.000000
      3          9           0        2.500000    0.000000    0.000000
 ---------------------------------------------------------------------

 SCF Done:  E(UB3LYP) =  -100.872853409     a.u. after   27 cycles

 Alpha  occ. eigenvalues --  -24.75253  -1.21227  -0.54434  -0.45716  -0.45674
 Alpha  occ. eigenvalues --   -0.37432
 Alpha virt. eigenvalues --   -0.04522   0.22583   0.34845   0.88814   0.91418
 Alpha virt. eigenvalues --    0.91838   1.08450   1.11749   1.11752   1.23223
 Alpha virt. eigenvalues --    1.53273   1.53275   2.06747   2.30854   2.54793

  Beta  occ. eigenvalues --  -24.72188  -1.12443  -0.42669  -0.42607  -0.37190
  Beta virt. eigenvalues --   -0.25884  -0.03985   0.22902   0.35301   0.92869
  Beta virt. eigenvalues --    0.93032   0.97403   1.12000   1.12068   1.12071
  Beta virt. eigenvalues --    1.24399   1.53538   1.53540   2.07146   2.31267

 Mulliken charges and spin densities:
               1          2
     1  H   -0.001304  -0.037924
     2  H    0.022334   0.069101
     3  F   -0.021030   0.968823
 Sum of Mulliken charges =   0.00000   1.00000

 Dipole moment (field-independent basis, Debye):
    X=             -0.3996    Y=              0.0021    Z=             -0.0010  Tot=              0.3996
 Quadrupole moment (field-independent basis, Debye-Ang):
   XX=             -6.1129   YY=             -7.3905   ZZ=             -7.4506
   XY=              0.2405   XZ=             -0.1173   YZ=             -0.0385

  Exact polarizability:     142.414       2.122       2.180      -0.055      -0.009       2.125
 Approx polarizability:      44.190       0.037       2.172      -0.018      -0.026       2.132

 ******    2 imaginary frequencies (negative Signs) ******

                      1                      2                      3
                      A                      A                      A
 Frequencies --  -1216.6678              -143.4514              1409.7022
 Red. masses --      1.0176                 1.0968                 1.0115
 Frc consts  --      0.8875                 0.0133                 1.1843
 IR Inten    --   5737.8694                 4.9611                88.4928

                      4
                      A
 Frequencies --   1430.1459
 Red. masses --      1.0115
 Frc consts  --      1.2189
 IR Inten    --     55.3543

 - Thermochemistry -
 -------------------
 Temperature   298.150 Kelvin.  Pressure   1.00000 Atm.
 Atom     1 has atomic number  1 and mass   1.00783

 Molecular mass:    21.01405 amu.
 Principal axes and moments of inertia in atomic units:
                           1         2         3
     Eigenvalues --     0.00000  65.12922  65.12922
           X            1.00000  -0.00000   0.00000
           Y            0.00000   1.00000   0.00000
           Z            0.00000   0.00000   1.00000
 This molecule is a prolate symmetric top.
 Rotational symmetry number  1.
 Rotational temperature (Kelvin)      1.32988
 Rotational constant (GHZ):          27.710161
    2 imaginary frequencies ignored.
 Zero-point vibrational energy      16986.1 (Joules/Mol)
                                    4.05977 (Kcal/Mol)
 Vibrational temperatures:   2028.25  2057.66
          (Kelvin)

 Zero-point correction=                           0.006470 (Hartree/Particle)
 Thermal correction to Energy=                    0.008844
 Thermal correction to Enthalpy=                  0.009788
 Thermal correction to Gibbs Free Energy=        -0.013599
 Sum of electronic and zero-point Energies=           -100.866384
 Sum of electronic and thermal Energies=              -100.864010
 Sum of electronic and thermal Enthalpies=            -100.863065
 Sum of electronic and thermal Free Energies=         -100.886452

                     E (Thermal)             CV                S
                      KCal/Mol        Cal/Mol-Kelvin    Cal/Mol-Kelvin
 Total                    5.550              5.166             49.221
 Electronic               0.000              0.000              1.377
 Translational            0.889              2.981             35.068
 Rotational               0.592              1.987             12.743
 Vibrational              4.068              0.198              0.033

 Normal termination of Gaussian 16 at Fri Aug 22 17:43:52 2025.
