 Gaussian 16, Revision C.01,
 Gaussian 16:  ES64L-G16RevC.01  3-Jul-2019

 -----------------------------------------
 # sp b3lyp/6-311g** Force nosymm scf=(qc)
 -----------------------------------------

 -------------------
 Title Card Required
 -------------------
 Symbolic Z-matrix:
 Charge =  0 Multiplicity = 2

                          Input orientation:
 ---------------------------------------------------------------------
 Center     Atomic      Atomic             Coordinates (Angstroms)
 Number     Number       Type             X           Y           Z
 ---------------------------------------------------------------------
      1          1           0        0.000000    0.000000    0.000000
      2          1           0       -1.150000    0.000000    0.000000
      3          9           0        2.450000    0.000000    0.000000
 ---------------------------------------------------------------------

 SCF Done:  E(UB3LYP) =  -100.881922639     a.u. after   72 cycles

 Alpha  occ. eigenvalues --  -24.75181  -1.21165  -0.54396  -0.45643  -0.45616
 Alpha  occ. eigenvalues --   -0.38098
 Alpha virt. eigenvalues --   -0.03387   0.22243   0.35822   0.88992   0.91433
 Alpha virt. eigenvalues --    0.91670   1.09111   1.10549   1.10551   1.27112
 Alpha virt. eigenvalues --    1.55869   1.55870   2.11240   2.32141   2.55075

  Beta  occ. eigenvalues --  -24.72121  -1.12398  -0.42597  -0.42555  -0.37865
  Beta virt. eigenvalues --   -0.25870  -0.02794   0.22586   0.36282   0.92881
  Beta virt. eigenvalues --    0.92967   0.97398   1.10895   1.10895   1.12716
  Beta virt. eigenvalues --    1.28279   1.56149   1.56150   2.11684   2.32567

 Mulliken charges and spin densities:
               1          2
     1  H   -0.001896  -0.035413
     2  H    0.024584   0.068653
     3  F   -0.022688   0.966760
 Sum of Mulliken charges =   0.00000   1.00000

 Dipole moment (field-independent basis, Debye):
    X=             -0.4181    Y=              0.0017    Z=             -0.0007  Tot=              0.4181
 Quadrupole moment (field-independent basis, Debye-Ang):
   XX=             -6.0866   YY=             -7.3699   ZZ=             -7.4075
   XY=              0.1877   XZ=             -0.0782   YZ=             -0.0190

  Exact polarizability:     411.775       0.361       2.136     -25.526       0.006       3.910
 Approx polarizability:      40.716       0.029       2.160      -0.012      -0.013       2.135

 ******    1 imaginary frequencies (negative Signs) ******

                      1                      2                      3
                      A                      A                      A
 Frequencies --  -2619.1145               228.7598               939.3298
 Red. masses --      1.0180                 1.0951                 1.0125
 Frc consts  --      4.1146                 0.0338                 0.5264
 IR Inten    -- 115010.0179                82.2497              1043.9762

                      4
                      A
 Frequencies --   1456.5819
 Red. masses --      1.0114
 Frc consts  --      1.2642
 IR Inten    --     25.5556

 - Thermochemistry -
 -------------------
 Temperature   298.150 Kelvin.  Pressure   1.00000 Atm.
 Atom     1 has atomic number  1 and mass   1.00783

 Molecular mass:    21.01405 amu.
 Principal axes and moments of inertia in atomic units:
                           1         2         3
     Eigenvalues --     0.00000  61.92835  61.92835
           X            1.00000  -0.00000   0.00000
           Y            0.00000   1.00000   0.00000
           Z            0.00000   0.00000   1.00000
 This molecule is a prolate symmetric top.
 Rotational symmetry number  1.
 Rotational temperature (Kelvin)      1.39861
 Rotational constant (GHZ):          29.142405
    1 imaginary frequencies ignored.
 Zero-point vibrational energy      15699.0 (Joules/Mol)
                                    3.75216 (Kcal/Mol)
 Warning -- explicit consideration of   1 degrees of freedom as
           vibrations may cause significant error
 Vibrational temperatures:    329.13  1351.49  2095.70
          (Kelvin)

 Zero-point correction=                           0.005979 (Hartree/Particle)
 Thermal correction to Energy=                    0.008909
 Thermal correction to Enthalpy=                  0.009854
 Thermal correction to Gibbs Free Energy=        -0.014431
 Sum of electronic and zero-point Energies=           -100.875943
 Sum of electronic and thermal Energies=              -100.873013
 Sum of electronic and thermal Enthalpies=            -100.872069
 Sum of electronic and thermal Free Energies=         -100.896353

                     E (Thermal)             CV                S
                      KCal/Mol        Cal/Mol-Kelvin    Cal/Mol-Kelvin
 Total                    5.591              7.301             51.110
 Electronic               0.000              0.000              1.377
 Translational            0.889              2.981             35.068
 Rotational               0.592              1.987             12.643
 Vibrational              4.109              2.333              2.022
 Vibration     1          0.651              1.797              1.889

 Normal termination of Gaussian 16 at Fri Aug 22 17:37:24 2025.
