 Gaussian 16, Revision C.01,
 Gaussian 16:  ES64L-G16RevC.01  3-Jul-2019

 -----------------------------------------
 # sp b3lyp/6-311g** Force nosymm scf=(qc)
 -----------------------------------------

 -------------------
 Title Card Required
 -------------------
 Symbolic Z-matrix:
 Charge =  0 Multiplicity = 2

                          Input orientation:
 ---------------------------------------------------------------------
 Center     Atomic      Atomic             Coordinates (Angstroms)
 Number     Number       Type             X           Y           Z
 ---------------------------------------------------------------------
      1          1           0        0.000000    0.000000    0.000000
      2          1           0       -3.300000    0.000000    0.000000
      3          9           0        3.000000    0.000000    0.000000
 ---------------------------------------------------------------------

 SCF Done:  E(UB3LYP) =  -100.761303222     a.u. after   21 cycles

 Alpha  occ. eigenvalues --  -24.74090  -1.20149  -0.53209  -0.44678  -0.44678
 Alpha  occ. eigenvalues --   -0.32599
 Alpha virt. eigenvalues --   -0.08449   0.24227   0.35815   0.89408   0.92273
 Alpha virt. eigenvalues --    0.92273   1.03917   1.24916   1.24916   1.25240
 Alpha virt. eigenvalues --    1.43473   1.43473   1.43789   2.15095   2.39646

  Beta  occ. eigenvalues --  -24.71062  -1.11473  -0.41648  -0.41648  -0.33743
  Beta virt. eigenvalues --   -0.24779  -0.06944   0.24199   0.37529   0.93734
  Beta virt. eigenvalues --    0.93734   0.98103   1.07664   1.23601   1.23601
  Beta virt. eigenvalues --    1.24195   1.45376   1.45623   1.45623   2.15349

 Mulliken charges and spin densities:
               1          2
     1  H    0.036282  -0.955886
     2  H    0.000751   0.996593
     3  F   -0.037034   0.959293
 Sum of Mulliken charges =  -0.00000   1.00000

 Dipole moment (field-independent basis, Debye):
    X=             -0.5825    Y=             -0.0000    Z=             -0.0000  Tot=              0.5825
 Quadrupole moment (field-independent basis, Debye-Ang):
   XX=             -8.2722   YY=             -7.6131   ZZ=             -7.6131
   XY=             -0.0000   XZ=             -0.0000   YZ=             -0.0000

  Exact polarizability:      32.764      -0.000       2.025      -0.000      -0.000       2.025
 Approx polarizability:      32.934      -0.000       1.926      -0.000       0.000       1.926

 ******    2 imaginary frequencies (negative Signs) ******

                      1                      2                      3
                      A                      A                      A
 Frequencies --   -394.6104              -144.2327               141.3854
 Red. masses --      1.0398                 1.0722                 1.0191
 Frc consts  --      0.0954                 0.0131                 0.0120
 IR Inten    --     38.3203                 1.6464                 1.2118

                      4
                      A
 Frequencies --    141.3854
 Red. masses --      1.0191
 Frc consts  --      0.0120
 IR Inten    --      1.2118

 - Thermochemistry -
 -------------------
 Temperature   298.150 Kelvin.  Pressure   1.00000 Atm.
 Atom     1 has atomic number  1 and mass   1.00783

 Molecular mass:    21.01405 amu.
 Principal axes and moments of inertia in atomic units:
                           1         2         3
     Eigenvalues --     0.00000 160.30695 160.30695
           X            1.00000  -0.00000   0.00000
           Y            0.00000   1.00000   0.00000
           Z            0.00000   0.00000   1.00000
 This molecule is a prolate symmetric top.
 Rotational symmetry number  1.
 Rotational temperature (Kelvin)      0.54030
 Rotational constant (GHZ):          11.258034
    2 imaginary frequencies ignored.
 Zero-point vibrational energy       1691.3 (Joules/Mol)
                                    0.40424 (Kcal/Mol)
 Warning -- explicit consideration of   2 degrees of freedom as
           vibrations may cause significant error
 Vibrational temperatures:    203.42   203.42
          (Kelvin)

 Zero-point correction=                           0.000644 (Hartree/Particle)
 Thermal correction to Energy=                    0.004322
 Thermal correction to Enthalpy=                  0.005266
 Thermal correction to Gibbs Free Energy=        -0.021602
 Sum of electronic and zero-point Energies=           -100.760659
 Sum of electronic and thermal Energies=              -100.756982
 Sum of electronic and thermal Enthalpies=            -100.756038
 Sum of electronic and thermal Free Energies=         -100.782905

                     E (Thermal)             CV                S
                      KCal/Mol        Cal/Mol-Kelvin    Cal/Mol-Kelvin
 Total                    2.712              8.792             56.548
 Electronic               0.000              0.000              1.377
 Translational            0.889              2.981             35.068
 Rotational               0.592              1.987             14.533
 Vibrational              1.231              3.824              5.570
 Vibration     1          0.615              1.912              2.785
 Vibration     2          0.615              1.912              2.785

 Normal termination of Gaussian 16 at Fri Aug 22 19:32:56 2025.
