 Gaussian 16, Revision C.01,
 Gaussian 16:  ES64L-G16RevC.01  3-Jul-2019

 -----------------------------------------
 # sp b3lyp/6-311g** Force nosymm scf=(qc)
 -----------------------------------------

 -------------------
 Title Card Required
 -------------------
 Symbolic Z-matrix:
 Charge =  0 Multiplicity = 2

                          Input orientation:
 ---------------------------------------------------------------------
 Center     Atomic      Atomic             Coordinates (Angstroms)
 Number     Number       Type             X           Y           Z
 ---------------------------------------------------------------------
      1          1           0        0.000000    0.000000    0.000000
      2          1           0       -1.700000    0.000000    0.000000
      3          9           0        2.000000    0.000000    0.000000
 ---------------------------------------------------------------------

 SCF Done:  E(UB3LYP) =  -100.816275375     a.u. after   13 cycles

 Alpha  occ. eigenvalues --  -24.68765  -1.15119  -0.48050  -0.40218  -0.40218
 Alpha  occ. eigenvalues --   -0.37361
 Alpha virt. eigenvalues --   -0.12288   0.23064   0.30742   0.85406   0.94538
 Alpha virt. eigenvalues --    0.94538   1.03140   1.19535   1.19535   1.27908
 Alpha virt. eigenvalues --    1.35050   1.35050   1.70459   2.14838   2.37779

  Beta  occ. eigenvalues --  -24.66295  -1.08196  -0.37779  -0.37779  -0.37318
  Beta virt. eigenvalues --   -0.22526  -0.10809   0.25633   0.30378   0.88690
  Beta virt. eigenvalues --    0.95399   0.95399   1.07303   1.21836   1.21836
  Beta virt. eigenvalues --    1.33571   1.35788   1.35788   1.71138   2.15596

 Mulliken charges and spin densities:
               1          2
     1  H    0.111971  -0.507908
     2  H    0.059287   0.732152
     3  F   -0.171258   0.775755
 Sum of Mulliken charges =  -0.00000   1.00000

 Dipole moment (field-independent basis, Debye):
    X=             -2.1863    Y=             -0.0000    Z=             -0.0000  Tot=              2.1863
 Quadrupole moment (field-independent basis, Debye-Ang):
   XX=             -8.1641   YY=             -7.5505   ZZ=             -7.5505
   XY=             -0.0000   XZ=             -0.0000   YZ=             -0.0000

  Exact polarizability:      53.475      -0.000       2.084      -0.000      -0.000       2.084
 Approx polarizability:      73.507       0.000       2.013       0.000       0.000       2.013

 ******    2 imaginary frequencies (negative Signs) ******

                      1                      2                      3
                      A                      A                      A
 Frequencies --  -2001.5999              -560.2077               867.9924
 Red. masses --      1.0128                 1.1025                 1.0161
 Frc consts  --      2.3908                 0.2039                 0.4510
 IR Inten    --    350.0867                28.8319                 5.2892

                      4
                      A
 Frequencies --    867.9924
 Red. masses --      1.0161
 Frc consts  --      0.4510
 IR Inten    --      5.2892

 - Thermochemistry -
 -------------------
 Temperature   298.150 Kelvin.  Pressure   1.00000 Atm.
 Atom     1 has atomic number  1 and mass   1.00783

 Molecular mass:    21.01405 amu.
 Principal axes and moments of inertia in atomic units:
                           1         2         3
     Eigenvalues --     0.00000  58.05846  58.05846
           X            1.00000  -0.00000   0.00000
           Y            0.00000   1.00000   0.00000
           Z            0.00000   0.00000   1.00000
 This molecule is a prolate symmetric top.
 Rotational symmetry number  1.
 Rotational temperature (Kelvin)      1.49184
 Rotational constant (GHZ):          31.084895
    2 imaginary frequencies ignored.
 Zero-point vibrational energy      10383.5 (Joules/Mol)
                                    2.48171 (Kcal/Mol)
 Vibrational temperatures:   1248.85  1248.85
          (Kelvin)

 Zero-point correction=                           0.003955 (Hartree/Particle)
 Thermal correction to Energy=                    0.006437
 Thermal correction to Enthalpy=                  0.007381
 Thermal correction to Gibbs Free Energy=        -0.016032
 Sum of electronic and zero-point Energies=           -100.812321
 Sum of electronic and thermal Energies=              -100.809838
 Sum of electronic and thermal Enthalpies=            -100.808894
 Sum of electronic and thermal Free Energies=         -100.832307

                     E (Thermal)             CV                S
                      KCal/Mol        Cal/Mol-Kelvin    Cal/Mol-Kelvin
 Total                    4.039              6.058             49.277
 Electronic               0.000              0.000              1.377
 Translational            0.889              2.981             35.068
 Rotational               0.592              1.987             12.515
 Vibrational              2.558              1.090              0.317

 Normal termination of Gaussian 16 at Fri Aug 22 16:56:13 2025.
