 Gaussian 16, Revision C.01,
 Gaussian 16:  ES64L-G16RevC.01  3-Jul-2019

 -----------------------------------------
 # sp b3lyp/6-311g** Force nosymm scf=(qc)
 -----------------------------------------

 -------------------
 Title Card Required
 -------------------
 Symbolic Z-matrix:
 Charge =  0 Multiplicity = 2

                          Input orientation:
 ---------------------------------------------------------------------
 Center     Atomic      Atomic             Coordinates (Angstroms)
 Number     Number       Type             X           Y           Z
 ---------------------------------------------------------------------
      1          1           0        0.000000    0.000000    0.000000
      2          1           0       -2.550000    0.000000    0.000000
      3          9           0        0.500000    0.000000    0.000000
 ---------------------------------------------------------------------

 SCF Done:  E(UB3LYP) =  -100.269035637     a.u. after    6 cycles

 Alpha  occ. eigenvalues --  -24.63009  -1.42322  -0.63500  -0.44306  -0.44306
 Alpha  occ. eigenvalues --   -0.34108
 Alpha virt. eigenvalues --    0.09380   0.25722   0.61998   0.89106   0.90187
 Alpha virt. eigenvalues --    0.90187   1.19119   1.23439   1.23439   1.47754
 Alpha virt. eigenvalues --    1.58534   1.58534   1.99392   2.15833   3.76661

  Beta  occ. eigenvalues --  -24.63003  -1.42305  -0.63491  -0.44304  -0.44304
  Beta virt. eigenvalues --   -0.07378   0.10645   0.38779   0.61406   0.89204
  Beta virt. eigenvalues --    0.90170   0.90170   1.32710   1.46682   1.46682
  Beta virt. eigenvalues --    1.58329   1.58529   1.58529   2.00093   2.45702

 Mulliken charges and spin densities:
               1          2
     1  H    0.118236   0.003158
     2  H    0.004277   0.994906
     3  F   -0.122513   0.001936
 Sum of Mulliken charges =   0.00000   1.00000

 Dipole moment (field-independent basis, Debye):
    X=             -1.3382    Y=             -0.0000    Z=             -0.0000  Tot=              1.3382
 Quadrupole moment (field-independent basis, Debye-Ang):
   XX=             -6.5115   YY=             -6.4335   ZZ=             -6.4335
   XY=             -0.0000   XZ=             -0.0000   YZ=             -0.0000

  Exact polarizability:       4.258      -0.000       2.431      -0.000      -0.000       2.431
 Approx polarizability:       4.237       0.000       2.413      -0.000       0.000       2.413

 ******    2 imaginary frequencies (negative Signs) ******

                      1                      2                      3
                      A                      A                      A
 Frequencies --  -9545.8549             -9545.8549               125.6934
 Red. masses --      1.0422                 1.0422                 1.0533
 Frc consts  --     55.9551                55.9551                 0.0098
 IR Inten    --    267.4392               267.4392                 0.1113

                      4
                      A
 Frequencies --  19158.9161
 Red. masses --      1.0583
 Frc consts  --    228.8782
 IR Inten    --     83.5109

 - Thermochemistry -
 -------------------
 Temperature   298.150 Kelvin.  Pressure   1.00000 Atm.
 Atom     1 has atomic number  1 and mass   1.00783

 Molecular mass:    21.01405 amu.
 Principal axes and moments of inertia in atomic units:
                           1         2         3
     Eigenvalues --     0.00000  32.20425  32.20425
           X            1.00000  -0.00000   0.00000
           Y            0.00000   1.00000   0.00000
           Z            0.00000   0.00000   1.00000
 This molecule is a prolate symmetric top.
 Rotational symmetry number  1.
 Rotational temperature (Kelvin)      2.68952
 Rotational constant (GHZ):          56.040466
    2 imaginary frequencies ignored.
 Zero-point vibrational energy     115347.6 (Joules/Mol)
                                   27.56873 (Kcal/Mol)
 Warning -- explicit consideration of   1 degrees of freedom as
           vibrations may cause significant error
 Vibrational temperatures:    180.84 27565.41
          (Kelvin)

 Zero-point correction=                           0.043934 (Hartree/Particle)
 Thermal correction to Energy=                    0.046981
 Thermal correction to Enthalpy=                  0.047925
 Thermal correction to Gibbs Free Energy=         0.023788
 Sum of electronic and zero-point Energies=           -100.225102
 Sum of electronic and thermal Energies=              -100.222055
 Sum of electronic and thermal Enthalpies=            -100.221111
 Sum of electronic and thermal Free Energies=         -100.245247

                     E (Thermal)             CV                S
                      KCal/Mol        Cal/Mol-Kelvin    Cal/Mol-Kelvin
 Total                   29.481              6.895             50.800
 Electronic               0.000              0.000              1.377
 Translational            0.889              2.981             35.068
 Rotational               0.592              1.987             11.343
 Vibrational             28.000              1.927              3.011
 Vibration     1          0.611              1.927              3.011

 Normal termination of Gaussian 16 at Fri Aug 22 15:37:17 2025.
