 Gaussian 16, Revision C.01,
 Gaussian 16:  ES64L-G16RevC.01  3-Jul-2019

 -----------------------------------------
 # sp b3lyp/6-311g** Force nosymm scf=(qc)
 -----------------------------------------

 -------------------
 Title Card Required
 -------------------
 Symbolic Z-matrix:
 Charge =  0 Multiplicity = 2

                          Input orientation:
 ---------------------------------------------------------------------
 Center     Atomic      Atomic             Coordinates (Angstroms)
 Number     Number       Type             X           Y           Z
 ---------------------------------------------------------------------
      1          1           0        0.000000    0.000000    0.000000
      2          1           0       -2.300000    0.000000    0.000000
      3          9           0        2.950000    0.000000    0.000000
 ---------------------------------------------------------------------

 SCF Done:  E(UB3LYP) =  -100.767989933     a.u. after   24 cycles

 Alpha  occ. eigenvalues --  -24.74009  -1.20069  -0.53125  -0.44606  -0.44606
 Alpha  occ. eigenvalues --   -0.33369
 Alpha virt. eigenvalues --   -0.11165   0.25451   0.32980   0.89756   0.92326
 Alpha virt. eigenvalues --    0.92326   1.04273   1.24393   1.24393   1.25206
 Alpha virt. eigenvalues --    1.38509   1.38509   1.42588   2.14188   2.35403

  Beta  occ. eigenvalues --  -24.70989  -1.11418  -0.41585  -0.41585  -0.33927
  Beta virt. eigenvalues --   -0.24760  -0.10081   0.25808   0.33999   0.93784
  Beta virt. eigenvalues --    0.93784   0.98462   1.08186   1.23700   1.23700
  Beta virt. eigenvalues --    1.24468   1.40269   1.40269   1.44185   2.15329

 Mulliken charges and spin densities:
               1          2
     1  H    0.029169  -0.903079
     2  H    0.009496   0.946448
     3  F   -0.038665   0.956631
 Sum of Mulliken charges =  -0.00000   1.00000

 Dipole moment (field-independent basis, Debye):
    X=             -0.6892    Y=              0.0000    Z=             -0.0000  Tot=              0.6892
 Quadrupole moment (field-independent basis, Debye-Ang):
   XX=             -7.8362   YY=             -7.6691   ZZ=             -7.6691
   XY=              0.0000   XZ=             -0.0000   YZ=             -0.0000

  Exact polarizability:      50.277       0.000       2.009      -0.000       0.000       2.009
 Approx polarizability:      44.930       0.000       1.922      -0.000      -0.000       1.922

 ******    2 imaginary frequencies (negative Signs) ******

                      1                      2                      3
                      A                      A                      A
 Frequencies --   -914.5644              -253.6346               348.8298
 Red. masses --      1.0087                 1.1074                 1.0152
 Frc consts  --      0.4971                 0.0420                 0.0728
 IR Inten    --     24.6330                25.8142                 0.5746

                      4
                      A
 Frequencies --    348.8298
 Red. masses --      1.0152
 Frc consts  --      0.0728
 IR Inten    --      0.5746

 - Thermochemistry -
 -------------------
 Temperature   298.150 Kelvin.  Pressure   1.00000 Atm.
 Atom     1 has atomic number  1 and mass   1.00783

 Molecular mass:    21.01405 amu.
 Principal axes and moments of inertia in atomic units:
                           1         2         3
     Eigenvalues --     0.00000 118.91196 118.91196
           X            1.00000  -0.00000   0.00000
           Y            0.00000   1.00000   0.00000
           Z            0.00000   0.00000   1.00000
 This molecule is a prolate symmetric top.
 Rotational symmetry number  1.
 Rotational temperature (Kelvin)      0.72839
 Rotational constant (GHZ):          15.177122
    2 imaginary frequencies ignored.
 Zero-point vibrational energy       4172.9 (Joules/Mol)
                                    0.99735 (Kcal/Mol)
 Warning -- explicit consideration of   2 degrees of freedom as
           vibrations may cause significant error
 Vibrational temperatures:    501.89   501.89
          (Kelvin)

 Zero-point correction=                           0.001589 (Hartree/Particle)
 Thermal correction to Energy=                    0.004675
 Thermal correction to Enthalpy=                  0.005619
 Thermal correction to Gibbs Free Energy=        -0.019433
 Sum of electronic and zero-point Energies=           -100.766401
 Sum of electronic and thermal Energies=              -100.763315
 Sum of electronic and thermal Enthalpies=            -100.762371
 Sum of electronic and thermal Free Energies=         -100.787423

                     E (Thermal)             CV                S
                      KCal/Mol        Cal/Mol-Kelvin    Cal/Mol-Kelvin
 Total                    2.934              8.123             52.728
 Electronic               0.000              0.000              1.377
 Translational            0.889              2.981             35.068
 Rotational               0.592              1.987             13.939
 Vibrational              1.452              3.155              2.343
 Vibration     1          0.726              1.578              1.171
 Vibration     2          0.726              1.578              1.171

 Normal termination of Gaussian 16 at Fri Aug 22 19:17:41 2025.
