 Gaussian 16, Revision C.01,
 Gaussian 16:  ES64L-G16RevC.01  3-Jul-2019

 -----------------------------------------
 # sp b3lyp/6-311g** Force nosymm scf=(qc)
 -----------------------------------------

 -------------------
 Title Card Required
 -------------------
 Symbolic Z-matrix:
 Charge =  0 Multiplicity = 2

                          Input orientation:
 ---------------------------------------------------------------------
 Center     Atomic      Atomic             Coordinates (Angstroms)
 Number     Number       Type             X           Y           Z
 ---------------------------------------------------------------------
      1          1           0        0.000000    0.000000    0.000000
      2          1           0       -1.350000    0.000000    0.000000
      3          9           0        3.350000    0.000000    0.000000
 ---------------------------------------------------------------------

 SCF Done:  E(UB3LYP) =  -100.845297321     a.u. after   23 cycles

 Alpha  occ. eigenvalues --  -24.76466  -1.22327  -0.55524  -0.46730  -0.46677
 Alpha  occ. eigenvalues --   -0.34761
 Alpha virt. eigenvalues --   -0.07095   0.23940   0.31986   0.85889   0.90765
 Alpha virt. eigenvalues --    0.92457   1.01705   1.13077   1.16695   1.16698
 Alpha virt. eigenvalues --    1.47264   1.47268   1.94577   2.27382   2.51813

  Beta  occ. eigenvalues --  -24.73308  -1.13248  -0.43566  -0.43511  -0.34757
  Beta virt. eigenvalues --   -0.26161  -0.07089   0.23952   0.32027   0.92264
  Beta virt. eigenvalues --    0.93983   0.95352   1.05766   1.13092   1.16694
  Beta virt. eigenvalues --    1.16698   1.47263   1.47267   1.94585   2.27385

 Mulliken charges and spin densities:
               1          2
     1  H    0.000027   0.000112
     2  H   -0.003994  -0.000598
     3  F    0.003967   1.000486
 Sum of Mulliken charges =   0.00000   1.00000

 Dipole moment (field-independent basis, Debye):
    X=              0.0636    Y=             -0.0000    Z=              0.0000  Tot=              0.0636
 Quadrupole moment (field-independent basis, Debye-Ang):
   XX=             -6.2207   YY=             -6.7884   ZZ=             -7.6308
   XY=             -0.0000   XZ=              0.0000   YZ=             -0.0963

  Exact polarizability:      19.454      -0.000       2.524      -0.000      -0.052       2.072
 Approx polarizability:      32.762      -0.000       2.651       0.000      -0.065       2.084

 ******    2 imaginary frequencies (negative Signs) ******

                      1                      2                      3
                      A                      A                      A
 Frequencies --  -1087.3585               -33.2721              1351.8798
 Red. masses --      1.0078                 1.1085                 1.0106
 Frc consts  --      0.7021                 0.0007                 1.0882
 IR Inten    --      0.3365                 0.2516                 0.0022

                      4
                      A
 Frequencies --   1352.8383
 Red. masses --      1.0106
 Frc consts  --      1.0897
 IR Inten    --      0.0021

 - Thermochemistry -
 -------------------
 Temperature   298.150 Kelvin.  Pressure   1.00000 Atm.
 Atom     1 has atomic number  1 and mass   1.00783

 Molecular mass:    21.01405 amu.
 Principal axes and moments of inertia in atomic units:
                           1         2         3
     Eigenvalues --     0.00000 108.70661 108.70661
           X            1.00000  -0.00000   0.00000
           Y            0.00000   1.00000   0.00000
           Z            0.00000   0.00000   1.00000
 This molecule is a prolate symmetric top.
 Rotational symmetry number  1.
 Rotational temperature (Kelvin)      0.79677
 Rotational constant (GHZ):          16.601945
    2 imaginary frequencies ignored.
 Zero-point vibrational energy      16177.8 (Joules/Mol)
                                    3.86659 (Kcal/Mol)
 Vibrational temperatures:   1945.05  1946.43
          (Kelvin)

 Zero-point correction=                           0.006162 (Hartree/Particle)
 Thermal correction to Energy=                    0.008540
 Thermal correction to Enthalpy=                  0.009485
 Thermal correction to Gibbs Free Energy=        -0.014391
 Sum of electronic and zero-point Energies=           -100.839136
 Sum of electronic and thermal Energies=              -100.836757
 Sum of electronic and thermal Enthalpies=            -100.835813
 Sum of electronic and thermal Free Energies=         -100.859688

                     E (Thermal)             CV                S
                      KCal/Mol        Cal/Mol-Kelvin    Cal/Mol-Kelvin
 Total                    5.359              5.217             50.250
 Electronic               0.000              0.000              1.377
 Translational            0.889              2.981             35.068
 Rotational               0.592              1.987             13.761
 Vibrational              3.878              0.249              0.044

 Normal termination of Gaussian 16 at Fri Aug 22 20:56:32 2025.
