 Gaussian 16, Revision C.01,
 Gaussian 16:  ES64L-G16RevC.01  3-Jul-2019

 -----------------------------------------
 # sp b3lyp/6-311g** Force nosymm scf=(qc)
 -----------------------------------------

 -------------------
 Title Card Required
 -------------------
 Symbolic Z-matrix:
 Charge =  0 Multiplicity = 2

                          Input orientation:
 ---------------------------------------------------------------------
 Center     Atomic      Atomic             Coordinates (Angstroms)
 Number     Number       Type             X           Y           Z
 ---------------------------------------------------------------------
      1          1           0        0.000000    0.000000    0.000000
      2          1           0       -2.400000    0.000000    0.000000
      3          9           0        3.750000    0.000000    0.000000
 ---------------------------------------------------------------------

 SCF Done:  E(UB3LYP) =  -100.763882212     a.u. after   28 cycles

 Alpha  occ. eigenvalues --  -24.75768  -1.21703  -0.54892  -0.46090  -0.46090
 Alpha  occ. eigenvalues --   -0.32638
 Alpha virt. eigenvalues --   -0.09637   0.25854   0.34289   0.86936   0.91236
 Alpha virt. eigenvalues --    0.91236   1.01288   1.25064   1.25064   1.26283
 Alpha virt. eigenvalues --    1.40970   1.40970   1.43460   2.15471   2.36109

  Beta  occ. eigenvalues --  -24.72631  -1.12686  -0.42946  -0.42946  -0.32804
  Beta virt. eigenvalues --   -0.25693  -0.09362   0.25679   0.34692   0.92732
  Beta virt. eigenvalues --    0.92732   0.96239   1.05389   1.24873   1.24873
  Beta virt. eigenvalues --    1.26073   1.41373   1.41373   1.43845   2.15734

 Mulliken charges and spin densities:
               1          2
     1  H    0.003095  -0.953726
     2  H    0.001741   0.959235
     3  F   -0.004836   0.994491
 Sum of Mulliken charges =   0.00000   1.00000

 Dipole moment (field-independent basis, Debye):
    X=             -0.1130    Y=              0.0000    Z=              0.0000  Tot=              0.1130
 Quadrupole moment (field-independent basis, Debye-Ang):
   XX=             -6.7750   YY=             -7.6764   ZZ=             -7.6764
   XY=              0.0000   XZ=              0.0000   YZ=              0.0000

  Exact polarizability:      27.191      -0.000       2.016       0.000       0.000       2.016
 Approx polarizability:      20.524       0.000       1.930       0.000      -0.000       1.930

 ******    2 imaginary frequencies (negative Signs) ******

                      1                      2                      3
                      A                      A                      A
 Frequencies --   -764.9473              -101.3583               286.6246
 Red. masses --      1.0079                 1.1085                 1.0134
 Frc consts  --      0.3475                 0.0067                 0.0491
 IR Inten    --      2.0164                 2.2392                 0.0055

                      4
                      A
 Frequencies --    286.6246
 Red. masses --      1.0134
 Frc consts  --      0.0491
 IR Inten    --      0.0055

 - Thermochemistry -
 -------------------
 Temperature   298.150 Kelvin.  Pressure   1.00000 Atm.
 Atom     1 has atomic number  1 and mass   1.00783

 Molecular mass:    21.01405 amu.
 Principal axes and moments of inertia in atomic units:
                           1         2         3
     Eigenvalues --     0.00000 169.81735 169.81735
           X            1.00000  -0.00000   0.00000
           Y            0.00000   1.00000   0.00000
           Z            0.00000   0.00000   1.00000
 This molecule is a prolate symmetric top.
 Rotational symmetry number  1.
 Rotational temperature (Kelvin)      0.51004
 Rotational constant (GHZ):          10.627543
    2 imaginary frequencies ignored.
 Zero-point vibrational energy       3428.8 (Joules/Mol)
                                    0.81950 (Kcal/Mol)
 Warning -- explicit consideration of   2 degrees of freedom as
           vibrations may cause significant error
 Vibrational temperatures:    412.39   412.39
          (Kelvin)

 Zero-point correction=                           0.001306 (Hartree/Particle)
 Thermal correction to Energy=                    0.004541
 Thermal correction to Enthalpy=                  0.005485
 Thermal correction to Gibbs Free Energy=        -0.020210
 Sum of electronic and zero-point Energies=           -100.762576
 Sum of electronic and thermal Energies=              -100.759342
 Sum of electronic and thermal Enthalpies=            -100.758397
 Sum of electronic and thermal Free Energies=         -100.784093

                     E (Thermal)             CV                S
                      KCal/Mol        Cal/Mol-Kelvin    Cal/Mol-Kelvin
 Total                    2.849              8.365             54.080
 Electronic               0.000              0.000              1.377
 Translational            0.889              2.981             35.068
 Rotational               0.592              1.987             14.647
 Vibrational              1.368              3.397              2.988
 Vibration     1          0.684              1.699              1.494
 Vibration     2          0.684              1.699              1.494

 Normal termination of Gaussian 16 at Sat Aug 23 00:25:57 2025.
