 Gaussian 16, Revision C.01,
 Gaussian 16:  ES64L-G16RevC.01  3-Jul-2019

 -----------------------------------------
 # sp b3lyp/6-311g** Force nosymm scf=(qc)
 -----------------------------------------

 -------------------
 Title Card Required
 -------------------
 Symbolic Z-matrix:
 Charge =  0 Multiplicity = 2

                          Input orientation:
 ---------------------------------------------------------------------
 Center     Atomic      Atomic             Coordinates (Angstroms)
 Number     Number       Type             X           Y           Z
 ---------------------------------------------------------------------
      1          1           0        0.000000    0.000000    0.000000
      2          1           0       -2.800000    0.000000    0.000000
      3          9           0        2.250000    0.000000    0.000000
 ---------------------------------------------------------------------

 SCF Done:  E(UB3LYP) =  -100.776153319     a.u. after   15 cycles

 Alpha  occ. eigenvalues --  -24.70109  -1.16400  -0.49176  -0.41340  -0.41340
 Alpha  occ. eigenvalues --   -0.33777
 Alpha virt. eigenvalues --   -0.12396   0.23974   0.33015   0.88961   0.94387
 Alpha virt. eigenvalues --    0.94387   1.06455   1.23795   1.23795   1.25320
 Alpha virt. eigenvalues --    1.37581   1.37581   1.49655   2.14751   2.32092

  Beta  occ. eigenvalues --  -24.67439  -1.08852  -0.38690  -0.38690  -0.36461
  Beta virt. eigenvalues --   -0.22245  -0.08649   0.24771   0.35961   0.93031
  Beta virt. eigenvalues --    0.95547   0.95547   1.08675   1.21668   1.21668
  Beta virt. eigenvalues --    1.38984   1.43417   1.43417   1.44529   2.13199

 Mulliken charges and spin densities:
               1          2
     1  H    0.126030  -0.828348
     2  H    0.006995   0.986829
     3  F   -0.133025   0.841519
 Sum of Mulliken charges =  -0.00000   1.00000

 Dipole moment (field-independent basis, Debye):
    X=             -1.5983    Y=             -0.0000    Z=              0.0000  Tot=              1.5983
 Quadrupole moment (field-independent basis, Debye-Ang):
   XX=             -9.4323   YY=             -7.5565   ZZ=             -7.5565
   XY=             -0.0000   XZ=              0.0000   YZ=              0.0000

  Exact polarizability:      34.829      -0.000       2.032       0.000      -0.000       2.032
 Approx polarizability:      42.823      -0.000       1.925       0.000      -0.000       1.925

 ******    2 imaginary frequencies (negative Signs) ******

                      1                      2                      3
                      A                      A                      A
 Frequencies --   -863.9948              -276.6788               355.7268
 Red. masses --      1.0451                 1.0666                 1.0208
 Frc consts  --      0.4597                 0.0481                 0.0761
 IR Inten    --     90.9176                 6.1544                14.0669

                      4
                      A
 Frequencies --    355.7269
 Red. masses --      1.0208
 Frc consts  --      0.0761
 IR Inten    --     14.0669

 - Thermochemistry -
 -------------------
 Temperature   298.150 Kelvin.  Pressure   1.00000 Atm.
 Atom     1 has atomic number  1 and mass   1.00783

 Molecular mass:    21.01405 amu.
 Principal axes and moments of inertia in atomic units:
                           1         2         3
     Eigenvalues --     0.00000 100.80547 100.80547
           X            1.00000  -0.00000   0.00000
           Y            0.00000   1.00000   0.00000
           Z            0.00000   0.00000   1.00000
 This molecule is a prolate symmetric top.
 Rotational symmetry number  1.
 Rotational temperature (Kelvin)      0.85922
 Rotational constant (GHZ):          17.903206
    2 imaginary frequencies ignored.
 Zero-point vibrational energy       4255.4 (Joules/Mol)
                                    1.01707 (Kcal/Mol)
 Warning -- explicit consideration of   2 degrees of freedom as
           vibrations may cause significant error
 Vibrational temperatures:    511.81   511.81
          (Kelvin)

 Zero-point correction=                           0.001621 (Hartree/Particle)
 Thermal correction to Energy=                    0.004691
 Thermal correction to Enthalpy=                  0.005635
 Thermal correction to Gibbs Free Energy=        -0.019232
 Sum of electronic and zero-point Energies=           -100.774533
 Sum of electronic and thermal Energies=              -100.771462
 Sum of electronic and thermal Enthalpies=            -100.770518
 Sum of electronic and thermal Free Energies=         -100.795385

                     E (Thermal)             CV                S
                      KCal/Mol        Cal/Mol-Kelvin    Cal/Mol-Kelvin
 Total                    2.944              8.095             52.338
 Electronic               0.000              0.000              1.377
 Translational            0.889              2.981             35.068
 Rotational               0.592              1.987             13.611
 Vibrational              1.463              3.127              2.281
 Vibration     1          0.731              1.563              1.141
 Vibration     2          0.731              1.563              1.141

 Normal termination of Gaussian 16 at Fri Aug 22 17:17:08 2025.
