 Gaussian 16, Revision C.01,
 Gaussian 16:  ES64L-G16RevC.01  3-Jul-2019

 -----------------------------------------
 # sp b3lyp/6-311g** Force nosymm scf=(qc)
 -----------------------------------------

 -------------------
 Title Card Required
 -------------------
 Symbolic Z-matrix:
 Charge =  0 Multiplicity = 2

                          Input orientation:
 ---------------------------------------------------------------------
 Center     Atomic      Atomic             Coordinates (Angstroms)
 Number     Number       Type             X           Y           Z
 ---------------------------------------------------------------------
      1          1           0        0.000000    0.000000    0.000000
      2          1           0       -2.950000    0.000000    0.000000
      3          9           0        0.600000    0.000000    0.000000
 ---------------------------------------------------------------------

 SCF Done:  E(UB3LYP) =  -100.687999688     a.u. after    6 cycles

 Alpha  occ. eigenvalues --  -24.62720  -1.34712  -0.61020  -0.42966  -0.42966
 Alpha  occ. eigenvalues --   -0.33775
 Alpha virt. eigenvalues --    0.07813   0.25580   0.58248   0.92139   0.92139
 Alpha virt. eigenvalues --    0.93155   1.22123   1.23753   1.23753   1.38349
 Alpha virt. eigenvalues --    1.50280   1.50280   1.95667   2.14996   3.36510

  Beta  occ. eigenvalues --  -24.62718  -1.34705  -0.61016  -0.42965  -0.42965
  Beta virt. eigenvalues --   -0.06131   0.08821   0.39278   0.58331   0.92135
  Beta virt. eigenvalues --    0.92135   0.93171   1.33608   1.50282   1.50282
  Beta virt. eigenvalues --    1.50597   1.50597   1.52648   1.95453   2.44775

 Mulliken charges and spin densities:
               1          2
     1  H    0.236237   0.001345
     2  H    0.002043   0.997326
     3  F   -0.238280   0.001330
 Sum of Mulliken charges =   0.00000   1.00000

 Dipole moment (field-independent basis, Debye):
    X=             -1.4594    Y=              0.0000    Z=              0.0000  Tot=              1.4594
 Quadrupole moment (field-independent basis, Debye-Ang):
   XX=             -6.8926   YY=             -6.5510   ZZ=             -6.5510
   XY=              0.0000   XZ=              0.0000   YZ=             -0.0000

  Exact polarizability:       4.061      -0.000       2.448      -0.000       0.000       2.448
 Approx polarizability:       4.206      -0.000       2.429      -0.000      -0.000       2.429

 ******    2 imaginary frequencies (negative Signs) ******

                      1                      2                      3
                      A                      A                      A
 Frequencies --  -5864.9389             -5864.9389                21.5901
 Red. masses --      1.0417                 1.0417                 1.0532
 Frc consts  --     21.1125                21.1125                 0.0003
 IR Inten    --    234.4599               234.4599                 0.0918

                      4
                      A
 Frequencies --  13070.7337
 Red. masses --      1.0583
 Frc consts  --    106.5280
 IR Inten    --    102.1646

 - Thermochemistry -
 -------------------
 Temperature   298.150 Kelvin.  Pressure   1.00000 Atm.
 Atom     1 has atomic number  1 and mass   1.00783

 Molecular mass:    21.01405 amu.
 Principal axes and moments of inertia in atomic units:
                           1         2         3
     Eigenvalues --     0.00000  43.67943  43.67943
           X            1.00000  -0.00000   0.00000
           Y            0.00000   1.00000   0.00000
           Z            0.00000   0.00000   1.00000
 This molecule is a prolate symmetric top.
 Rotational symmetry number  1.
 Rotational temperature (Kelvin)      1.98295
 Rotational constant (GHZ):          41.317879
    2 imaginary frequencies ignored.
 Zero-point vibrational energy      78309.5 (Joules/Mol)
                                   18.71642 (Kcal/Mol)
 Warning -- explicit consideration of   1 degrees of freedom as
           vibrations may cause significant error
 Vibrational temperatures:     31.06 18805.87
          (Kelvin)

 Zero-point correction=                           0.029827 (Hartree/Particle)
 Thermal correction to Energy=                    0.033083
 Thermal correction to Enthalpy=                  0.034027
 Thermal correction to Gibbs Free Energy=         0.007953
 Sum of electronic and zero-point Energies=           -100.658173
 Sum of electronic and thermal Energies=              -100.654917
 Sum of electronic and thermal Enthalpies=            -100.653973
 Sum of electronic and thermal Free Energies=         -100.680046

                     E (Thermal)             CV                S
                      KCal/Mol        Cal/Mol-Kelvin    Cal/Mol-Kelvin
 Total                   20.760              6.953             54.877
 Electronic               0.000              0.000              1.377
 Translational            0.889              2.981             35.068
 Rotational               0.592              1.987             11.949
 Vibrational             19.279              1.985              6.482
 Vibration     1          0.593              1.985              6.482

 Normal termination of Gaussian 16 at Fri Aug 22 15:42:19 2025.
