 Gaussian 16, Revision C.01,
 Gaussian 16:  ES64L-G16RevC.01  3-Jul-2019

 -----------------------------------------
 # sp b3lyp/6-311g** Force nosymm scf=(qc)
 -----------------------------------------

 -------------------
 Title Card Required
 -------------------
 Symbolic Z-matrix:
 Charge =  0 Multiplicity = 2

                          Input orientation:
 ---------------------------------------------------------------------
 Center     Atomic      Atomic             Coordinates (Angstroms)
 Number     Number       Type             X           Y           Z
 ---------------------------------------------------------------------
      1          1           0        0.000000    0.000000    0.000000
      2          1           0       -3.000000    0.000000    0.000000
      3          9           0        4.000000    0.000000    0.000000
 ---------------------------------------------------------------------

 SCF Done:  E(UB3LYP) =  -100.759503665     a.u. after   50 cycles

 Alpha  occ. eigenvalues --  -24.75889  -1.21816  -0.55014  -0.46191  -0.46191
 Alpha  occ. eigenvalues --   -0.32338
 Alpha virt. eigenvalues --   -0.07665   0.25069   0.36558   0.86559   0.91163
 Alpha virt. eigenvalues --    0.91163   1.01075   1.25197   1.25197   1.25898
 Alpha virt. eigenvalues --    1.44417   1.44444   1.44444   2.15817   2.39575

  Beta  occ. eigenvalues --  -24.72743  -1.12770  -0.43037  -0.43037  -0.32507
  Beta virt. eigenvalues --   -0.25739  -0.07462   0.24922   0.36814   0.92662
  Beta virt. eigenvalues --    0.92662   0.95942   1.05205   1.25015   1.25015
  Beta virt. eigenvalues --    1.25700   1.44717   1.44743   1.44743   2.15828

 Mulliken charges and spin densities:
               1          2
     1  H    0.002084  -0.989710
     2  H    0.000247   0.992328
     3  F   -0.002331   0.997382
 Sum of Mulliken charges =   0.00000   1.00000

 Dipole moment (field-independent basis, Debye):
    X=             -0.0519    Y=             -0.0000    Z=              0.0000  Tot=              0.0519
 Quadrupole moment (field-independent basis, Debye-Ang):
   XX=             -6.8343   YY=             -7.6365   ZZ=             -7.6365
   XY=             -0.0000   XZ=              0.0000   YZ=             -0.0000

  Exact polarizability:      13.157      -0.000       2.030       0.000      -0.000       2.030
 Approx polarizability:       9.959      -0.000       1.934       0.000       0.000       1.934

 ******    2 imaginary frequencies (negative Signs) ******

                      1                      2                      3
                      A                      A                      A
 Frequencies --   -335.5073               -74.2069               118.8404
 Red. masses --      1.0081                 1.1082                 1.0148
 Frc consts  --      0.0669                 0.0036                 0.0084
 IR Inten    --      0.5752                 0.5458                 0.0037

                      4
                      A
 Frequencies --    118.8404
 Red. masses --      1.0148
 Frc consts  --      0.0084
 IR Inten    --      0.0037

 - Thermochemistry -
 -------------------
 Temperature   298.150 Kelvin.  Pressure   1.00000 Atm.
 Atom     1 has atomic number  1 and mass   1.00783

 Molecular mass:    21.01405 amu.
 Principal axes and moments of inertia in atomic units:
                           1         2         3
     Eigenvalues --     0.00000 213.05012 213.05012
           X            1.00000  -0.00000   0.00000
           Y            0.00000   1.00000   0.00000
           Z            0.00000   0.00000   1.00000
 This molecule is a prolate symmetric top.
 Rotational symmetry number  1.
 Rotational temperature (Kelvin)      0.40654
 Rotational constant (GHZ):           8.470970
    2 imaginary frequencies ignored.
 Zero-point vibrational energy       1421.6 (Joules/Mol)
                                    0.33978 (Kcal/Mol)
 Warning -- explicit consideration of   2 degrees of freedom as
           vibrations may cause significant error
 Vibrational temperatures:    170.98   170.98
          (Kelvin)

 Zero-point correction=                           0.000541 (Hartree/Particle)
 Thermal correction to Energy=                    0.004300
 Thermal correction to Enthalpy=                  0.005244
 Thermal correction to Gibbs Free Energy=        -0.022210
 Sum of electronic and zero-point Energies=           -100.758962
 Sum of electronic and thermal Energies=              -100.755203
 Sum of electronic and thermal Enthalpies=            -100.754259
 Sum of electronic and thermal Free Energies=         -100.781713

                     E (Thermal)             CV                S
                      KCal/Mol        Cal/Mol-Kelvin    Cal/Mol-Kelvin
 Total                    2.698              8.835             57.782
 Electronic               0.000              0.000              1.377
 Translational            0.889              2.981             35.068
 Rotational               0.592              1.987             15.098
 Vibrational              1.217              3.867              6.238
 Vibration     1          0.609              1.934              3.119
 Vibration     2          0.609              1.934              3.119

 Normal termination of Gaussian 16 at Sat Aug 23 01:56:50 2025.
