 Gaussian 16, Revision C.01,
 Gaussian 16:  ES64L-G16RevC.01  3-Jul-2019

 -----------------------------------------
 # sp b3lyp/6-311g** Force nosymm scf=(qc)
 -----------------------------------------

 -------------------
 Title Card Required
 -------------------
 Symbolic Z-matrix:
 Charge =  0 Multiplicity = 2

                          Input orientation:
 ---------------------------------------------------------------------
 Center     Atomic      Atomic             Coordinates (Angstroms)
 Number     Number       Type             X           Y           Z
 ---------------------------------------------------------------------
      1          1           0        0.000000    0.000000    0.000000
      2          1           0       -2.500000    0.000000    0.000000
      3          9           0        3.450000    0.000000    0.000000
 ---------------------------------------------------------------------

 SCF Done:  E(UB3LYP) =  -100.763063976     a.u. after   31 cycles

 Alpha  occ. eigenvalues --  -24.75365  -1.21329  -0.54487  -0.45749  -0.45749
 Alpha  occ. eigenvalues --   -0.32704
 Alpha virt. eigenvalues --   -0.09603   0.25656   0.34222   0.87774   0.91491
 Alpha virt. eigenvalues --    0.91491   1.01917   1.24948   1.24948   1.26537
 Alpha virt. eigenvalues --    1.41203   1.41203   1.42823   2.15718   2.36812

  Beta  occ. eigenvalues --  -24.72254  -1.12390  -0.42631  -0.42631  -0.33033
  Beta virt. eigenvalues --   -0.25487  -0.09069   0.25475   0.34998   0.92980
  Beta virt. eigenvalues --    0.92980   0.96912   1.05944   1.24553   1.24553
  Beta virt. eigenvalues --    1.26057   1.42036   1.42036   1.43655   2.16297

 Mulliken charges and spin densities:
               1          2
     1  H    0.009667  -0.956333
     2  H    0.002529   0.969994
     3  F   -0.012196   0.986339
 Sum of Mulliken charges =   0.00000   1.00000

 Dipole moment (field-independent basis, Debye):
    X=             -0.2461    Y=             -0.0000    Z=              0.0000  Tot=              0.2461
 Quadrupole moment (field-independent basis, Debye-Ang):
   XX=             -7.1743   YY=             -7.6645   ZZ=             -7.6645
   XY=             -0.0000   XZ=             -0.0000   YZ=              0.0000

  Exact polarizability:      34.690      -0.000       2.022      -0.000      -0.000       2.022
 Approx polarizability:      26.419      -0.000       1.928      -0.000       0.000       1.928

 ******    2 imaginary frequencies (negative Signs) ******

                      1                      2                      3
                      A                      A                      A
 Frequencies --   -671.9653              -146.3080               246.6674
 Red. masses --      1.0081                 1.1082                 1.0145
 Frc consts  --      0.2682                 0.0140                 0.0364
 IR Inten    --      7.1629                 7.2303                 0.0637

                      4
                      A
 Frequencies --    246.6674
 Red. masses --      1.0145
 Frc consts  --      0.0364
 IR Inten    --      0.0637

 - Thermochemistry -
 -------------------
 Temperature   298.150 Kelvin.  Pressure   1.00000 Atm.
 Atom     1 has atomic number  1 and mass   1.00783

 Molecular mass:    21.01405 amu.
 Principal axes and moments of inertia in atomic units:
                           1         2         3
     Eigenvalues --     0.00000 154.99955 154.99955
           X            1.00000  -0.00000   0.00000
           Y            0.00000   1.00000   0.00000
           Z            0.00000   0.00000   1.00000
 This molecule is a prolate symmetric top.
 Rotational symmetry number  1.
 Rotational temperature (Kelvin)      0.55880
 Rotational constant (GHZ):          11.643525
    2 imaginary frequencies ignored.
 Zero-point vibrational energy       2950.8 (Joules/Mol)
                                    0.70526 (Kcal/Mol)
 Warning -- explicit consideration of   2 degrees of freedom as
           vibrations may cause significant error
 Vibrational temperatures:    354.90   354.90
          (Kelvin)

 Zero-point correction=                           0.001124 (Hartree/Particle)
 Thermal correction to Energy=                    0.004467
 Thermal correction to Enthalpy=                  0.005411
 Thermal correction to Gibbs Free Energy=        -0.020446
 Sum of electronic and zero-point Energies=           -100.761940
 Sum of electronic and thermal Energies=              -100.758597
 Sum of electronic and thermal Enthalpies=            -100.757653
 Sum of electronic and thermal Free Energies=         -100.783510

                     E (Thermal)             CV                S
                      KCal/Mol        Cal/Mol-Kelvin    Cal/Mol-Kelvin
 Total                    2.803              8.505             54.420
 Electronic               0.000              0.000              1.377
 Translational            0.889              2.981             35.068
 Rotational               0.592              1.987             14.466
 Vibrational              1.322              3.537              3.509
 Vibration     1          0.661              1.768              1.754
 Vibration     2          0.661              1.768              1.754

 Normal termination of Gaussian 16 at Fri Aug 22 21:41:51 2025.
