 Gaussian 16, Revision C.01,
 Gaussian 16:  ES64L-G16RevC.01  3-Jul-2019

 -----------------------------------------
 # sp b3lyp/6-311g** Force nosymm scf=(qc)
 -----------------------------------------

 -------------------
 Title Card Required
 -------------------
 Symbolic Z-matrix:
 Charge =  0 Multiplicity = 2

                          Input orientation:
 ---------------------------------------------------------------------
 Center     Atomic      Atomic             Coordinates (Angstroms)
 Number     Number       Type             X           Y           Z
 ---------------------------------------------------------------------
      1          1           0        0.000000    0.000000    0.000000
      2          1           0       -1.900000    0.000000    0.000000
      3          9           0        1.500000    0.000000    0.000000
 ---------------------------------------------------------------------

 SCF Done:  E(UB3LYP) =  -100.862311465     a.u. after   11 cycles

 Alpha  occ. eigenvalues --  -24.63899  -1.10075  -0.44580  -0.37501  -0.36177
 Alpha  occ. eigenvalues --   -0.36177
 Alpha virt. eigenvalues --   -0.10733   0.22781   0.27713   0.94233   0.94233
 Alpha virt. eigenvalues --    0.99570   1.04769   1.19404   1.19404   1.34250
 Alpha virt. eigenvalues --    1.34250   1.36579   1.73207   2.10738   2.29129

  Beta  occ. eigenvalues --  -24.63070  -1.07877  -0.41663  -0.35388  -0.35388
  Beta virt. eigenvalues --   -0.18934  -0.06832   0.25884   0.31563   0.94062
  Beta virt. eigenvalues --    0.94062   1.03297   1.07080   1.29675   1.29675
  Beta virt. eigenvalues --    1.37204   1.37204   1.47083   1.73902   2.16351

 Mulliken charges and spin densities:
               1          2
     1  H    0.294828  -0.173454
     2  H    0.052524   0.914568
     3  F   -0.347352   0.258886
 Sum of Mulliken charges =   0.00000   1.00000

 Dipole moment (field-independent basis, Debye):
    X=             -3.0468    Y=              0.0000    Z=              0.0000  Tot=              3.0468
 Quadrupole moment (field-independent basis, Debye-Ang):
   XX=             -8.7154   YY=             -7.2905   ZZ=             -7.2905
   XY=              0.0000   XZ=              0.0000   YZ=             -0.0000

  Exact polarizability:      30.162       0.000       2.238       0.000      -0.000       2.238
 Approx polarizability:      42.075       0.000       2.170       0.000      -0.000       2.170

 ******    2 imaginary frequencies (negative Signs) ******

                      1                      2                      3
                      A                      A                      A
 Frequencies --  -2014.9946              -428.1930               985.0419
 Red. masses --      1.0333                 1.0793                 1.0210
 Frc consts  --      2.4718                 0.1166                 0.5837
 IR Inten    --      5.0727                 0.0825                60.7356

                      4
                      A
 Frequencies --    985.0419
 Red. masses --      1.0210
 Frc consts  --      0.5837
 IR Inten    --     60.7356

 - Thermochemistry -
 -------------------
 Temperature   298.150 Kelvin.  Pressure   1.00000 Atm.
 Atom     1 has atomic number  1 and mass   1.00783

 Molecular mass:    21.01405 amu.
 Principal axes and moments of inertia in atomic units:
                           1         2         3
     Eigenvalues --     0.00000  45.55802  45.55802
           X            1.00000  -0.00000   0.00000
           Y            0.00000   1.00000   0.00000
           Z            0.00000   0.00000   1.00000
 This molecule is a prolate symmetric top.
 Rotational symmetry number  1.
 Rotational temperature (Kelvin)      1.90118
 Rotational constant (GHZ):          39.614131
    2 imaginary frequencies ignored.
 Zero-point vibrational energy      11783.7 (Joules/Mol)
                                    2.81638 (Kcal/Mol)
 Vibrational temperatures:   1417.26  1417.26
          (Kelvin)

 Zero-point correction=                           0.004488 (Hartree/Particle)
 Thermal correction to Energy=                    0.006927
 Thermal correction to Enthalpy=                  0.007871
 Thermal correction to Gibbs Free Energy=        -0.015257
 Sum of electronic and zero-point Energies=           -100.857823
 Sum of electronic and thermal Energies=              -100.855385
 Sum of electronic and thermal Enthalpies=            -100.854441
 Sum of electronic and thermal Free Energies=         -100.877569

                     E (Thermal)             CV                S
                      KCal/Mol        Cal/Mol-Kelvin    Cal/Mol-Kelvin
 Total                    4.347              5.756             48.677
 Electronic               0.000              0.000              1.377
 Translational            0.889              2.981             35.068
 Rotational               0.592              1.987             12.033
 Vibrational              2.865              0.788              0.199

 Normal termination of Gaussian 16 at Fri Aug 22 16:25:25 2025.
