 Gaussian 16, Revision C.01,
 Gaussian 16:  ES64L-G16RevC.01  3-Jul-2019

 -----------------------------------------
 # sp b3lyp/6-311g** Force nosymm scf=(qc)
 -----------------------------------------

 -------------------
 Title Card Required
 -------------------
 Symbolic Z-matrix:
 Charge =  0 Multiplicity = 2

                          Input orientation:
 ---------------------------------------------------------------------
 Center     Atomic      Atomic             Coordinates (Angstroms)
 Number     Number       Type             X           Y           Z
 ---------------------------------------------------------------------
      1          1           0        0.000000    0.000000    0.000000
      2          1           0       -0.550000    0.000000    0.000000
      3          9           0        2.350000    0.000000    0.000000
 ---------------------------------------------------------------------

 SCF Done:  E(UB3LYP) =  -100.894197204     a.u. after   59 cycles

 Alpha  occ. eigenvalues --  -24.76880  -1.22674  -0.55841  -0.48745  -0.46989
 Alpha  occ. eigenvalues --   -0.45777
 Alpha virt. eigenvalues --    0.10888   0.19802   0.54537   0.85555   0.90402
 Alpha virt. eigenvalues --    0.94004   1.11578   1.11620   1.14633   1.62213
 Alpha virt. eigenvalues --    1.82951   1.96711   1.96746   2.40484   3.64427

  Beta  occ. eigenvalues --  -24.73716  -1.13581  -0.47991  -0.43816  -0.43354
  Beta virt. eigenvalues --   -0.26454   0.11012   0.19904   0.54629   0.91891
  Beta virt. eigenvalues --    0.94958   0.95841   1.11618   1.11624   1.18197
  Beta virt. eigenvalues --    1.62235   1.82963   1.96715   1.96745   2.40517

 Mulliken charges and spin densities:
               1          2
     1  H   -0.012171  -0.002754
     2  H   -0.005160   0.000047
     3  F    0.017330   1.002707
 Sum of Mulliken charges =   0.00000   1.00000

 Dipole moment (field-independent basis, Debye):
    X=              0.1593    Y=             -0.0000    Z=             -0.0000  Tot=              0.1593
 Quadrupole moment (field-independent basis, Debye-Ang):
   XX=             -5.9775   YY=             -6.6606   ZZ=             -5.8255
   XY=              0.0000   XZ=              0.0000   YZ=              0.1092

  Exact polarizability:       6.503       0.000       1.903       0.000       0.056       2.331
 Approx polarizability:       6.841       0.000       1.990       0.000       0.069       2.517

 ******    2 imaginary frequencies (negative Signs) ******

                      1                      2                      3
                      A                      A                      A
 Frequencies --  -4187.8939             -3676.8674               294.7592
 Red. masses --      1.0089                 1.0089                 1.1085
 Frc consts  --     10.4256                 8.0365                 0.0567
 IR Inten    --      3.9733                 0.1654                 0.5170

                      4
                      A
 Frequencies --   8344.2705
 Red. masses --      1.0078
 Frc consts  --     41.3440
 IR Inten    --      4.2110

 - Thermochemistry -
 -------------------
 Temperature   298.150 Kelvin.  Pressure   1.00000 Atm.
 Atom     1 has atomic number  1 and mass   1.00783

 Molecular mass:    21.01405 amu.
 Principal axes and moments of inertia in atomic units:
                           1         2         3
     Eigenvalues --     0.00000  45.38571  45.38571
           X            1.00000  -0.00000   0.00000
           Y            0.00000   1.00000   0.00000
           Z            0.00000   0.00000   1.00000
 This molecule is a prolate symmetric top.
 Rotational symmetry number  1.
 Rotational temperature (Kelvin)      1.90840
 Rotational constant (GHZ):          39.764526
    2 imaginary frequencies ignored.
 Zero-point vibrational energy      51672.9 (Joules/Mol)
                                   12.35011 (Kcal/Mol)
 Warning -- explicit consideration of   1 degrees of freedom as
           vibrations may cause significant error
 Vibrational temperatures:    424.09 12005.54
          (Kelvin)

 Zero-point correction=                           0.019681 (Hartree/Particle)
 Thermal correction to Energy=                    0.022468
 Thermal correction to Enthalpy=                  0.023413
 Thermal correction to Gibbs Free Energy=        -0.000305
 Sum of electronic and zero-point Energies=           -100.874516
 Sum of electronic and thermal Energies=              -100.871729
 Sum of electronic and thermal Enthalpies=            -100.870785
 Sum of electronic and thermal Free Energies=         -100.894502

                     E (Thermal)             CV                S
                      KCal/Mol        Cal/Mol-Kelvin    Cal/Mol-Kelvin
 Total                   14.099              6.652             49.917
 Electronic               0.000              0.000              1.377
 Translational            0.889              2.981             35.068
 Rotational               0.592              1.987             12.025
 Vibrational             12.618              1.684              1.446
 Vibration     1          0.689              1.684              1.446

 Normal termination of Gaussian 16 at Fri Aug 22 17:24:06 2025.
