 Gaussian 16, Revision C.01,
 Gaussian 16:  ES64L-G16RevC.01  3-Jul-2019

 -----------------------------------------
 # sp b3lyp/6-311g** Force nosymm scf=(qc)
 -----------------------------------------

 -------------------
 Title Card Required
 -------------------
 Symbolic Z-matrix:
 Charge =  0 Multiplicity = 2

                          Input orientation:
 ---------------------------------------------------------------------
 Center     Atomic      Atomic             Coordinates (Angstroms)
 Number     Number       Type             X           Y           Z
 ---------------------------------------------------------------------
      1          1           0        0.000000    0.000000    0.000000
      2          1           0       -3.050000    0.000000    0.000000
      3          9           0        2.700000    0.000000    0.000000
 ---------------------------------------------------------------------

 SCF Done:  E(UB3LYP) =  -100.764731881     a.u. after   19 cycles

 Alpha  occ. eigenvalues --  -24.72826  -1.18973  -0.51938  -0.43619  -0.43619
 Alpha  occ. eigenvalues --   -0.32947
 Alpha virt. eigenvalues --   -0.09938   0.24284   0.34891   0.90078   0.93017
 Alpha virt. eigenvalues --    0.93017   1.05700   1.24589   1.24589   1.25358
 Alpha virt. eigenvalues --    1.41459   1.41459   1.42892   2.15202   2.37032

  Beta  occ. eigenvalues --  -24.69892  -1.10594  -0.40688  -0.40688  -0.34620
  Beta virt. eigenvalues --   -0.24034  -0.07633   0.24656   0.36847   0.94440
  Beta virt. eigenvalues --    0.94440   0.97991   1.08925   1.22744   1.22744
  Beta virt. eigenvalues --    1.25798   1.44698   1.44769   1.44769   2.14813

 Mulliken charges and spin densities:
               1          2
     1  H    0.062169  -0.921857
     2  H    0.002188   0.993522
     3  F   -0.064357   0.928335
 Sum of Mulliken charges =  -0.00000   1.00000

 Dipole moment (field-independent basis, Debye):
    X=             -0.9210    Y=              0.0000    Z=             -0.0000  Tot=              0.9210
 Quadrupole moment (field-independent basis, Debye-Ang):
   XX=             -8.8060   YY=             -7.6013   ZZ=             -7.6013
   XY=             -0.0000   XZ=              0.0000   YZ=             -0.0000

  Exact polarizability:      34.913      -0.000       2.020       0.000       0.000       2.020
 Approx polarizability:      39.223      -0.000       1.920       0.000      -0.000       1.920

 ******    2 imaginary frequencies (negative Signs) ******

                      1                      2                      3
                      A                      A                      A
 Frequencies --   -542.5526              -196.4405               205.3523
 Red. masses --      1.0401                 1.0719                 1.0195
 Frc consts  --      0.1804                 0.0244                 0.0253
 IR Inten    --     59.6747                 3.2674                 3.5279

                      4
                      A
 Frequencies --    205.3523
 Red. masses --      1.0195
 Frc consts  --      0.0253
 IR Inten    --      3.5279

 - Thermochemistry -
 -------------------
 Temperature   298.150 Kelvin.  Pressure   1.00000 Atm.
 Atom     1 has atomic number  1 and mass   1.00783

 Molecular mass:    21.01405 amu.
 Principal axes and moments of inertia in atomic units:
                           1         2         3
     Eigenvalues --     0.00000 132.90443 132.90443
           X            1.00000  -0.00000   0.00000
           Y            0.00000   1.00000   0.00000
           Z            0.00000   0.00000   1.00000
 This molecule is a prolate symmetric top.
 Rotational symmetry number  1.
 Rotational temperature (Kelvin)      0.65170
 Rotational constant (GHZ):          13.579241
    2 imaginary frequencies ignored.
 Zero-point vibrational energy       2456.6 (Joules/Mol)
                                    0.58713 (Kcal/Mol)
 Warning -- explicit consideration of   2 degrees of freedom as
           vibrations may cause significant error
 Vibrational temperatures:    295.46   295.46
          (Kelvin)

 Zero-point correction=                           0.000936 (Hartree/Particle)
 Thermal correction to Energy=                    0.004401
 Thermal correction to Enthalpy=                  0.005345
 Thermal correction to Gibbs Free Energy=        -0.020680
 Sum of electronic and zero-point Energies=           -100.763796
 Sum of electronic and thermal Energies=              -100.760331
 Sum of electronic and thermal Enthalpies=            -100.759387
 Sum of electronic and thermal Free Energies=         -100.785412

                     E (Thermal)             CV                S
                      KCal/Mol        Cal/Mol-Kelvin    Cal/Mol-Kelvin
 Total                    2.762              8.633             54.775
 Electronic               0.000              0.000              1.377
 Translational            0.889              2.981             35.068
 Rotational               0.592              1.987             14.160
 Vibrational              1.280              3.665              4.169
 Vibration     1          0.640              1.832              2.085
 Vibration     2          0.640              1.832              2.085

 Normal termination of Gaussian 16 at Fri Aug 22 18:26:28 2025.
