 Gaussian 16, Revision C.01,
 Gaussian 16:  ES64L-G16RevC.01  3-Jul-2019

 -----------------------------------------
 # sp b3lyp/6-311g** Force nosymm scf=(qc)
 -----------------------------------------

 -------------------
 Title Card Required
 -------------------
 Symbolic Z-matrix:
 Charge =  0 Multiplicity = 2

                          Input orientation:
 ---------------------------------------------------------------------
 Center     Atomic      Atomic             Coordinates (Angstroms)
 Number     Number       Type             X           Y           Z
 ---------------------------------------------------------------------
      1          1           0        0.000000    0.000000    0.000000
      2          1           0       -2.850000    0.000000    0.000000
      3          9           0        1.000000    0.000000    0.000000
 ---------------------------------------------------------------------

 SCF Done:  E(UB3LYP) =  -100.966332090     a.u. after    6 cycles

 Alpha  occ. eigenvalues --  -24.64133  -1.16015  -0.51628  -0.38758  -0.38758
 Alpha  occ. eigenvalues --   -0.34415
 Alpha virt. eigenvalues --    0.01038   0.24982   0.34184   0.94082   0.94082
 Alpha virt. eigenvalues --    0.98600   1.22184   1.23122   1.23122   1.32938
 Alpha virt. eigenvalues --    1.35976   1.35976   1.90688   2.14392   2.34280

  Beta  occ. eigenvalues --  -24.64124  -1.15991  -0.51594  -0.38750  -0.38750
  Beta virt. eigenvalues --   -0.08227   0.02444   0.34166   0.38061   0.94083
  Beta virt. eigenvalues --    0.94083   0.98607   1.30240   1.35965   1.35965
  Beta virt. eigenvalues --    1.46887   1.46887   1.49153   1.90892   2.34202

 Mulliken charges and spin densities:
               1          2
     1  H    0.317677   0.001683
     2  H    0.003655   0.995212
     3  F   -0.321332   0.003105
 Sum of Mulliken charges =   0.00000   1.00000

 Dipole moment (field-independent basis, Debye):
    X=             -2.0762    Y=              0.0000    Z=              0.0000  Tot=              2.0762
 Quadrupole moment (field-independent basis, Debye-Ang):
   XX=             -8.0869   YY=             -6.9603   ZZ=             -6.9603
   XY=              0.0000   XZ=              0.0000   YZ=             -0.0000

  Exact polarizability:       7.859       0.000       2.412      -0.000       0.000       2.412
 Approx polarizability:       9.221      -0.000       2.387       0.000       0.000       2.387

 ******    1 imaginary frequencies (negative Signs) ******

                      1                      2                      3
                      A                      A                      A
 Frequencies --    -81.3072               973.5500               973.5500
 Red. masses --      1.0531                 1.0338                 1.0338
 Frc consts  --      0.0041                 0.5773                 0.5773
 IR Inten    --      0.4004               161.6585               161.6585

                      4
                      A
 Frequencies --   3021.7834
 Red. masses --      1.0585
 Frc consts  --      5.6946
 IR Inten    --    105.4699

 - Thermochemistry -
 -------------------
 Temperature   298.150 Kelvin.  Pressure   1.00000 Atm.
 Atom     1 has atomic number  1 and mass   1.00783

 Molecular mass:    21.01405 amu.
 Principal axes and moments of inertia in atomic units:
                           1         2         3
     Eigenvalues --     0.00000  52.88517  52.88517
           X            1.00000  -0.00000   0.00000
           Y            0.00000   1.00000   0.00000
           Z            0.00000   0.00000   1.00000
 This molecule is a prolate symmetric top.
 Rotational symmetry number  1.
 Rotational temperature (Kelvin)      1.63777
 Rotational constant (GHZ):          34.125660
    1 imaginary frequencies ignored.
 Zero-point vibrational energy      29720.5 (Joules/Mol)
                                    7.10338 (Kcal/Mol)
 Vibrational temperatures:   1400.72  1400.72  4347.67
          (Kelvin)

 Zero-point correction=                           0.011320 (Hartree/Particle)
 Thermal correction to Energy=                    0.013762
 Thermal correction to Enthalpy=                  0.014706
 Thermal correction to Gibbs Free Energy=        -0.008567
 Sum of electronic and zero-point Energies=           -100.955012
 Sum of electronic and thermal Energies=              -100.952570
 Sum of electronic and thermal Enthalpies=            -100.951626
 Sum of electronic and thermal Free Energies=         -100.974899

                     E (Thermal)             CV                S
                      KCal/Mol        Cal/Mol-Kelvin    Cal/Mol-Kelvin
 Total                    8.636              5.782             48.983
 Electronic               0.000              0.000              1.377
 Translational            0.889              2.981             35.068
 Rotational               0.592              1.987             12.329
 Vibrational              7.155              0.814              0.208

 Normal termination of Gaussian 16 at Fri Aug 22 16:01:07 2025.
