 Gaussian 16, Revision C.01,
 Gaussian 16:  ES64L-G16RevC.01  3-Jul-2019

 -----------------------------------------
 # sp b3lyp/6-311g** Force nosymm scf=(qc)
 -----------------------------------------

 -------------------
 Title Card Required
 -------------------
 Symbolic Z-matrix:
 Charge =  0 Multiplicity = 2

                          Input orientation:
 ---------------------------------------------------------------------
 Center     Atomic      Atomic             Coordinates (Angstroms)
 Number     Number       Type             X           Y           Z
 ---------------------------------------------------------------------
      1          1           0        0.000000    0.000000    0.000000
      2          1           0       -2.950000    0.000000    0.000000
      3          9           0        4.000000    0.000000    0.000000
 ---------------------------------------------------------------------

 SCF Done:  E(UB3LYP) =  -100.759661433     a.u. after   84 cycles

 Alpha  occ. eigenvalues --  -24.75890  -1.21817  -0.55015  -0.46193  -0.46193
 Alpha  occ. eigenvalues --   -0.32350
 Alpha virt. eigenvalues --   -0.07794   0.25151   0.36395   0.86558   0.91162
 Alpha virt. eigenvalues --    0.91162   1.01074   1.25191   1.25191   1.25985
 Alpha virt. eigenvalues --    1.44245   1.44245   1.44285   2.15880   2.39381

  Beta  occ. eigenvalues --  -24.72744  -1.12771  -0.43039  -0.43039  -0.32517
  Beta virt. eigenvalues --   -0.25740  -0.07590   0.25004   0.36649   0.92661
  Beta virt. eigenvalues --    0.92661   0.95942   1.05204   1.25012   1.25012
  Beta virt. eigenvalues --    1.25790   1.44543   1.44543   1.44584   2.15896

 Mulliken charges and spin densities:
               1          2
     1  H    0.002038  -0.988641
     2  H    0.000281   0.991248
     3  F   -0.002318   0.997393
 Sum of Mulliken charges =   0.00000   1.00000

 Dipole moment (field-independent basis, Debye):
    X=             -0.0520    Y=             -0.0000    Z=              0.0000  Tot=              0.0520
 Quadrupole moment (field-independent basis, Debye-Ang):
   XX=             -6.8241   YY=             -7.6385   ZZ=             -7.6385
   XY=             -0.0000   XZ=              0.0000   YZ=             -0.0000

  Exact polarizability:      13.537      -0.000       2.029       0.000      -0.000       2.029
 Approx polarizability:      10.254      -0.000       1.934       0.000      -0.000       1.934

 ******    2 imaginary frequencies (negative Signs) ******

                      1                      2                      3
                      A                      A                      A
 Frequencies --   -357.1517               -74.3773               127.1259
 Red. masses --      1.0080                 1.1083                 1.0147
 Frc consts  --      0.0758                 0.0036                 0.0097
 IR Inten    --      0.5633                 0.5531                 0.0035

                      4
                      A
 Frequencies --    127.1259
 Red. masses --      1.0147
 Frc consts  --      0.0097
 IR Inten    --      0.0035

 - Thermochemistry -
 -------------------
 Temperature   298.150 Kelvin.  Pressure   1.00000 Atm.
 Atom     1 has atomic number  1 and mass   1.00783

 Molecular mass:    21.01405 amu.
 Principal axes and moments of inertia in atomic units:
                           1         2         3
     Eigenvalues --     0.00000 210.72925 210.72925
           X            1.00000  -0.00000   0.00000
           Y            0.00000   1.00000   0.00000
           Z            0.00000   0.00000   1.00000
 This molecule is a prolate symmetric top.
 Rotational symmetry number  1.
 Rotational temperature (Kelvin)      0.41102
 Rotational constant (GHZ):           8.564265
    2 imaginary frequencies ignored.
 Zero-point vibrational energy       1520.8 (Joules/Mol)
                                    0.36347 (Kcal/Mol)
 Warning -- explicit consideration of   2 degrees of freedom as
           vibrations may cause significant error
 Vibrational temperatures:    182.91   182.91
          (Kelvin)

 Zero-point correction=                           0.000579 (Hartree/Particle)
 Thermal correction to Energy=                    0.004308
 Thermal correction to Enthalpy=                  0.005252
 Thermal correction to Gibbs Free Energy=        -0.022068
 Sum of electronic and zero-point Energies=           -100.759082
 Sum of electronic and thermal Energies=              -100.755354
 Sum of electronic and thermal Enthalpies=            -100.754410
 Sum of electronic and thermal Free Energies=         -100.781730

                     E (Thermal)             CV                S
                      KCal/Mol        Cal/Mol-Kelvin    Cal/Mol-Kelvin
 Total                    2.703              8.820             57.500
 Electronic               0.000              0.000              1.377
 Translational            0.889              2.981             35.068
 Rotational               0.592              1.987             15.076
 Vibrational              1.222              3.852              5.978
 Vibration     1          0.611              1.926              2.989
 Vibration     2          0.611              1.926              2.989

 Normal termination of Gaussian 16 at Sat Aug 23 01:56:42 2025.
