 Gaussian 16, Revision C.01,
 Gaussian 16:  ES64L-G16RevC.01  3-Jul-2019

 -----------------------------------------
 # sp b3lyp/6-311g** Force nosymm scf=(qc)
 -----------------------------------------

 -------------------
 Title Card Required
 -------------------
 Symbolic Z-matrix:
 Charge =  0 Multiplicity = 2

                          Input orientation:
 ---------------------------------------------------------------------
 Center     Atomic      Atomic             Coordinates (Angstroms)
 Number     Number       Type             X           Y           Z
 ---------------------------------------------------------------------
      1          1           0        0.000000    0.000000    0.000000
      2          1           0       -2.700000    0.000000    0.000000
      3          9           0        3.550000    0.000000    0.000000
 ---------------------------------------------------------------------

 SCF Done:  E(UB3LYP) =  -100.761225306     a.u. after   30 cycles

 Alpha  occ. eigenvalues --  -24.75503  -1.21457  -0.54626  -0.45865  -0.45865
 Alpha  occ. eigenvalues --   -0.32542
 Alpha virt. eigenvalues --   -0.08839   0.25448   0.35024   0.87454   0.91406
 Alpha virt. eigenvalues --    0.91406   1.01672   1.25044   1.25044   1.26411
 Alpha virt. eigenvalues --    1.42566   1.42566   1.43192   2.15989   2.38133

  Beta  occ. eigenvalues --  -24.72383  -1.12490  -0.42738  -0.42738  -0.32873
  Beta virt. eigenvalues --   -0.25552  -0.08364   0.25237   0.35732   0.92897
  Beta virt. eigenvalues --    0.92897   0.96649   1.05720   1.24658   1.24658
  Beta virt. eigenvalues --    1.25965   1.43306   1.43306   1.43931   2.16361

 Mulliken charges and spin densities:
               1          2
     1  H    0.008225  -0.972387
     2  H    0.001281   0.982993
     3  F   -0.009506   0.989395
 Sum of Mulliken charges =   0.00000   1.00000

 Dipole moment (field-independent basis, Debye):
    X=             -0.1899    Y=              0.0000    Z=              0.0000  Tot=              0.1899
 Quadrupole moment (field-independent basis, Debye-Ang):
   XX=             -7.1460   YY=             -7.6502   ZZ=             -7.6502
   XY=              0.0000   XZ=              0.0000   YZ=              0.0000

  Exact polarizability:      28.180       0.000       2.032       0.000       0.000       2.032
 Approx polarizability:      21.182       0.000       1.930       0.000      -0.000       1.930

 ******    2 imaginary frequencies (negative Signs) ******

                      1                      2                      3
                      A                      A                      A
 Frequencies --   -510.8401              -131.6800               181.7182
 Red. masses --      1.0084                 1.1078                 1.0150
 Frc consts  --      0.1550                 0.0113                 0.0197
 IR Inten    --      5.2549                 4.6584                 0.0470

                      4
                      A
 Frequencies --    181.7183
 Red. masses --      1.0150
 Frc consts  --      0.0197
 IR Inten    --      0.0470

 - Thermochemistry -
 -------------------
 Temperature   298.150 Kelvin.  Pressure   1.00000 Atm.
 Atom     1 has atomic number  1 and mass   1.00783

 Molecular mass:    21.01405 amu.
 Principal axes and moments of inertia in atomic units:
                           1         2         3
     Eigenvalues --     0.00000 169.36561 169.36561
           X            1.00000  -0.00000   0.00000
           Y            0.00000   1.00000   0.00000
           Z            0.00000   0.00000   1.00000
 This molecule is a prolate symmetric top.
 Rotational symmetry number  1.
 Rotational temperature (Kelvin)      0.51140
 Rotational constant (GHZ):          10.655889
    2 imaginary frequencies ignored.
 Zero-point vibrational energy       2173.8 (Joules/Mol)
                                    0.51956 (Kcal/Mol)
 Warning -- explicit consideration of   2 degrees of freedom as
           vibrations may cause significant error
 Vibrational temperatures:    261.45   261.45
          (Kelvin)

 Zero-point correction=                           0.000828 (Hartree/Particle)
 Thermal correction to Energy=                    0.004368
 Thermal correction to Enthalpy=                  0.005313
 Thermal correction to Gibbs Free Energy=        -0.021157
 Sum of electronic and zero-point Energies=           -100.760397
 Sum of electronic and thermal Energies=              -100.756857
 Sum of electronic and thermal Enthalpies=            -100.755913
 Sum of electronic and thermal Free Energies=         -100.782382

                     E (Thermal)             CV                S
                      KCal/Mol        Cal/Mol-Kelvin    Cal/Mol-Kelvin
 Total                    2.741              8.697             55.709
 Electronic               0.000              0.000              1.377
 Translational            0.889              2.981             35.068
 Rotational               0.592              1.987             14.642
 Vibrational              1.260              3.729              4.621
 Vibration     1          0.630              1.865              2.311
 Vibration     2          0.630              1.865              2.311

 Normal termination of Gaussian 16 at Fri Aug 22 22:40:06 2025.
