 Gaussian 16, Revision C.01,
 Gaussian 16:  ES64L-G16RevC.01  3-Jul-2019

 -----------------------------------------
 # sp b3lyp/6-311g** Force nosymm scf=(qc)
 -----------------------------------------

 -------------------
 Title Card Required
 -------------------
 Symbolic Z-matrix:
 Charge =  0 Multiplicity = 2

                          Input orientation:
 ---------------------------------------------------------------------
 Center     Atomic      Atomic             Coordinates (Angstroms)
 Number     Number       Type             X           Y           Z
 ---------------------------------------------------------------------
      1          1           0        0.000000    0.000000    0.000000
      2          1           0       -1.600000    0.000000    0.000000
      3          9           0        2.300000    0.000000    0.000000
 ---------------------------------------------------------------------

 SCF Done:  E(UB3LYP) =  -100.814720540     a.u. after   17 cycles

 Alpha  occ. eigenvalues --  -24.71587  -1.17816  -0.50788  -0.42591  -0.42591
 Alpha  occ. eigenvalues --   -0.36411
 Alpha virt. eigenvalues --   -0.11710   0.23525   0.31216   0.86998   0.93540
 Alpha virt. eigenvalues --    0.93540   1.02758   1.19164   1.19260   1.19260
 Alpha virt. eigenvalues --    1.36899   1.36899   1.72473   2.16729   2.42487

  Beta  occ. eigenvalues --  -24.68789  -1.09868  -0.39806  -0.39806  -0.35947
  Beta virt. eigenvalues --   -0.23955  -0.10763   0.25399   0.30830   0.92036
  Beta virt. eigenvalues --    0.94839   0.94839   1.06362   1.20254   1.20254
  Beta virt. eigenvalues --    1.23196   1.37584   1.37584   1.73291   2.17733

 Mulliken charges and spin densities:
               1          2
     1  H    0.048320  -0.458917
     2  H    0.048551   0.576297
     3  F   -0.096870   0.882620
 Sum of Mulliken charges =   0.00000   1.00000

 Dipole moment (field-independent basis, Debye):
    X=             -1.4955    Y=              0.0000    Z=              0.0000  Tot=              1.4955
 Quadrupole moment (field-independent basis, Debye-Ang):
   XX=             -7.5276   YY=             -7.6383   ZZ=             -7.6383
   XY=              0.0000   XZ=              0.0000   YZ=             -0.0000

  Exact polarizability:      59.298       0.000       2.050       0.000      -0.000       2.050
 Approx polarizability:      82.695      -0.000       2.006      -0.000      -0.000       2.006

 ******    2 imaginary frequencies (negative Signs) ******

                      1                      2                      3
                      A                      A                      A
 Frequencies --  -2052.0911              -409.9757               990.4113
 Red. masses --      1.0091                 1.1070                 1.0141
 Frc consts  --      2.5036                 0.1096                 0.5861
 IR Inten    --    472.4886                40.5519                 0.4952

                      4
                      A
 Frequencies --    990.4113
 Red. masses --      1.0141
 Frc consts  --      0.5861
 IR Inten    --      0.4952

 - Thermochemistry -
 -------------------
 Temperature   298.150 Kelvin.  Pressure   1.00000 Atm.
 Atom     1 has atomic number  1 and mass   1.00783

 Molecular mass:    21.01405 amu.
 Principal axes and moments of inertia in atomic units:
                           1         2         3
     Eigenvalues --     0.00000  67.14467  67.14467
           X            1.00000  -0.00000   0.00000
           Y            0.00000   1.00000   0.00000
           Z            0.00000   0.00000   1.00000
 This molecule is a prolate symmetric top.
 Rotational symmetry number  1.
 Rotational temperature (Kelvin)      1.28996
 Rotational constant (GHZ):          26.878400
    2 imaginary frequencies ignored.
 Zero-point vibrational energy      11848.0 (Joules/Mol)
                                    2.83173 (Kcal/Mol)
 Vibrational temperatures:   1424.98  1424.98
          (Kelvin)

 Zero-point correction=                           0.004513 (Hartree/Particle)
 Thermal correction to Energy=                    0.006950
 Thermal correction to Enthalpy=                  0.007894
 Thermal correction to Gibbs Free Energy=        -0.015598
 Sum of electronic and zero-point Energies=           -100.810208
 Sum of electronic and thermal Energies=              -100.807771
 Sum of electronic and thermal Enthalpies=            -100.806827
 Sum of electronic and thermal Free Energies=         -100.830319

                     E (Thermal)             CV                S
                      KCal/Mol        Cal/Mol-Kelvin    Cal/Mol-Kelvin
 Total                    4.361              5.744             49.443
 Electronic               0.000              0.000              1.377
 Translational            0.889              2.981             35.068
 Rotational               0.592              1.987             12.804
 Vibrational              2.880              0.776              0.194

 Normal termination of Gaussian 16 at Fri Aug 22 17:21:28 2025.
