 Gaussian 16, Revision C.01,
 Gaussian 16:  ES64L-G16RevC.01  3-Jul-2019

 -----------------------------------------
 # sp b3lyp/6-311g** Force nosymm scf=(qc)
 -----------------------------------------

 -------------------
 Title Card Required
 -------------------
 Symbolic Z-matrix:
 Charge =  0 Multiplicity = 2

                          Input orientation:
 ---------------------------------------------------------------------
 Center     Atomic      Atomic             Coordinates (Angstroms)
 Number     Number       Type             X           Y           Z
 ---------------------------------------------------------------------
      1          1           0        0.000000    0.000000    0.000000
      2          1           0       -1.250000    0.000000    0.000000
      3          9           0        1.000000    0.000000    0.000000
 ---------------------------------------------------------------------

 SCF Done:  E(UB3LYP) =  -100.965493518     a.u. after    6 cycles

 Alpha  occ. eigenvalues --  -24.63853  -1.16320  -0.54786  -0.38666  -0.38666
 Alpha  occ. eigenvalues --   -0.37052
 Alpha virt. eigenvalues --    0.10341   0.19625   0.37625   0.92826   0.92826
 Alpha virt. eigenvalues --    0.98456   1.10678   1.10678   1.29586   1.49639
 Alpha virt. eigenvalues --    1.49639   1.56089   2.13558   2.29336   2.66511

  Beta  occ. eigenvalues --  -24.63313  -1.14965  -0.51270  -0.38187  -0.38187
  Beta virt. eigenvalues --   -0.17638   0.12519   0.23822   0.42306   0.93541
  Beta virt. eigenvalues --    0.93541   0.99588   1.18665   1.18665   1.35944
  Beta virt. eigenvalues --    1.54853   1.54853   1.60346   2.23945   2.34198

 Mulliken charges and spin densities:
               1          2
     1  H    0.285755  -0.012460
     2  H    0.034321   0.871183
     3  F   -0.320076   0.141277
 Sum of Mulliken charges =   0.00000   1.00000

 Dipole moment (field-independent basis, Debye):
    X=             -2.2132    Y=             -0.0000    Z=              0.0000  Tot=              2.2132
 Quadrupole moment (field-independent basis, Debye-Ang):
   XX=             -7.6580   YY=             -6.7723   ZZ=             -6.7723
   XY=             -0.0000   XZ=              0.0000   YZ=              0.0000

  Exact polarizability:      14.232       0.000       2.554       0.000      -0.000       2.554
 Approx polarizability:      16.045      -0.000       2.562       0.000      -0.000       2.562

                      1                      2                      3
                      A                      A                      A
 Frequencies --    575.7035               695.5790               695.5790
 Red. masses --      1.0378                 1.0209                 1.0209
 Frc consts  --      0.2027                 0.2910                 0.2910
 IR Inten    --      7.8266                79.1565                79.1565

                      4
                      A
 Frequencies --   2541.4991
 Red. masses --      1.0744
 Frc consts  --      4.0886
 IR Inten    --    100.1113

 - Thermochemistry -
 -------------------
 Temperature   298.150 Kelvin.  Pressure   1.00000 Atm.
 Atom     1 has atomic number  1 and mass   1.00783

 Molecular mass:    21.01405 amu.
 Principal axes and moments of inertia in atomic units:
                           1         2         3
     Eigenvalues --     0.00000  19.99583  19.99583
           X            1.00000  -0.00000   0.00000
           Y            0.00000   1.00000   0.00000
           Z            0.00000   0.00000   1.00000
 This molecule is a prolate symmetric top.
 Rotational symmetry number  1.
 Rotational temperature (Kelvin)      4.33160
 Rotational constant (GHZ):          90.255884
 Zero-point vibrational energy      26966.0 (Joules/Mol)
                                    6.44503 (Kcal/Mol)
 Warning -- explicit consideration of   1 degrees of freedom as
           vibrations may cause significant error
 Vibrational temperatures:    828.31  1000.78  1000.78  3656.65
          (Kelvin)

 Zero-point correction=                           0.010271 (Hartree/Particle)
 Thermal correction to Energy=                    0.013034
 Thermal correction to Enthalpy=                  0.013978
 Thermal correction to Gibbs Free Energy=        -0.008808
 Sum of electronic and zero-point Energies=           -100.955223
 Sum of electronic and thermal Energies=              -100.952459
 Sum of electronic and thermal Enthalpies=            -100.951515
 Sum of electronic and thermal Free Energies=         -100.974302

                     E (Thermal)             CV                S
                      KCal/Mol        Cal/Mol-Kelvin    Cal/Mol-Kelvin
 Total                    8.179              7.729             47.958
 Electronic               0.000              0.000              1.377
 Translational            0.889              2.981             35.068
 Rotational               0.592              1.987             10.396
 Vibrational              6.698              2.761              1.116
 Vibration     1          0.932              1.084              0.493

 Normal termination of Gaussian 16 at Fri Aug 22 16:00:01 2025.
