 Gaussian 16, Revision C.01,
 Gaussian 16:  ES64L-G16RevC.01  3-Jul-2019

 -----------------------------------------
 # sp b3lyp/6-311g** Force nosymm scf=(qc)
 -----------------------------------------

 -------------------
 Title Card Required
 -------------------
 Symbolic Z-matrix:
 Charge =  0 Multiplicity = 2

                          Input orientation:
 ---------------------------------------------------------------------
 Center     Atomic      Atomic             Coordinates (Angstroms)
 Number     Number       Type             X           Y           Z
 ---------------------------------------------------------------------
      1          1           0        0.000000    0.000000    0.000000
      2          1           0       -1.350000    0.000000    0.000000
      3          9           0        3.900000    0.000000    0.000000
 ---------------------------------------------------------------------

 SCF Done:  E(UB3LYP) =  -100.844924644     a.u. after  169 cycles

 Alpha  occ. eigenvalues --  -24.76233  -1.22133  -0.55336  -0.46513  -0.46493
 Alpha  occ. eigenvalues --   -0.34827
 Alpha virt. eigenvalues --   -0.07181   0.23904   0.31998   0.86032   0.90910
 Alpha virt. eigenvalues --    0.91351   1.00888   1.12986   1.16636   1.16638
 Alpha virt. eigenvalues --    1.47204   1.47206   1.94021   2.27022   2.51196

  Beta  occ. eigenvalues --  -24.73078  -1.13060  -0.43349  -0.43329  -0.34826
  Beta virt. eigenvalues --   -0.25986  -0.07179   0.23907   0.32009   0.92410
  Beta virt. eigenvalues --    0.92845   0.95499   1.05035   1.12990   1.16636
  Beta virt. eigenvalues --    1.16638   1.47204   1.47206   1.94023   2.27023

 Mulliken charges and spin densities:
               1          2
     1  H    0.001032  -0.000010
     2  H   -0.002012  -0.000100
     3  F    0.000981   1.000110
 Sum of Mulliken charges =   0.00000   1.00000

 Dipole moment (field-independent basis, Debye):
    X=              0.0238    Y=              0.0000    Z=             -0.0000  Tot=              0.0238
 Quadrupole moment (field-independent basis, Debye-Ang):
   XX=             -6.3230   YY=             -7.4765   ZZ=             -6.9337
   XY=              0.0000   XZ=             -0.0000   YZ=             -0.3365

  Exact polarizability:      19.050      -0.000       2.154       0.000      -0.184       2.450
 Approx polarizability:      32.429       0.000       2.183      -0.000      -0.227       2.549

 ******    2 imaginary frequencies (negative Signs) ******

                      1                      2                      3
                      A                      A                      A
 Frequencies --  -1088.0575               -54.4696              1352.4906
 Red. masses --      1.0078                 1.1085                 1.0100
 Frc consts  --      0.7030                 0.0019                 1.0885
 IR Inten    --      0.0634                 0.0447                 0.0062

                      4
                      A
 Frequencies --   1355.6985
 Red. masses --      1.0100
 Frc consts  --      1.0937
 IR Inten    --      0.0015

 - Thermochemistry -
 -------------------
 Temperature   298.150 Kelvin.  Pressure   1.00000 Atm.
 Atom     1 has atomic number  1 and mass   1.00783

 Molecular mass:    21.01405 amu.
 Principal axes and moments of inertia in atomic units:
                           1         2         3
     Eigenvalues --     0.00000 139.48751 139.48751
           X            1.00000  -0.00000   0.00000
           Y            0.00000   1.00000   0.00000
           Z            0.00000   0.00000   1.00000
 This molecule is a prolate symmetric top.
 Rotational symmetry number  1.
 Rotational temperature (Kelvin)      0.62094
 Rotational constant (GHZ):          12.938371
    2 imaginary frequencies ignored.
 Zero-point vibrational energy      16198.6 (Joules/Mol)
                                    3.87155 (Kcal/Mol)
 Vibrational temperatures:   1945.93  1950.55
          (Kelvin)

 Zero-point correction=                           0.006170 (Hartree/Particle)
 Thermal correction to Energy=                    0.008548
 Thermal correction to Enthalpy=                  0.009492
 Thermal correction to Gibbs Free Energy=        -0.014618
 Sum of electronic and zero-point Energies=           -100.838755
 Sum of electronic and thermal Energies=              -100.836377
 Sum of electronic and thermal Enthalpies=            -100.835432
 Sum of electronic and thermal Free Energies=         -100.859543

                     E (Thermal)             CV                S
                      KCal/Mol        Cal/Mol-Kelvin    Cal/Mol-Kelvin
 Total                    5.364              5.215             50.745
 Electronic               0.000              0.000              1.377
 Translational            0.889              2.981             35.068
 Rotational               0.592              1.987             14.256
 Vibrational              3.883              0.247              0.044

 Normal termination of Gaussian 16 at Sat Aug 23 01:17:52 2025.
