 Gaussian 16, Revision C.01,
 Gaussian 16:  ES64L-G16RevC.01  3-Jul-2019

 -----------------------------------------
 # sp b3lyp/6-311g** Force nosymm scf=(qc)
 -----------------------------------------

 -------------------
 Title Card Required
 -------------------
 Symbolic Z-matrix:
 Charge =  0 Multiplicity = 2

                          Input orientation:
 ---------------------------------------------------------------------
 Center     Atomic      Atomic             Coordinates (Angstroms)
 Number     Number       Type             X           Y           Z
 ---------------------------------------------------------------------
      1          1           0        0.000000    0.000000    0.000000
      2          1           0       -1.450000    0.000000    0.000000
      3          9           0        1.700000    0.000000    0.000000
 ---------------------------------------------------------------------

 SCF Done:  E(UB3LYP) =  -100.858793173     a.u. after   12 cycles

 Alpha  occ. eigenvalues --  -24.67249  -1.13782  -0.47838  -0.39063  -0.39063
 Alpha  occ. eigenvalues --   -0.38987
 Alpha virt. eigenvalues --   -0.08324   0.21315   0.30098   0.90580   0.93501
 Alpha virt. eigenvalues --    0.93501   1.03354   1.14712   1.14712   1.41013
 Alpha virt. eigenvalues --    1.41013   1.41344   1.90246   2.20432   2.45053

  Beta  occ. eigenvalues --  -24.65144  -1.07983  -0.39683  -0.37009  -0.37009
  Beta virt. eigenvalues --   -0.22829  -0.05687   0.23861   0.30495   0.93943
  Beta virt. eigenvalues --    0.93943   0.94716   1.07172   1.18747   1.18747
  Beta virt. eigenvalues --    1.42119   1.42119   1.46227   1.93283   2.21990

 Mulliken charges and spin densities:
               1          2
     1  H    0.161891  -0.288933
     2  H    0.071903   0.632610
     3  F   -0.233794   0.656323
 Sum of Mulliken charges =  -0.00000   1.00000

 Dipole moment (field-independent basis, Debye):
    X=             -2.4398    Y=              0.0000    Z=             -0.0000  Tot=              2.4398
 Quadrupole moment (field-independent basis, Debye-Ang):
   XX=             -7.9571   YY=             -7.3603   ZZ=             -7.3603
   XY=              0.0000   XZ=             -0.0000   YZ=              0.0000

  Exact polarizability:      43.128       0.000       2.223      -0.000       0.000       2.223
 Approx polarizability:      66.186      -0.000       2.165       0.000      -0.000       2.165

 ******    2 imaginary frequencies (negative Signs) ******

                      1                      2                      3
                      A                      A                      A
 Frequencies --  -2444.3488              -493.6813              1093.9922
 Red. masses --      1.0184                 1.0960                 1.0161
 Frc consts  --      3.5850                 0.1574                 0.7165
 IR Inten    --    769.8132                 0.0001                 9.3448

                      4
                      A
 Frequencies --   1093.9922
 Red. masses --      1.0161
 Frc consts  --      0.7165
 IR Inten    --      9.3448

 - Thermochemistry -
 -------------------
 Temperature   298.150 Kelvin.  Pressure   1.00000 Atm.
 Atom     1 has atomic number  1 and mass   1.00783

 Molecular mass:    21.01405 amu.
 Principal axes and moments of inertia in atomic units:
                           1         2         3
     Eigenvalues --     0.00000  42.05215  42.05215
           X            1.00000  -0.00000   0.00000
           Y            0.00000   1.00000   0.00000
           Z            0.00000   0.00000   1.00000
 This molecule is a prolate symmetric top.
 Rotational symmetry number  1.
 Rotational temperature (Kelvin)      2.05968
 Rotational constant (GHZ):          42.916740
    2 imaginary frequencies ignored.
 Zero-point vibrational energy      13087.1 (Joules/Mol)
                                    3.12788 (Kcal/Mol)
 Vibrational temperatures:   1574.01  1574.01
          (Kelvin)

 Zero-point correction=                           0.004985 (Hartree/Particle)
 Thermal correction to Energy=                    0.007396
 Thermal correction to Enthalpy=                  0.008340
 Thermal correction to Gibbs Free Energy=        -0.014678
 Sum of electronic and zero-point Energies=           -100.853809
 Sum of electronic and thermal Energies=              -100.851397
 Sum of electronic and thermal Enthalpies=            -100.850453
 Sum of electronic and thermal Free Energies=         -100.873472

                     E (Thermal)             CV                S
                      KCal/Mol        Cal/Mol-Kelvin    Cal/Mol-Kelvin
 Total                    4.641              5.538             48.447
 Electronic               0.000              0.000              1.377
 Translational            0.889              2.981             35.068
 Rotational               0.592              1.987             11.874
 Vibrational              3.160              0.570              0.128

 Normal termination of Gaussian 16 at Fri Aug 22 16:36:56 2025.
