 Gaussian 16, Revision C.01,
 Gaussian 16:  ES64L-G16RevC.01  3-Jul-2019

 -----------------------------------------
 # sp b3lyp/6-311g** Force nosymm scf=(qc)
 -----------------------------------------

 -------------------
 Title Card Required
 -------------------
 Symbolic Z-matrix:
 Charge =  0 Multiplicity = 2

                          Input orientation:
 ---------------------------------------------------------------------
 Center     Atomic      Atomic             Coordinates (Angstroms)
 Number     Number       Type             X           Y           Z
 ---------------------------------------------------------------------
      1          1           0        0.000000    0.000000    0.000000
      2          1           0       -1.800000    0.000000    0.000000
      3          9           0        1.650000    0.000000    0.000000
 ---------------------------------------------------------------------

 SCF Done:  E(UB3LYP) =  -100.840863071     a.u. after   15 cycles

 Alpha  occ. eigenvalues --  -24.65214  -1.11508  -0.45133  -0.37995  -0.37223
 Alpha  occ. eigenvalues --   -0.37223
 Alpha virt. eigenvalues --   -0.11655   0.22550   0.28836   0.92502   0.94600
 Alpha virt. eigenvalues --    0.94600   1.04184   1.19102   1.19102   1.34845
 Alpha virt. eigenvalues --    1.34845   1.35150   1.74753   2.12901   2.32459

  Beta  occ. eigenvalues --  -24.63622  -1.07181  -0.39837  -0.35683  -0.35683
  Beta virt. eigenvalues --   -0.20671  -0.08766   0.25441   0.30401   0.94530
  Beta virt. eigenvalues --    0.94530   0.95727   1.07447   1.26058   1.26058
  Beta virt. eigenvalues --    1.35896   1.35896   1.43669   1.75558   2.15057

 Mulliken charges and spin densities:
               1          2
     1  H    0.231982  -0.356025
     2  H    0.061909   0.857184
     3  F   -0.293891   0.498841
 Sum of Mulliken charges =   0.00000   1.00000

 Dipole moment (field-independent basis, Debye):
    X=             -2.9086    Y=              0.0000    Z=             -0.0000  Tot=              2.9086
 Quadrupole moment (field-independent basis, Debye-Ang):
   XX=             -8.6036   YY=             -7.3832   ZZ=             -7.3832
   XY=             -0.0000   XZ=              0.0000   YZ=             -0.0000

  Exact polarizability:      40.402      -0.000       2.182       0.000      -0.000       2.182
 Approx polarizability:      54.777       0.000       2.102      -0.000       0.000       2.102

 ******    2 imaginary frequencies (negative Signs) ******

                      1                      2                      3
                      A                      A                      A
 Frequencies --  -2199.7264              -583.7139               896.6063
 Red. masses --      1.0279                 1.0852                 1.0190
 Frc consts  --      2.9304                 0.2179                 0.4827
 IR Inten    --    157.9180                 2.9773                31.7730

                      4
                      A
 Frequencies --    896.6063
 Red. masses --      1.0190
 Frc consts  --      0.4827
 IR Inten    --     31.7730

 - Thermochemistry -
 -------------------
 Temperature   298.150 Kelvin.  Pressure   1.00000 Atm.
 Atom     1 has atomic number  1 and mass   1.00783

 Molecular mass:    21.01405 amu.
 Principal axes and moments of inertia in atomic units:
                           1         2         3
     Eigenvalues --     0.00000  48.14599  48.14599
           X            1.00000  -0.00000   0.00000
           Y            0.00000   1.00000   0.00000
           Z            0.00000   0.00000   1.00000
 This molecule is a prolate symmetric top.
 Rotational symmetry number  1.
 Rotational temperature (Kelvin)      1.79899
 Rotational constant (GHZ):          37.484764
    2 imaginary frequencies ignored.
 Zero-point vibrational energy      10725.8 (Joules/Mol)
                                    2.56353 (Kcal/Mol)
 Vibrational temperatures:   1290.02  1290.02
          (Kelvin)

 Zero-point correction=                           0.004085 (Hartree/Particle)
 Thermal correction to Energy=                    0.006555
 Thermal correction to Enthalpy=                  0.007499
 Thermal correction to Gibbs Free Energy=        -0.015721
 Sum of electronic and zero-point Energies=           -100.836778
 Sum of electronic and thermal Energies=              -100.834308
 Sum of electronic and thermal Enthalpies=            -100.833364
 Sum of electronic and thermal Free Energies=         -100.856584

                     E (Thermal)             CV                S
                      KCal/Mol        Cal/Mol-Kelvin    Cal/Mol-Kelvin
 Total                    4.113              5.977             48.871
 Electronic               0.000              0.000              1.377
 Translational            0.889              2.981             35.068
 Rotational               0.592              1.987             12.143
 Vibrational              2.632              1.009              0.283

 Normal termination of Gaussian 16 at Fri Aug 22 16:34:07 2025.
