 Gaussian 16, Revision C.01,
 Gaussian 16:  ES64L-G16RevC.01  3-Jul-2019

 -----------------------------------------
 # sp b3lyp/6-311g** Force nosymm scf=(qc)
 -----------------------------------------

 -------------------
 Title Card Required
 -------------------
 Symbolic Z-matrix:
 Charge =  0 Multiplicity = 2

                          Input orientation:
 ---------------------------------------------------------------------
 Center     Atomic      Atomic             Coordinates (Angstroms)
 Number     Number       Type             X           Y           Z
 ---------------------------------------------------------------------
      1          1           0        0.000000    0.000000    0.000000
      2          1           0       -2.550000    0.000000    0.000000
      3          9           0        3.750000    0.000000    0.000000
 ---------------------------------------------------------------------

 SCF Done:  E(UB3LYP) =  -100.762144627     a.u. after   32 cycles

 Alpha  occ. eigenvalues --  -24.75751  -1.21687  -0.54875  -0.46075  -0.46075
 Alpha  occ. eigenvalues --   -0.32549
 Alpha virt. eigenvalues --   -0.09133   0.25704   0.34797   0.86942   0.91249
 Alpha virt. eigenvalues --    0.91249   1.01300   1.25083   1.25083   1.26634
 Alpha virt. eigenvalues --    1.41966   1.41966   1.43256   2.15949   2.37146

  Beta  occ. eigenvalues --  -24.72615  -1.12671  -0.42931  -0.42931  -0.32749
  Beta virt. eigenvalues --   -0.25680  -0.08831   0.25519   0.35231   0.92745
  Beta virt. eigenvalues --    0.92745   0.96243   1.05398   1.24855   1.24855
  Beta virt. eigenvalues --    1.26372   1.42416   1.42416   1.43702   2.16174

 Mulliken charges and spin densities:
               1          2
     1  H    0.003798  -0.968107
     2  H    0.001233   0.973792
     3  F   -0.005031   0.994315
 Sum of Mulliken charges =   0.00000   1.00000

 Dipole moment (field-independent basis, Debye):
    X=             -0.1120    Y=              0.0000    Z=              0.0000  Tot=              0.1120
 Quadrupole moment (field-independent basis, Debye-Ang):
   XX=             -6.8629   YY=             -7.6625   ZZ=             -7.6625
   XY=             -0.0000   XZ=             -0.0000   YZ=             -0.0000

  Exact polarizability:      24.470       0.000       2.020       0.000       0.000       2.020
 Approx polarizability:      18.124      -0.000       1.931      -0.000       0.000       1.931

 ******    2 imaginary frequencies (negative Signs) ******

                      1                      2                      3
                      A                      A                      A
 Frequencies --   -618.2650              -101.7241               227.1232
 Red. masses --      1.0079                 1.1084                 1.0139
 Frc consts  --      0.2270                 0.0068                 0.0308
 IR Inten    --      1.9942                 2.1816                 0.0103

                      4
                      A
 Frequencies --    227.1232
 Red. masses --      1.0139
 Frc consts  --      0.0308
 IR Inten    --      0.0103

 - Thermochemistry -
 -------------------
 Temperature   298.150 Kelvin.  Pressure   1.00000 Atm.
 Atom     1 has atomic number  1 and mass   1.00783

 Molecular mass:    21.01405 amu.
 Principal axes and moments of inertia in atomic units:
                           1         2         3
     Eigenvalues --     0.00000 176.02198 176.02198
           X            1.00000  -0.00000   0.00000
           Y            0.00000   1.00000   0.00000
           Z            0.00000   0.00000   1.00000
 This molecule is a prolate symmetric top.
 Rotational symmetry number  1.
 Rotational temperature (Kelvin)      0.49206
 Rotational constant (GHZ):          10.252931
    2 imaginary frequencies ignored.
 Zero-point vibrational energy       2717.0 (Joules/Mol)
                                    0.64938 (Kcal/Mol)
 Warning -- explicit consideration of   2 degrees of freedom as
           vibrations may cause significant error
 Vibrational temperatures:    326.78   326.78
          (Kelvin)

 Zero-point correction=                           0.001035 (Hartree/Particle)
 Thermal correction to Energy=                    0.004434
 Thermal correction to Enthalpy=                  0.005378
 Thermal correction to Gibbs Free Energy=        -0.020738
 Sum of electronic and zero-point Energies=           -100.761110
 Sum of electronic and thermal Energies=              -100.757710
 Sum of electronic and thermal Enthalpies=            -100.756766
 Sum of electronic and thermal Free Energies=         -100.782883

                     E (Thermal)             CV                S
                      KCal/Mol        Cal/Mol-Kelvin    Cal/Mol-Kelvin
 Total                    2.782              8.567             54.967
 Electronic               0.000              0.000              1.377
 Translational            0.889              2.981             35.068
 Rotational               0.592              1.987             14.719
 Vibrational              1.301              3.599              3.803
 Vibration     1          0.651              1.800              1.902
 Vibration     2          0.651              1.800              1.902

 Normal termination of Gaussian 16 at Sat Aug 23 00:26:12 2025.
