 Gaussian 16, Revision C.01,
 Gaussian 16:  ES64L-G16RevC.01  3-Jul-2019

 -----------------------------------------
 # sp b3lyp/6-311g** Force nosymm scf=(qc)
 -----------------------------------------

 -------------------
 Title Card Required
 -------------------
 Symbolic Z-matrix:
 Charge =  0 Multiplicity = 2

                          Input orientation:
 ---------------------------------------------------------------------
 Center     Atomic      Atomic             Coordinates (Angstroms)
 Number     Number       Type             X           Y           Z
 ---------------------------------------------------------------------
      1          1           0        0.000000    0.000000    0.000000
      2          1           0       -4.000000    0.000000    0.000000
      3          9           0        2.650000    0.000000    0.000000
 ---------------------------------------------------------------------

 SCF Done:  E(UB3LYP) =  -100.764510644     a.u. after   22 cycles

 Alpha  occ. eigenvalues --  -24.72553  -1.18720  -0.51665  -0.43392  -0.43392
 Alpha  occ. eigenvalues --   -0.32633
 Alpha virt. eigenvalues --   -0.09265   0.23631   0.35630   0.89882   0.93170
 Alpha virt. eigenvalues --    0.93170   1.05743   1.24865   1.24865   1.24877
 Alpha virt. eigenvalues --    1.41724   1.41724   1.44475   2.14151   2.38968

  Beta  occ. eigenvalues --  -24.69640  -1.10408  -0.40484  -0.40484  -0.34777
  Beta virt. eigenvalues --   -0.23858  -0.05977   0.23779   0.38117   0.94582
  Beta virt. eigenvalues --    0.94582   0.97360   1.08593   1.22559   1.22559
  Beta virt. eigenvalues --    1.26294   1.46614   1.46739   1.46739   2.13016

 Mulliken charges and spin densities:
               1          2
     1  H    0.070587  -0.920729
     2  H    0.000201   0.999400
     3  F   -0.070789   0.921329
 Sum of Mulliken charges =  -0.00000   1.00000

 Dipole moment (field-independent basis, Debye):
    X=             -0.9622    Y=              0.0000    Z=             -0.0000  Tot=              0.9622
 Quadrupole moment (field-independent basis, Debye-Ang):
   XX=             -9.0700   YY=             -7.5817   ZZ=             -7.5817
   XY=             -0.0000   XZ=              0.0000   YZ=              0.0000

  Exact polarizability:      30.707      -0.000       2.025       0.000       0.000       2.025
 Approx polarizability:      37.267      -0.000       1.922       0.000      -0.000       1.922

 ******    2 imaginary frequencies (negative Signs) ******

                      1                      2                      3
                      A                      A                      A
 Frequencies --   -521.4558               -69.0480               197.2815
 Red. masses --      1.0565                 1.0551                 1.0236
 Frc consts  --      0.1693                 0.0030                 0.0235
 IR Inten    --     67.5572                 0.0376                 4.8830

                      4
                      A
 Frequencies --    197.2815
 Red. masses --      1.0236
 Frc consts  --      0.0235
 IR Inten    --      4.8830

 - Thermochemistry -
 -------------------
 Temperature   298.150 Kelvin.  Pressure   1.00000 Atm.
 Atom     1 has atomic number  1 and mass   1.00783

 Molecular mass:    21.01405 amu.
 Principal axes and moments of inertia in atomic units:
                           1         2         3
     Eigenvalues --     0.00000 169.50242 169.50242
           X            1.00000  -0.00000   0.00000
           Y            0.00000   1.00000   0.00000
           Z            0.00000   0.00000   1.00000
 This molecule is a prolate symmetric top.
 Rotational symmetry number  1.
 Rotational temperature (Kelvin)      0.51099
 Rotational constant (GHZ):          10.647289
    2 imaginary frequencies ignored.
 Zero-point vibrational energy       2360.0 (Joules/Mol)
                                    0.56406 (Kcal/Mol)
 Warning -- explicit consideration of   2 degrees of freedom as
           vibrations may cause significant error
 Vibrational temperatures:    283.84   283.84
          (Kelvin)

 Zero-point correction=                           0.000899 (Hartree/Particle)
 Thermal correction to Energy=                    0.004389
 Thermal correction to Enthalpy=                  0.005334
 Thermal correction to Gibbs Free Energy=        -0.020992
 Sum of electronic and zero-point Energies=           -100.763612
 Sum of electronic and thermal Energies=              -100.760121
 Sum of electronic and thermal Enthalpies=            -100.759177
 Sum of electronic and thermal Free Energies=         -100.785502

                     E (Thermal)             CV                S
                      KCal/Mol        Cal/Mol-Kelvin    Cal/Mol-Kelvin
 Total                    2.754              8.655             55.406
 Electronic               0.000              0.000              1.377
 Translational            0.889              2.981             35.068
 Rotational               0.592              1.987             14.644
 Vibrational              1.273              3.687              4.317
 Vibration     1          0.637              1.844              2.158
 Vibration     2          0.637              1.844              2.158

 Normal termination of Gaussian 16 at Fri Aug 22 18:16:19 2025.
