 Gaussian 16, Revision C.01,
 Gaussian 16:  ES64L-G16RevC.01  3-Jul-2019

 -----------------------------------------
 # sp b3lyp/6-311g** Force nosymm scf=(qc)
 -----------------------------------------

 -------------------
 Title Card Required
 -------------------
 Symbolic Z-matrix:
 Charge =  0 Multiplicity = 2

                          Input orientation:
 ---------------------------------------------------------------------
 Center     Atomic      Atomic             Coordinates (Angstroms)
 Number     Number       Type             X           Y           Z
 ---------------------------------------------------------------------
      1          1           0        0.000000    0.000000    0.000000
      2          1           0       -3.800000    0.000000    0.000000
      3          9           0        0.550000    0.000000    0.000000
 ---------------------------------------------------------------------

 SCF Done:  E(UB3LYP) =  -100.519203996     a.u. after    6 cycles

 Alpha  occ. eigenvalues --  -24.62696  -1.38439  -0.62259  -0.43638  -0.43638
 Alpha  occ. eigenvalues --   -0.33126
 Alpha virt. eigenvalues --    0.07739   0.24689   0.60279   0.91190   0.91208
 Alpha virt. eigenvalues --    0.91208   1.24272   1.24378   1.24378   1.34752
 Alpha virt. eigenvalues --    1.54128   1.54128   1.96736   2.14468   3.65585

  Beta  occ. eigenvalues --  -24.62695  -1.38438  -0.62260  -0.43638  -0.43638
  Beta virt. eigenvalues --   -0.05056   0.07952   0.38759   0.60260   0.91187
  Beta virt. eigenvalues --    0.91208   0.91208   1.34461   1.48514   1.49081
  Beta virt. eigenvalues --    1.49081   1.54128   1.54128   1.96694   2.46078

 Mulliken charges and spin densities:
               1          2
     1  H    0.200571   0.000300
     2  H    0.000409   0.999542
     3  F   -0.200980   0.000158
 Sum of Mulliken charges =   0.00000   1.00000

 Dipole moment (field-independent basis, Debye):
    X=             -1.3633    Y=              0.0000    Z=             -0.0000  Tot=              1.3633
 Quadrupole moment (field-independent basis, Debye-Ang):
   XX=             -6.8332   YY=             -6.4956   ZZ=             -6.4956
   XY=              0.0000   XZ=             -0.0000   YZ=              0.0000

  Exact polarizability:       3.035      -0.000       2.425       0.000      -0.000       2.425
 Approx polarizability:       3.244       0.000       2.402       0.000      -0.000       2.402

 ******    3 imaginary frequencies (negative Signs) ******

                      1                      2                      3
                      A                      A                      A
 Frequencies --  -7518.5074             -7518.5074               -29.3051
 Red. masses --      1.0458                 1.0458                 1.0532
 Frc consts  --     34.8297                34.8297                 0.0005
 IR Inten    --    260.7620               260.7620                 0.0106

                      4
                      A
 Frequencies --  15777.8448
 Red. masses --      1.0583
 Frc consts  --    155.2239
 IR Inten    --     87.7140

 - Thermochemistry -
 -------------------
 Temperature   298.150 Kelvin.  Pressure   1.00000 Atm.
 Atom     1 has atomic number  1 and mass   1.00783

 Molecular mass:    21.01405 amu.
 Principal axes and moments of inertia in atomic units:
                           1         2         3
     Eigenvalues --     0.00000  65.04665  65.04665
           X            1.00000  -0.00000   0.00000
           Y            0.00000   1.00000   0.00000
           Z            0.00000   0.00000   1.00000
 This molecule is a prolate symmetric top.
 Rotational symmetry number  1.
 Rotational temperature (Kelvin)      1.33157
 Rotational constant (GHZ):          27.745338
    3 imaginary frequencies ignored.
 Zero-point vibrational energy      94372.5 (Joules/Mol)
                                   22.55556 (Kcal/Mol)
 Vibrational temperatures:  22700.80
          (Kelvin)

 Zero-point correction=                           0.035945 (Hartree/Particle)
 Thermal correction to Energy=                    0.038305
 Thermal correction to Enthalpy=                  0.039249
 Thermal correction to Gibbs Free Energy=         0.015879
 Sum of electronic and zero-point Energies=           -100.483259
 Sum of electronic and thermal Energies=              -100.480899
 Sum of electronic and thermal Enthalpies=            -100.479955
 Sum of electronic and thermal Free Energies=         -100.503325

                     E (Thermal)             CV                S
                      KCal/Mol        Cal/Mol-Kelvin    Cal/Mol-Kelvin
 Total                   24.037              4.968             49.186
 Electronic               0.000              0.000              1.377
 Translational            0.889              2.981             35.068
 Rotational               0.592              1.987             12.740
 Vibrational             22.556              0.000              0.000

 Normal termination of Gaussian 16 at Fri Aug 22 15:40:29 2025.
