 Gaussian 16, Revision C.01,
 Gaussian 16:  ES64L-G16RevC.01  3-Jul-2019

 -----------------------------------------
 # sp b3lyp/6-311g** Force nosymm scf=(qc)
 -----------------------------------------

 -------------------
 Title Card Required
 -------------------
 Symbolic Z-matrix:
 Charge =  0 Multiplicity = 2

                          Input orientation:
 ---------------------------------------------------------------------
 Center     Atomic      Atomic             Coordinates (Angstroms)
 Number     Number       Type             X           Y           Z
 ---------------------------------------------------------------------
      1          1           0        0.000000    0.000000    0.000000
      2          1           0       -1.500000    0.000000    0.000000
      3          9           0        1.150000    0.000000    0.000000
 ---------------------------------------------------------------------

 SCF Done:  E(UB3LYP) =  -100.942689064     a.u. after    6 cycles

 Alpha  occ. eigenvalues --  -24.63472  -1.12696  -0.50337  -0.37536  -0.37187
 Alpha  occ. eigenvalues --   -0.37187
 Alpha virt. eigenvalues --    0.02777   0.20783   0.30483   0.93649   0.93649
 Alpha virt. eigenvalues --    1.00543   1.10997   1.15207   1.15207   1.41140
 Alpha virt. eigenvalues --    1.41140   1.53475   1.91941   2.29095   2.38164

  Beta  occ. eigenvalues --  -24.63009  -1.11530  -0.47504  -0.36766  -0.36766
  Beta virt. eigenvalues --   -0.17984   0.05952   0.25357   0.33785   0.93837
  Beta virt. eigenvalues --    0.93837   1.01595   1.18971   1.25171   1.25171
  Beta virt. eigenvalues --    1.45582   1.45582   1.56018   2.01464   2.32280

 Mulliken charges and spin densities:
               1          2
     1  H    0.305930  -0.027951
     2  H    0.048128   0.894616
     3  F   -0.354058   0.133335
 Sum of Mulliken charges =   0.00000   1.00000

 Dipole moment (field-independent basis, Debye):
    X=             -2.6070    Y=             -0.0000    Z=             -0.0000  Tot=              2.6070
 Quadrupole moment (field-independent basis, Debye-Ang):
   XX=             -7.8979   YY=             -6.9539   ZZ=             -6.9539
   XY=             -0.0000   XZ=             -0.0000   YZ=              0.0000

  Exact polarizability:      17.758       0.000       2.464      -0.000      -0.000       2.464
 Approx polarizability:      21.376       0.000       2.444       0.000      -0.000       2.444

 ******    1 imaginary frequencies (negative Signs) ******

                      1                      2                      3
                      A                      A                      A
 Frequencies --  -1057.0209               948.5388              1110.1023
 Red. masses --      1.0079                 1.1084                 1.0215
 Frc consts  --      0.6635                 0.5876                 0.7417
 IR Inten    --     50.5358                85.6550                77.1899

                      4
                      A
 Frequencies --   1110.1023
 Red. masses --      1.0215
 Frc consts  --      0.7417
 IR Inten    --     77.1899

 - Thermochemistry -
 -------------------
 Temperature   298.150 Kelvin.  Pressure   1.00000 Atm.
 Atom     1 has atomic number  1 and mass   1.00783

 Molecular mass:    21.01405 amu.
 Principal axes and moments of inertia in atomic units:
                           1         2         3
     Eigenvalues --     0.00000  27.54128  27.54128
           X            1.00000  -0.00000   0.00000
           Y            0.00000   1.00000   0.00000
           Z            0.00000   0.00000   1.00000
 This molecule is a prolate symmetric top.
 Rotational symmetry number  1.
 Rotational temperature (Kelvin)      3.14488
 Rotational constant (GHZ):          65.528583
    1 imaginary frequencies ignored.
 Zero-point vibrational energy      18953.3 (Joules/Mol)
                                    4.52995 (Kcal/Mol)
 Vibrational temperatures:   1364.74  1597.19  1597.19
          (Kelvin)

 Zero-point correction=                           0.007219 (Hartree/Particle)
 Thermal correction to Energy=                    0.009672
 Thermal correction to Enthalpy=                  0.010616
 Thermal correction to Gibbs Free Energy=        -0.012053
 Sum of electronic and zero-point Energies=           -100.935470
 Sum of electronic and thermal Energies=              -100.933017
 Sum of electronic and thermal Enthalpies=            -100.932073
 Sum of electronic and thermal Free Energies=         -100.954743

                     E (Thermal)             CV                S
                      KCal/Mol        Cal/Mol-Kelvin    Cal/Mol-Kelvin
 Total                    6.069              5.948             47.713
 Electronic               0.000              0.000              1.377
 Translational            0.889              2.981             35.068
 Rotational               0.592              1.987             11.033
 Vibrational              4.588              0.980              0.235

 Normal termination of Gaussian 16 at Fri Aug 22 16:07:23 2025.
