 Gaussian 16, Revision C.01,
 Gaussian 16:  ES64L-G16RevC.01  3-Jul-2019

 -----------------------------------------
 # sp b3lyp/6-311g** Force nosymm scf=(qc)
 -----------------------------------------

 -------------------
 Title Card Required
 -------------------
 Symbolic Z-matrix:
 Charge =  0 Multiplicity = 2

                          Input orientation:
 ---------------------------------------------------------------------
 Center     Atomic      Atomic             Coordinates (Angstroms)
 Number     Number       Type             X           Y           Z
 ---------------------------------------------------------------------
      1          1           0        0.000000    0.000000    0.000000
      2          1           0       -2.050000    0.000000    0.000000
      3          9           0        1.750000    0.000000    0.000000
 ---------------------------------------------------------------------

 SCF Done:  E(UB3LYP) =  -100.820256327     a.u. after   16 cycles

 Alpha  occ. eigenvalues --  -24.65865  -1.12099  -0.45007  -0.37719  -0.37719
 Alpha  occ. eigenvalues --   -0.36995
 Alpha virt. eigenvalues --   -0.13485   0.23517   0.29151   0.93294   0.94957
 Alpha virt. eigenvalues --    0.94957   1.05317   1.20753   1.20753   1.29142
 Alpha virt. eigenvalues --    1.33805   1.33805   1.70496   2.10856   2.28139

  Beta  occ. eigenvalues --  -24.64052  -1.07127  -0.39119  -0.35955  -0.35955
  Beta virt. eigenvalues --   -0.19948  -0.10505   0.25398   0.32085   0.94961
  Beta virt. eigenvalues --    0.94961   0.95281   1.08289   1.25454   1.25454
  Beta virt. eigenvalues --    1.36830   1.36830   1.41960   1.67865   2.12670

 Mulliken charges and spin densities:
               1          2
     1  H    0.223216  -0.483370
     2  H    0.045751   0.914062
     3  F   -0.268967   0.569308
 Sum of Mulliken charges =  -0.00000   1.00000

 Dipole moment (field-independent basis, Debye):
    X=             -2.7523    Y=              0.0000    Z=             -0.0000  Tot=              2.7523
 Quadrupole moment (field-independent basis, Debye-Ang):
   XX=             -8.9419   YY=             -7.4516   ZZ=             -7.4516
   XY=              0.0000   XZ=             -0.0000   YZ=             -0.0000

  Exact polarizability:      40.672       0.000       2.126      -0.000      -0.000       2.126
 Approx polarizability:      51.979       0.000       2.032      -0.000       0.000       2.032

 ******    2 imaginary frequencies (negative Signs) ******

                      1                      2                      3
                      A                      A                      A
 Frequencies --  -1832.4538              -560.7987               761.2705
 Red. masses --      1.0347                 1.0777                 1.0200
 Frc consts  --      2.0471                 0.1997                 0.3483
 IR Inten    --     97.7234                15.4083                34.2940

                      4
                      A
 Frequencies --    761.2705
 Red. masses --      1.0200
 Frc consts  --      0.3483
 IR Inten    --     34.2940

 - Thermochemistry -
 -------------------
 Temperature   298.150 Kelvin.  Pressure   1.00000 Atm.
 Atom     1 has atomic number  1 and mass   1.00783

 Molecular mass:    21.01405 amu.
 Principal axes and moments of inertia in atomic units:
                           1         2         3
     Eigenvalues --     0.00000  57.67492  57.67492
           X            1.00000  -0.00000   0.00000
           Y            0.00000   1.00000   0.00000
           Z            0.00000   0.00000   1.00000
 This molecule is a prolate symmetric top.
 Rotational symmetry number  1.
 Rotational temperature (Kelvin)      1.50176
 Rotational constant (GHZ):          31.291610
    2 imaginary frequencies ignored.
 Zero-point vibrational energy       9106.8 (Joules/Mol)
                                    2.17658 (Kcal/Mol)
 Vibrational temperatures:   1095.30  1095.30
          (Kelvin)

 Zero-point correction=                           0.003469 (Hartree/Particle)
 Thermal correction to Energy=                    0.006010
 Thermal correction to Enthalpy=                  0.006954
 Thermal correction to Gibbs Free Energy=        -0.016532
 Sum of electronic and zero-point Energies=           -100.816788
 Sum of electronic and thermal Energies=              -100.814247
 Sum of electronic and thermal Enthalpies=            -100.813302
 Sum of electronic and thermal Free Energies=         -100.836788

                     E (Thermal)             CV                S
                      KCal/Mol        Cal/Mol-Kelvin    Cal/Mol-Kelvin
 Total                    3.771              6.401             49.429
 Electronic               0.000              0.000              1.377
 Translational            0.889              2.981             35.068
 Rotational               0.592              1.987             12.501
 Vibrational              2.290              1.433              0.482

 Normal termination of Gaussian 16 at Fri Aug 22 16:40:30 2025.
