 Gaussian 16, Revision C.01,
 Gaussian 16:  ES64L-G16RevC.01  3-Jul-2019

 -----------------------------------------
 # sp b3lyp/6-311g** Force nosymm scf=(qc)
 -----------------------------------------

 -------------------
 Title Card Required
 -------------------
 Symbolic Z-matrix:
 Charge =  0 Multiplicity = 2

                          Input orientation:
 ---------------------------------------------------------------------
 Center     Atomic      Atomic             Coordinates (Angstroms)
 Number     Number       Type             X           Y           Z
 ---------------------------------------------------------------------
      1          1           0        0.000000    0.000000    0.000000
      2          1           0       -3.350000    0.000000    0.000000
      3          9           0        1.250000    0.000000    0.000000
 ---------------------------------------------------------------------

 SCF Done:  E(UB3LYP) =  -100.913490484     a.u. after    6 cycles

 Alpha  occ. eigenvalues --  -24.64350  -1.11634  -0.46872  -0.37273  -0.37273
 Alpha  occ. eigenvalues --   -0.34023
 Alpha virt. eigenvalues --   -0.07311   0.22044   0.28862   0.93068   0.93068
 Alpha virt. eigenvalues --    1.01442   1.23322   1.23495   1.23495   1.24545
 Alpha virt. eigenvalues --    1.34266   1.34266   1.71293   2.13889   2.26663

  Beta  occ. eigenvalues --  -24.64343  -1.11615  -0.46851  -0.37267  -0.37267
  Beta virt. eigenvalues --   -0.08928  -0.05142   0.26048   0.38324   0.93067
  Beta virt. eigenvalues --    0.93067   1.01463   1.24335   1.34248   1.34248
  Beta virt. eigenvalues --    1.46188   1.46651   1.46651   1.71340   2.26466

 Mulliken charges and spin densities:
               1          2
     1  H    0.355905  -0.000222
     2  H    0.001891   0.997892
     3  F   -0.357796   0.002330
 Sum of Mulliken charges =   0.00000   1.00000

 Dipole moment (field-independent basis, Debye):
    X=             -2.3645    Y=             -0.0000    Z=              0.0000  Tot=              2.3645
 Quadrupole moment (field-independent basis, Debye-Ang):
   XX=             -8.9968   YY=             -7.1647   ZZ=             -7.1647
   XY=             -0.0000   XZ=              0.0000   YZ=              0.0000

  Exact polarizability:      10.737      -0.000       2.303       0.000      -0.000       2.303
 Approx polarizability:      15.641       0.000       2.253       0.000       0.000       2.253

 ******    1 imaginary frequencies (negative Signs) ******

                      1                      2                      3
                      A                      A                      A
 Frequencies --    -77.4667               436.9014              1184.5955
 Red. masses --      1.0484                 1.0632                 1.0328
 Frc consts  --      0.0037                 0.1196                 0.8539
 IR Inten    --      0.6919                66.3504               139.7690

                      4
                      A
 Frequencies --   1184.5955
 Red. masses --      1.0328
 Frc consts  --      0.8539
 IR Inten    --    139.7690

 - Thermochemistry -
 -------------------
 Temperature   298.150 Kelvin.  Pressure   1.00000 Atm.
 Atom     1 has atomic number  1 and mass   1.00783

 Molecular mass:    21.01405 amu.
 Principal axes and moments of inertia in atomic units:
                           1         2         3
     Eigenvalues --     0.00000  75.87143  75.87143
           X            1.00000  -0.00000   0.00000
           Y            0.00000   1.00000   0.00000
           Z            0.00000   0.00000   1.00000
 This molecule is a prolate symmetric top.
 Rotational symmetry number  1.
 Rotational temperature (Kelvin)      1.14159
 Rotational constant (GHZ):          23.786835
    1 imaginary frequencies ignored.
 Zero-point vibrational energy      16784.2 (Joules/Mol)
                                    4.01151 (Kcal/Mol)
 Warning -- explicit consideration of   1 degrees of freedom as
           vibrations may cause significant error
 Vibrational temperatures:    628.60  1704.37  1704.37
          (Kelvin)

 Zero-point correction=                           0.006393 (Hartree/Particle)
 Thermal correction to Energy=                    0.009064
 Thermal correction to Enthalpy=                  0.010008
 Thermal correction to Gibbs Free Energy=        -0.013946
 Sum of electronic and zero-point Energies=           -100.907098
 Sum of electronic and thermal Energies=              -100.904426
 Sum of electronic and thermal Enthalpies=            -100.903482
 Sum of electronic and thermal Free Energies=         -100.927437

                     E (Thermal)             CV                S
                      KCal/Mol        Cal/Mol-Kelvin    Cal/Mol-Kelvin
 Total                    5.688              6.788             50.416
 Electronic               0.000              0.000              1.377
 Translational            0.889              2.981             35.068
 Rotational               0.592              1.987             13.046
 Vibrational              4.207              1.820              0.925
 Vibration     1          0.797              1.390              0.836

 Normal termination of Gaussian 16 at Fri Aug 22 16:13:30 2025.
