 Gaussian 16, Revision C.01,
 Gaussian 16:  ES64L-G16RevC.01  3-Jul-2019

 -----------------------------------------
 # sp b3lyp/6-311g** Force nosymm scf=(qc)
 -----------------------------------------

 -------------------
 Title Card Required
 -------------------
 Symbolic Z-matrix:
 Charge =  0 Multiplicity = 2

                          Input orientation:
 ---------------------------------------------------------------------
 Center     Atomic      Atomic             Coordinates (Angstroms)
 Number     Number       Type             X           Y           Z
 ---------------------------------------------------------------------
      1          1           0        0.000000    0.000000    0.000000
      2          1           0       -3.650000    0.000000    0.000000
      3          9           0        3.750000    0.000000    0.000000
 ---------------------------------------------------------------------

 SCF Done:  E(UB3LYP) =  -100.758684485     a.u. after   34 cycles

 Alpha  occ. eigenvalues --  -24.75706  -1.21646  -0.54830  -0.46036  -0.46036
 Alpha  occ. eigenvalues --   -0.32272
 Alpha virt. eigenvalues --   -0.06528   0.24247   0.37543   0.86952   0.91281
 Alpha virt. eigenvalues --    0.91281   1.01330   1.25227   1.25227   1.25314
 Alpha virt. eigenvalues --    1.45738   1.45891   1.45891   2.14879   2.41633

  Beta  occ. eigenvalues --  -24.72572  -1.12635  -0.42894  -0.42894  -0.32579
  Beta virt. eigenvalues --   -0.25646  -0.06223   0.24045   0.38101   0.92776
  Beta virt. eigenvalues --    0.92776   0.96231   1.05414   1.24886   1.24886
  Beta virt. eigenvalues --    1.24956   1.46193   1.46391   1.46391   2.14933

 Mulliken charges and spin densities:
               1          2
     1  H    0.005496  -0.992373
     2  H    0.000073   0.998524
     3  F   -0.005569   0.993849
 Sum of Mulliken charges =  -0.00000   1.00000

 Dipole moment (field-independent basis, Debye):
    X=             -0.1090    Y=              0.0000    Z=              0.0000  Tot=              0.1090
 Quadrupole moment (field-independent basis, Debye-Ang):
   XX=             -7.1022   YY=             -7.6214   ZZ=             -7.6214
   XY=              0.0000   XZ=              0.0000   YZ=              0.0000

  Exact polarizability:      16.453      -0.000       2.030       0.000       0.000       2.030
 Approx polarizability:      12.200       0.000       1.936       0.000      -0.000       1.936

 ******    2 imaginary frequencies (negative Signs) ******

                      1                      2                      3
                      A                      A                      A
 Frequencies --   -190.8086               -81.4969                61.7597
 Red. masses --      1.0219                 1.0920                 1.0176
 Frc consts  --      0.0219                 0.0043                 0.0023
 IR Inten    --      3.5674                 0.6804                 0.0299

                      4
                      A
 Frequencies --     61.7598
 Red. masses --      1.0176
 Frc consts  --      0.0023
 IR Inten    --      0.0299

 - Thermochemistry -
 -------------------
 Temperature   298.150 Kelvin.  Pressure   1.00000 Atm.
 Atom     1 has atomic number  1 and mass   1.00783

 Molecular mass:    21.01405 amu.
 Principal axes and moments of inertia in atomic units:
                           1         2         3
     Eigenvalues --     0.00000 226.23384 226.23384
           X            1.00000  -0.00000   0.00000
           Y            0.00000   1.00000   0.00000
           Z            0.00000   0.00000   1.00000
 This molecule is a prolate symmetric top.
 Rotational symmetry number  1.
 Rotational temperature (Kelvin)      0.38285
 Rotational constant (GHZ):           7.977326
    2 imaginary frequencies ignored.
 Zero-point vibrational energy        738.8 (Joules/Mol)
                                    0.17658 (Kcal/Mol)
 Warning -- explicit consideration of   2 degrees of freedom as
           vibrations may cause significant error
 Vibrational temperatures:     88.86    88.86
          (Kelvin)

 Zero-point correction=                           0.000281 (Hartree/Particle)
 Thermal correction to Energy=                    0.004263
 Thermal correction to Enthalpy=                  0.005207
 Thermal correction to Gibbs Free Energy=        -0.023521
 Sum of electronic and zero-point Energies=           -100.758403
 Sum of electronic and thermal Energies=              -100.754422
 Sum of electronic and thermal Enthalpies=            -100.753478
 Sum of electronic and thermal Free Energies=         -100.782206

                     E (Thermal)             CV                S
                      KCal/Mol        Cal/Mol-Kelvin    Cal/Mol-Kelvin
 Total                    2.675              8.913             60.463
 Electronic               0.000              0.000              1.377
 Translational            0.889              2.981             35.068
 Rotational               0.592              1.987             15.217
 Vibrational              1.194              3.945              8.800
 Vibration     1          0.597              1.973              4.400
 Vibration     2          0.597              1.973              4.400

 Normal termination of Gaussian 16 at Sat Aug 23 00:28:03 2025.
