 Gaussian 16, Revision C.01,
 Gaussian 16:  ES64L-G16RevC.01  3-Jul-2019

 -----------------------------------------
 # sp b3lyp/6-311g** Force nosymm scf=(qc)
 -----------------------------------------

 -------------------
 Title Card Required
 -------------------
 Symbolic Z-matrix:
 Charge =  0 Multiplicity = 2

                          Input orientation:
 ---------------------------------------------------------------------
 Center     Atomic      Atomic             Coordinates (Angstroms)
 Number     Number       Type             X           Y           Z
 ---------------------------------------------------------------------
      1          1           0        0.000000    0.000000    0.000000
      2          1           0       -3.850000    0.000000    0.000000
      3          9           0        2.850000    0.000000    0.000000
 ---------------------------------------------------------------------

 SCF Done:  E(UB3LYP) =  -100.762092831     a.u. after   22 cycles

 Alpha  occ. eigenvalues --  -24.73489  -1.19593  -0.52607  -0.44176  -0.44176
 Alpha  occ. eigenvalues --   -0.32548
 Alpha virt. eigenvalues --   -0.08386   0.23776   0.36050   0.89744   0.92630
 Alpha virt. eigenvalues --    0.92630   1.04735   1.24951   1.24951   1.24986
 Alpha virt. eigenvalues --    1.43360   1.43360   1.44482   2.14361   2.40082

  Beta  occ. eigenvalues --  -24.70504  -1.11051  -0.41191  -0.41191  -0.34129
  Beta virt. eigenvalues --   -0.24427  -0.06101   0.23793   0.38111   0.94076
  Beta virt. eigenvalues --    0.94076   0.98112   1.08217   1.23179   1.23179
  Beta virt. eigenvalues --    1.24297   1.46423   1.46596   1.46596   2.14061

 Mulliken charges and spin densities:
               1          2
     1  H    0.049481  -0.944456
     2  H    0.000226   0.999132
     3  F   -0.049707   0.945324
 Sum of Mulliken charges =  -0.00000   1.00000

 Dipole moment (field-independent basis, Debye):
    X=             -0.7306    Y=             -0.0000    Z=              0.0000  Tot=              0.7306
 Quadrupole moment (field-independent basis, Debye-Ang):
   XX=             -8.6505   YY=             -7.5977   ZZ=             -7.5977
   XY=             -0.0000   XZ=              0.0000   YZ=              0.0000

  Exact polarizability:      31.442      -0.000       2.025       0.000       0.000       2.025
 Approx polarizability:      34.818      -0.000       1.924       0.000       0.000       1.924

 ******    2 imaginary frequencies (negative Signs) ******

                      1                      2                      3
                      A                      A                      A
 Frequencies --   -426.4855               -81.2548               153.6595
 Red. masses --      1.0544                 1.0572                 1.0220
 Frc consts  --      0.1130                 0.0041                 0.0142
 IR Inten    --     50.9840                 0.1003                 2.3646

                      4
                      A
 Frequencies --    153.6595
 Red. masses --      1.0220
 Frc consts  --      0.0142
 IR Inten    --      2.3646

 - Thermochemistry -
 -------------------
 Temperature   298.150 Kelvin.  Pressure   1.00000 Atm.
 Atom     1 has atomic number  1 and mass   1.00783

 Molecular mass:    21.01405 amu.
 Principal axes and moments of inertia in atomic units:
                           1         2         3
     Eigenvalues --     0.00000 175.05026 175.05026
           X            1.00000  -0.00000   0.00000
           Y            0.00000   1.00000   0.00000
           Z            0.00000   0.00000   1.00000
 This molecule is a prolate symmetric top.
 Rotational symmetry number  1.
 Rotational temperature (Kelvin)      0.49479
 Rotational constant (GHZ):          10.309846
    2 imaginary frequencies ignored.
 Zero-point vibrational energy       1838.2 (Joules/Mol)
                                    0.43933 (Kcal/Mol)
 Warning -- explicit consideration of   2 degrees of freedom as
           vibrations may cause significant error
 Vibrational temperatures:    221.08   221.08
          (Kelvin)

 Zero-point correction=                           0.000700 (Hartree/Particle)
 Thermal correction to Energy=                    0.004335
 Thermal correction to Enthalpy=                  0.005279
 Thermal correction to Gibbs Free Energy=        -0.021522
 Sum of electronic and zero-point Energies=           -100.761393
 Sum of electronic and thermal Energies=              -100.757758
 Sum of electronic and thermal Enthalpies=            -100.756814
 Sum of electronic and thermal Free Energies=         -100.783614

                     E (Thermal)             CV                S
                      KCal/Mol        Cal/Mol-Kelvin    Cal/Mol-Kelvin
 Total                    2.720              8.765             56.406
 Electronic               0.000              0.000              1.377
 Translational            0.889              2.981             35.068
 Rotational               0.592              1.987             14.708
 Vibrational              1.239              3.797              5.253
 Vibration     1          0.619              1.899              2.626
 Vibration     2          0.619              1.899              2.626

 Normal termination of Gaussian 16 at Fri Aug 22 18:55:17 2025.
