 Gaussian 16, Revision C.01,
 Gaussian 16:  ES64L-G16RevC.01  3-Jul-2019

 -----------------------------------------
 # sp b3lyp/6-311g** Force nosymm scf=(qc)
 -----------------------------------------

 -------------------
 Title Card Required
 -------------------
 Symbolic Z-matrix:
 Charge =  0 Multiplicity = 2

                          Input orientation:
 ---------------------------------------------------------------------
 Center     Atomic      Atomic             Coordinates (Angstroms)
 Number     Number       Type             X           Y           Z
 ---------------------------------------------------------------------
      1          1           0        0.000000    0.000000    0.000000
      2          1           0       -3.800000    0.000000    0.000000
      3          9           0        1.600000    0.000000    0.000000
 ---------------------------------------------------------------------

 SCF Done:  E(UB3LYP) =  -100.833855008     a.u. after   11 cycles

 Alpha  occ. eigenvalues --  -24.64081  -1.08361  -0.41471  -0.36026  -0.36026
 Alpha  occ. eigenvalues --   -0.33699
 Alpha virt. eigenvalues --   -0.17075   0.19693   0.26754   0.93857   0.93857
 Alpha virt. eigenvalues --    1.01087   1.07146   1.23778   1.23805   1.23805
 Alpha virt. eigenvalues --    1.27680   1.27680   1.71921   2.11774   2.15864

  Beta  occ. eigenvalues --  -24.64861  -1.10453  -0.43267  -0.36774  -0.36774
  Beta virt. eigenvalues --   -0.15591  -0.06061   0.24020   0.38608   0.94157
  Beta virt. eigenvalues --    0.94157   1.00429   1.06895   1.31899   1.31899
  Beta virt. eigenvalues --    1.46273   1.46679   1.46679   1.74004   2.19969

 Mulliken charges and spin densities:
               1          2
     1  H    0.330645   0.247164
     2  H    0.000922   0.999075
     3  F   -0.331568  -0.246239
 Sum of Mulliken charges =  -0.00000   1.00000

 Dipole moment (field-independent basis, Debye):
    X=             -2.6100    Y=              0.0000    Z=             -0.0000  Tot=              2.6100
 Quadrupole moment (field-independent basis, Debye-Ang):
   XX=            -10.2222   YY=             -7.3677   ZZ=             -7.3677
   XY=              0.0000   XZ=             -0.0000   YZ=              0.0000

  Exact polarizability:      18.936       0.000       2.147      -0.000      -0.000       2.147
 Approx polarizability:      33.969      -0.000       2.060      -0.000       0.000       2.060

 ******    2 imaginary frequencies (negative Signs) ******

                      1                      2                      3
                      A                      A                      A
 Frequencies --  -1916.1363               -41.7074               916.2312
 Red. masses --      1.0585                 1.0531                 1.0308
 Frc consts  --      2.2898                 0.0011                 0.5099
 IR Inten    --     70.9613                 0.1245               104.8373

                      4
                      A
 Frequencies --    916.2312
 Red. masses --      1.0308
 Frc consts  --      0.5099
 IR Inten    --    104.8373

 - Thermochemistry -
 -------------------
 Temperature   298.150 Kelvin.  Pressure   1.00000 Atm.
 Atom     1 has atomic number  1 and mass   1.00783

 Molecular mass:    21.01405 amu.
 Principal axes and moments of inertia in atomic units:
                           1         2         3
     Eigenvalues --     0.00000 105.70281 105.70281
           X            1.00000  -0.00000   0.00000
           Y            0.00000   1.00000   0.00000
           Z            0.00000   0.00000   1.00000
 This molecule is a prolate symmetric top.
 Rotational symmetry number  1.
 Rotational temperature (Kelvin)      0.81941
 Rotational constant (GHZ):          17.073729
    2 imaginary frequencies ignored.
 Zero-point vibrational energy      10960.6 (Joules/Mol)
                                    2.61964 (Kcal/Mol)
 Vibrational temperatures:   1318.25  1318.25
          (Kelvin)

 Zero-point correction=                           0.004175 (Hartree/Particle)
 Thermal correction to Energy=                    0.006637
 Thermal correction to Enthalpy=                  0.007581
 Thermal correction to Gibbs Free Energy=        -0.016372
 Sum of electronic and zero-point Energies=           -100.829680
 Sum of electronic and thermal Energies=              -100.827218
 Sum of electronic and thermal Enthalpies=            -100.826274
 Sum of electronic and thermal Free Energies=         -100.850227

                     E (Thermal)             CV                S
                      KCal/Mol        Cal/Mol-Kelvin    Cal/Mol-Kelvin
 Total                    4.165              5.925             50.413
 Electronic               0.000              0.000              1.377
 Translational            0.889              2.981             35.068
 Rotational               0.592              1.987             13.705
 Vibrational              2.683              0.957              0.262

 Normal termination of Gaussian 16 at Fri Aug 22 16:32:49 2025.
