 Gaussian 16, Revision C.01,
 Gaussian 16:  ES64L-G16RevC.01  3-Jul-2019

 -----------------------------------------
 # sp b3lyp/6-311g** Force nosymm scf=(qc)
 -----------------------------------------

 -------------------
 Title Card Required
 -------------------
 Symbolic Z-matrix:
 Charge =  0 Multiplicity = 2

                          Input orientation:
 ---------------------------------------------------------------------
 Center     Atomic      Atomic             Coordinates (Angstroms)
 Number     Number       Type             X           Y           Z
 ---------------------------------------------------------------------
      1          1           0        0.000000    0.000000    0.000000
      2          1           0       -2.750000    0.000000    0.000000
      3          9           0        1.950000    0.000000    0.000000
 ---------------------------------------------------------------------

 SCF Done:  E(UB3LYP) =  -100.792492661     a.u. after   13 cycles

 Alpha  occ. eigenvalues --  -24.67764  -1.14068  -0.46718  -0.39355  -0.39355
 Alpha  occ. eigenvalues --   -0.34437
 Alpha virt. eigenvalues --   -0.14045   0.23363   0.30795   0.90086   0.94941
 Alpha virt. eigenvalues --    0.94941   1.06096   1.23142   1.23142   1.24696
 Alpha virt. eigenvalues --    1.34799   1.34799   1.62930   2.14131   2.28760

  Beta  occ. eigenvalues --  -24.65482  -1.07711  -0.38145  -0.37111  -0.37111
  Beta virt. eigenvalues --   -0.20448  -0.08990   0.23955   0.35776   0.91642
  Beta virt. eigenvalues --    0.95440   0.95440   1.08486   1.22466   1.22466
  Beta virt. eigenvalues --    1.42943   1.42943   1.43009   1.57090   2.13127

 Mulliken charges and spin densities:
               1          2
     1  H    0.196981  -0.701356
     2  H    0.010667   0.984007
     3  F   -0.207648   0.717349
 Sum of Mulliken charges =   0.00000   1.00000

 Dipole moment (field-independent basis, Debye):
    X=             -2.1353    Y=              0.0000    Z=              0.0000  Tot=              2.1353
 Quadrupole moment (field-independent basis, Debye-Ang):
   XX=             -9.6832   YY=             -7.4975   ZZ=             -7.4975
   XY=             -0.0000   XZ=              0.0000   YZ=              0.0000

  Exact polarizability:      32.153      -0.000       2.067      -0.000       0.000       2.067
 Approx polarizability:      41.780      -0.000       1.957      -0.000      -0.000       1.957

 ******    2 imaginary frequencies (negative Signs) ******

                      1                      2                      3
                      A                      A                      A
 Frequencies --  -1246.9780              -294.6111               524.9649
 Red. masses --      1.0514                 1.0602                 1.0226
 Frc consts  --      0.9633                 0.0542                 0.1660
 IR Inten    --    109.8562                 6.1609                33.6744

                      4
                      A
 Frequencies --    524.9649
 Red. masses --      1.0226
 Frc consts  --      0.1660
 IR Inten    --     33.6744

 - Thermochemistry -
 -------------------
 Temperature   298.150 Kelvin.  Pressure   1.00000 Atm.
 Atom     1 has atomic number  1 and mass   1.00783

 Molecular mass:    21.01405 amu.
 Principal axes and moments of inertia in atomic units:
                           1         2         3
     Eigenvalues --     0.00000  85.55422  85.55422
           X            1.00000  -0.00000   0.00000
           Y            0.00000   1.00000   0.00000
           Z            0.00000   0.00000   1.00000
 This molecule is a prolate symmetric top.
 Rotational symmetry number  1.
 Rotational temperature (Kelvin)      1.01239
 Rotational constant (GHZ):          21.094707
    2 imaginary frequencies ignored.
 Zero-point vibrational energy       6280.0 (Joules/Mol)
                                    1.50095 (Kcal/Mol)
 Warning -- explicit consideration of   2 degrees of freedom as
           vibrations may cause significant error
 Vibrational temperatures:    755.31   755.31
          (Kelvin)

 Zero-point correction=                           0.002392 (Hartree/Particle)
 Thermal correction to Energy=                    0.005165
 Thermal correction to Enthalpy=                  0.006109
 Thermal correction to Gibbs Free Energy=        -0.018088
 Sum of electronic and zero-point Energies=           -100.790101
 Sum of electronic and thermal Energies=              -100.787328
 Sum of electronic and thermal Enthalpies=            -100.786384
 Sum of electronic and thermal Free Energies=         -100.810581

                     E (Thermal)             CV                S
                      KCal/Mol        Cal/Mol-Kelvin    Cal/Mol-Kelvin
 Total                    3.241              7.357             50.928
 Electronic               0.000              0.000              1.377
 Translational            0.889              2.981             35.068
 Rotational               0.592              1.987             13.285
 Vibrational              1.760              2.389              1.197
 Vibration     1          0.880              1.195              0.599
 Vibration     2          0.880              1.195              0.599

 Normal termination of Gaussian 16 at Fri Aug 22 16:53:56 2025.
