 Gaussian 16, Revision C.01,
 Gaussian 16:  ES64L-G16RevC.01  3-Jul-2019

 -----------------------------------------
 # sp b3lyp/6-311g** Force nosymm scf=(qc)
 -----------------------------------------

 -------------------
 Title Card Required
 -------------------
 Symbolic Z-matrix:
 Charge =  0 Multiplicity = 2

                          Input orientation:
 ---------------------------------------------------------------------
 Center     Atomic      Atomic             Coordinates (Angstroms)
 Number     Number       Type             X           Y           Z
 ---------------------------------------------------------------------
      1          1           0        0.000000    0.000000    0.000000
      2          1           0       -1.800000    0.000000    0.000000
      3          9           0        2.100000    0.000000    0.000000
 ---------------------------------------------------------------------

 SCF Done:  E(UB3LYP) =  -100.804521974     a.u. after   14 cycles

 Alpha  occ. eigenvalues --  -24.69308  -1.15632  -0.48473  -0.40659  -0.40659
 Alpha  occ. eigenvalues --   -0.36683
 Alpha virt. eigenvalues --   -0.12887   0.23639   0.31081   0.86258   0.94574
 Alpha virt. eigenvalues --    0.94574   1.03564   1.20848   1.20848   1.25661
 Alpha virt. eigenvalues --    1.34259   1.34259   1.63019   2.12643   2.35913

  Beta  occ. eigenvalues --  -24.66745  -1.08419  -0.38122  -0.38122  -0.36781
  Beta virt. eigenvalues --   -0.22480  -0.11587   0.26165   0.30695   0.89769
  Beta virt. eigenvalues --    0.95585   0.95585   1.07484   1.22368   1.22368
  Beta virt. eigenvalues --    1.31699   1.35358   1.35358   1.62941   2.13430

 Mulliken charges and spin densities:
               1          2
     1  H    0.101246  -0.592250
     2  H    0.051760   0.786084
     3  F   -0.153005   0.806166
 Sum of Mulliken charges =  -0.00000   1.00000

 Dipole moment (field-independent basis, Debye):
    X=             -2.0543    Y=             -0.0000    Z=              0.0000  Tot=              2.0543
 Quadrupole moment (field-independent basis, Debye-Ang):
   XX=             -8.2700   YY=             -7.5866   ZZ=             -7.5866
   XY=             -0.0000   XZ=              0.0000   YZ=              0.0000

  Exact polarizability:      55.417      -0.000       2.054       0.000      -0.000       2.054
 Approx polarizability:      71.065       0.000       1.978      -0.000      -0.000       1.978

 ******    2 imaginary frequencies (negative Signs) ******

                      1                      2                      3
                      A                      A                      A
 Frequencies --  -1811.5201              -538.6754               767.8157
 Red. masses --      1.0120                 1.1036                 1.0162
 Frc consts  --      1.9566                 0.1887                 0.3530
 IR Inten    --    224.1853                40.9261                 4.8171

                      4
                      A
 Frequencies --    767.8157
 Red. masses --      1.0162
 Frc consts  --      0.3530
 IR Inten    --      4.8171

 - Thermochemistry -
 -------------------
 Temperature   298.150 Kelvin.  Pressure   1.00000 Atm.
 Atom     1 has atomic number  1 and mass   1.00783

 Molecular mass:    21.01405 amu.
 Principal axes and moments of inertia in atomic units:
                           1         2         3
     Eigenvalues --     0.00000  64.39870  64.39870
           X            1.00000  -0.00000   0.00000
           Y            0.00000   1.00000   0.00000
           Z            0.00000   0.00000   1.00000
 This molecule is a prolate symmetric top.
 Rotational symmetry number  1.
 Rotational temperature (Kelvin)      1.34496
 Rotational constant (GHZ):          28.024498
    2 imaginary frequencies ignored.
 Zero-point vibrational energy       9185.1 (Joules/Mol)
                                    2.19530 (Kcal/Mol)
 Vibrational temperatures:   1104.72  1104.72
          (Kelvin)

 Zero-point correction=                           0.003498 (Hartree/Particle)
 Thermal correction to Energy=                    0.006035
 Thermal correction to Enthalpy=                  0.006979
 Thermal correction to Gibbs Free Energy=        -0.016604
 Sum of electronic and zero-point Energies=           -100.801024
 Sum of electronic and thermal Energies=              -100.798487
 Sum of electronic and thermal Enthalpies=            -100.797542
 Sum of electronic and thermal Free Energies=         -100.821126

                     E (Thermal)             CV                S
                      KCal/Mol        Cal/Mol-Kelvin    Cal/Mol-Kelvin
 Total                    3.787              6.379             49.636
 Electronic               0.000              0.000              1.377
 Translational            0.889              2.981             35.068
 Rotational               0.592              1.987             12.721
 Vibrational              2.306              1.410              0.470

 Normal termination of Gaussian 16 at Fri Aug 22 17:03:38 2025.
