 Gaussian 16, Revision C.01,
 Gaussian 16:  ES64L-G16RevC.01  3-Jul-2019

 -----------------------------------------
 # sp b3lyp/6-311g** Force nosymm scf=(qc)
 -----------------------------------------

 -------------------
 Title Card Required
 -------------------
 Symbolic Z-matrix:
 Charge =  0 Multiplicity = 2

                          Input orientation:
 ---------------------------------------------------------------------
 Center     Atomic      Atomic             Coordinates (Angstroms)
 Number     Number       Type             X           Y           Z
 ---------------------------------------------------------------------
      1          1           0        0.000000    0.000000    0.000000
      2          1           0       -2.400000    0.000000    0.000000
      3          9           0        1.600000    0.000000    0.000000
 ---------------------------------------------------------------------

 SCF Done:  E(UB3LYP) =  -100.836956172     a.u. after   13 cycles

 Alpha  occ. eigenvalues --  -24.64619  -1.10459  -0.43534  -0.36613  -0.36613
 Alpha  occ. eigenvalues --   -0.36041
 Alpha virt. eigenvalues --   -0.14153   0.23306   0.27453   0.94445   0.94445
 Alpha virt. eigenvalues --    1.00724   1.07583   1.21509   1.21509   1.25262
 Alpha virt. eigenvalues --    1.32783   1.32783   1.75175   2.12199   2.22337

  Beta  occ. eigenvalues --  -24.63629  -1.07798  -0.40941  -0.35662  -0.35662
  Beta virt. eigenvalues --   -0.17824  -0.09131   0.24643   0.34527   0.94157
  Beta virt. eigenvalues --    0.94157   1.02247   1.08286   1.27996   1.27996
  Beta virt. eigenvalues --    1.40703   1.40703   1.42727   1.73306   2.14716

 Mulliken charges and spin densities:
               1          2
     1  H    0.303355  -0.279562
     2  H    0.025271   0.967391
     3  F   -0.328625   0.312172
 Sum of Mulliken charges =   0.00000   1.00000

 Dipole moment (field-independent basis, Debye):
    X=             -2.8574    Y=              0.0000    Z=              0.0000  Tot=              2.8574
 Quadrupole moment (field-independent basis, Debye-Ang):
   XX=             -9.3843   YY=             -7.3804   ZZ=             -7.3804
   XY=              0.0000   XZ=              0.0000   YZ=              0.0000

  Exact polarizability:      29.117      -0.000       2.163       0.000       0.000       2.163
 Approx polarizability:      41.546       0.000       2.079       0.000      -0.000       2.079

 ******    2 imaginary frequencies (negative Signs) ******

                      1                      2                      3
                      A                      A                      A
 Frequencies --  -1904.4885              -346.4259               885.7969
 Red. masses --      1.0493                 1.0623                 1.0235
 Frc consts  --      2.2424                 0.0751                 0.4732
 IR Inten    --     17.3861                 8.3318                76.3525

                      4
                      A
 Frequencies --    885.7969
 Red. masses --      1.0235
 Frc consts  --      0.4732
 IR Inten    --     76.3525

 - Thermochemistry -
 -------------------
 Temperature   298.150 Kelvin.  Pressure   1.00000 Atm.
 Atom     1 has atomic number  1 and mass   1.00783

 Molecular mass:    21.01405 amu.
 Principal axes and moments of inertia in atomic units:
                           1         2         3
     Eigenvalues --     0.00000  61.38465  61.38465
           X            1.00000  -0.00000   0.00000
           Y            0.00000   1.00000   0.00000
           Z            0.00000   0.00000   1.00000
 This molecule is a prolate symmetric top.
 Rotational symmetry number  1.
 Rotational temperature (Kelvin)      1.41100
 Rotational constant (GHZ):          29.400531
    2 imaginary frequencies ignored.
 Zero-point vibrational energy      10596.5 (Joules/Mol)
                                    2.53262 (Kcal/Mol)
 Vibrational temperatures:   1274.46  1274.46
          (Kelvin)

 Zero-point correction=                           0.004036 (Hartree/Particle)
 Thermal correction to Energy=                    0.006510
 Thermal correction to Enthalpy=                  0.007455
 Thermal correction to Gibbs Free Energy=        -0.016001
 Sum of electronic and zero-point Energies=           -100.832920
 Sum of electronic and thermal Energies=              -100.830446
 Sum of electronic and thermal Enthalpies=            -100.829502
 Sum of electronic and thermal Free Energies=         -100.852957

                     E (Thermal)             CV                S
                      KCal/Mol        Cal/Mol-Kelvin    Cal/Mol-Kelvin
 Total                    4.085              6.007             49.366
 Electronic               0.000              0.000              1.377
 Translational            0.889              2.981             35.068
 Rotational               0.592              1.987             12.625
 Vibrational              2.604              1.039              0.295

 Normal termination of Gaussian 16 at Fri Aug 22 16:31:32 2025.
