 Gaussian 16, Revision C.01,
 Gaussian 16:  ES64L-G16RevC.01  3-Jul-2019

 -----------------------------------------
 # sp b3lyp/6-311g** Force nosymm scf=(qc)
 -----------------------------------------

 -------------------
 Title Card Required
 -------------------
 Symbolic Z-matrix:
 Charge =  0 Multiplicity = 2

                          Input orientation:
 ---------------------------------------------------------------------
 Center     Atomic      Atomic             Coordinates (Angstroms)
 Number     Number       Type             X           Y           Z
 ---------------------------------------------------------------------
      1          1           0        0.000000    0.000000    0.000000
      2          1           0       -0.650000    0.000000    0.000000
      3          9           0        2.700000    0.000000    0.000000
 ---------------------------------------------------------------------

 SCF Done:  E(UB3LYP) =  -100.927286639     a.u. after  179 cycles

 Alpha  occ. eigenvalues --  -24.76758  -1.22539  -0.55723  -0.47247  -0.46871
 Alpha  occ. eigenvalues --   -0.44831
 Alpha virt. eigenvalues --    0.08417   0.19683   0.51261   0.85761   0.90630
 Alpha virt. eigenvalues --    0.93731   1.09738   1.09752   1.10359   1.59790
 Alpha virt. eigenvalues --    1.85991   1.89542   1.89557   2.39067   3.64545

  Beta  occ. eigenvalues --  -24.73595  -1.13447  -0.45505  -0.43699  -0.43397
  Beta virt. eigenvalues --   -0.26337   0.08496   0.19735   0.51376   0.92127
  Beta virt. eigenvalues --    0.95211   0.95668   1.09741   1.09751   1.13877
  Beta virt. eigenvalues --    1.59799   1.86013   1.89541   1.89555   2.39078

 Mulliken charges and spin densities:
               1          2
     1  H   -0.008971  -0.002017
     2  H   -0.004435   0.000049
     3  F    0.013406   1.001968
 Sum of Mulliken charges =   0.00000   1.00000

 Dipole moment (field-independent basis, Debye):
    X=              0.1229    Y=             -0.0000    Z=             -0.0000  Tot=              0.1229
 Quadrupole moment (field-independent basis, Debye-Ang):
   XX=             -6.0024   YY=             -6.8212   ZZ=             -5.9583
   XY=              0.0000   XZ=             -0.0000   YZ=             -0.0132

  Exact polarizability:       7.545       0.000       1.919      -0.000      -0.007       2.370
 Approx polarizability:       8.222       0.000       2.001      -0.000      -0.009       2.570

 ******    2 imaginary frequencies (negative Signs) ******

                      1                      2                      3
                      A                      A                      A
 Frequencies --  -1943.4559             -1940.5574               133.4990
 Red. masses --      1.0090                 1.0090                 1.1085
 Frc consts  --      2.2453                 2.2386                 0.0116
 IR Inten    --      0.0434                 0.0444                 0.3158

                      4
                      A
 Frequencies --   5976.2255
 Red. masses --      1.0078
 Frc consts  --     21.2075
 IR Inten    --      1.2062

 - Thermochemistry -
 -------------------
 Temperature   298.150 Kelvin.  Pressure   1.00000 Atm.
 Atom     1 has atomic number  1 and mass   1.00783

 Molecular mass:    21.01405 amu.
 Principal axes and moments of inertia in atomic units:
                           1         2         3
     Eigenvalues --     0.00000  60.30880  60.30880
           X            1.00000  -0.00000   0.00000
           Y            0.00000   1.00000   0.00000
           Z            0.00000   0.00000   1.00000
 This molecule is a prolate symmetric top.
 Rotational symmetry number  1.
 Rotational temperature (Kelvin)      1.43617
 Rotational constant (GHZ):          29.925006
    2 imaginary frequencies ignored.
 Zero-point vibrational energy      36544.3 (Joules/Mol)
                                    8.73429 (Kcal/Mol)
 Warning -- explicit consideration of   1 degrees of freedom as
           vibrations may cause significant error
 Vibrational temperatures:    192.08  8598.46
          (Kelvin)

 Zero-point correction=                           0.013919 (Hartree/Particle)
 Thermal correction to Energy=                    0.016952
 Thermal correction to Enthalpy=                  0.017896
 Thermal correction to Gibbs Free Energy=        -0.006778
 Sum of electronic and zero-point Energies=           -100.913368
 Sum of electronic and thermal Energies=              -100.910335
 Sum of electronic and thermal Enthalpies=            -100.909391
 Sum of electronic and thermal Free Energies=         -100.934064

                     E (Thermal)             CV                S
                      KCal/Mol        Cal/Mol-Kelvin    Cal/Mol-Kelvin
 Total                   10.637              6.888             51.931
 Electronic               0.000              0.000              1.377
 Translational            0.889              2.981             35.068
 Rotational               0.592              1.987             12.590
 Vibrational              9.156              1.920              2.895
 Vibration     1          0.613              1.920              2.895

 Normal termination of Gaussian 16 at Fri Aug 22 18:17:47 2025.
