 Gaussian 16, Revision C.01,
 Gaussian 16:  ES64L-G16RevC.01  3-Jul-2019

 -----------------------------------------
 # sp b3lyp/6-311g** Force nosymm scf=(qc)
 -----------------------------------------

 -------------------
 Title Card Required
 -------------------
 Symbolic Z-matrix:
 Charge =  0 Multiplicity = 2

                          Input orientation:
 ---------------------------------------------------------------------
 Center     Atomic      Atomic             Coordinates (Angstroms)
 Number     Number       Type             X           Y           Z
 ---------------------------------------------------------------------
      1          1           0        0.000000    0.000000    0.000000
      2          1           0       -3.700000    0.000000    0.000000
      3          9           0        3.350000    0.000000    0.000000
 ---------------------------------------------------------------------

 SCF Done:  E(UB3LYP) =  -100.759340752     a.u. after   25 cycles

 Alpha  occ. eigenvalues --  -24.75089  -1.21074  -0.54211  -0.45516  -0.45516
 Alpha  occ. eigenvalues --   -0.32358
 Alpha virt. eigenvalues --   -0.06951   0.24106   0.36866   0.88094   0.91665
 Alpha virt. eigenvalues --    0.91665   1.02268   1.25142   1.25142   1.25213
 Alpha virt. eigenvalues --    1.45364   1.45364   1.45648   2.14727   2.41616

  Beta  occ. eigenvalues --  -24.71994  -1.12186  -0.42415  -0.42415  -0.33025
  Beta virt. eigenvalues --   -0.25326  -0.06195   0.23862   0.38093   0.93148
  Beta virt. eigenvalues --    0.93148   0.97123   1.06209   1.24373   1.24373
  Beta virt. eigenvalues --    1.24441   1.46250   1.46446   1.46446   2.14972

 Mulliken charges and spin densities:
               1          2
     1  H    0.017007  -0.979920
     2  H    0.000144   0.998718
     3  F   -0.017151   0.981202
 Sum of Mulliken charges =  -0.00000   1.00000

 Dipole moment (field-independent basis, Debye):
    X=             -0.2979    Y=              0.0000    Z=              0.0000  Tot=              0.2979
 Quadrupole moment (field-independent basis, Debye-Ang):
   XX=             -7.6557   YY=             -7.6172   ZZ=             -7.6172
   XY=              0.0000   XZ=              0.0000   YZ=             -0.0000

  Exact polarizability:      26.708       0.000       2.032       0.000      -0.000       2.032
 Approx polarizability:      22.712       0.000       1.932       0.000       0.000       1.932

 ******    2 imaginary frequencies (negative Signs) ******

                      1                      2                      3
                      A                      A                      A
 Frequencies --   -262.6607               -92.0399                81.7685
 Red. masses --      1.0422                 1.0697                 1.0192
 Frc consts  --      0.0424                 0.0053                 0.0040
 IR Inten    --     17.9086                 0.5012                 0.2662

                      4
                      A
 Frequencies --     81.7685
 Red. masses --      1.0192
 Frc consts  --      0.0040
 IR Inten    --      0.2662

 - Thermochemistry -
 -------------------
 Temperature   298.150 Kelvin.  Pressure   1.00000 Atm.
 Atom     1 has atomic number  1 and mass   1.00783

 Molecular mass:    21.01405 amu.
 Principal axes and moments of inertia in atomic units:
                           1         2         3
     Eigenvalues --     0.00000 200.60043 200.60043
           X            1.00000  -0.00000   0.00000
           Y            0.00000   1.00000   0.00000
           Z            0.00000   0.00000   1.00000
 This molecule is a prolate symmetric top.
 Rotational symmetry number  1.
 Rotational temperature (Kelvin)      0.43177
 Rotational constant (GHZ):           8.996697
    2 imaginary frequencies ignored.
 Zero-point vibrational energy        978.2 (Joules/Mol)
                                    0.23379 (Kcal/Mol)
 Warning -- explicit consideration of   2 degrees of freedom as
           vibrations may cause significant error
 Vibrational temperatures:    117.65   117.65
          (Kelvin)

 Zero-point correction=                           0.000373 (Hartree/Particle)
 Thermal correction to Energy=                    0.004273
 Thermal correction to Enthalpy=                  0.005217
 Thermal correction to Gibbs Free Energy=        -0.022872
 Sum of electronic and zero-point Energies=           -100.758968
 Sum of electronic and thermal Energies=              -100.755067
 Sum of electronic and thermal Enthalpies=            -100.754123
 Sum of electronic and thermal Free Energies=         -100.782213

                     E (Thermal)             CV                S
                      KCal/Mol        Cal/Mol-Kelvin    Cal/Mol-Kelvin
 Total                    2.682              8.891             59.120
 Electronic               0.000              0.000              1.377
 Translational            0.889              2.981             35.068
 Rotational               0.592              1.987             14.978
 Vibrational              1.200              3.923              7.696
 Vibration     1          0.600              1.962              3.848
 Vibration     2          0.600              1.962              3.848

 Normal termination of Gaussian 16 at Fri Aug 22 21:03:27 2025.
