 Gaussian 16, Revision C.01,
 Gaussian 16:  ES64L-G16RevC.01  3-Jul-2019

 -----------------------------------------
 # sp b3lyp/6-311g** Force nosymm scf=(qc)
 -----------------------------------------

 -------------------
 Title Card Required
 -------------------
 Symbolic Z-matrix:
 Charge =  0 Multiplicity = 2

                          Input orientation:
 ---------------------------------------------------------------------
 Center     Atomic      Atomic             Coordinates (Angstroms)
 Number     Number       Type             X           Y           Z
 ---------------------------------------------------------------------
      1          1           0        0.000000    0.000000    0.000000
      2          1           0       -2.150000    0.000000    0.000000
      3          9           0        0.600000    0.000000    0.000000
 ---------------------------------------------------------------------

 SCF Done:  E(UB3LYP) =  -100.687727937     a.u. after    6 cycles

 Alpha  occ. eigenvalues --  -24.62677  -1.34678  -0.61055  -0.42921  -0.42921
 Alpha  occ. eigenvalues --   -0.34839
 Alpha virt. eigenvalues --    0.10264   0.24906   0.55574   0.92179   0.92179
 Alpha virt. eigenvalues --    0.93504   1.17525   1.22688   1.22688   1.50323
 Alpha virt. eigenvalues --    1.50323   1.54121   1.95670   2.17907   3.36698

  Beta  occ. eigenvalues --  -24.62659  -1.34622  -0.60989  -0.42911  -0.42911
  Beta virt. eigenvalues --   -0.09247   0.11702   0.36742   0.55852   0.92166
  Beta virt. eigenvalues --    0.92166   0.93639   1.28695   1.43598   1.43598
  Beta virt. eigenvalues --    1.50355   1.50355   1.63665   1.98500   2.44723

 Mulliken charges and spin densities:
               1          2
     1  H    0.225108   0.007522
     2  H    0.007596   0.989222
     3  F   -0.232704   0.003256
 Sum of Mulliken charges =   0.00000   1.00000

 Dipole moment (field-independent basis, Debye):
    X=             -1.5031    Y=             -0.0000    Z=             -0.0000  Tot=              1.5031
 Quadrupole moment (field-independent basis, Debye-Ang):
   XX=             -6.7555   YY=             -6.5318   ZZ=             -6.5318
   XY=             -0.0000   XZ=             -0.0000   YZ=              0.0000

  Exact polarizability:       5.486       0.000       2.476       0.000       0.000       2.476
 Approx polarizability:       5.382       0.000       2.465       0.000       0.000       2.465

 ******    2 imaginary frequencies (negative Signs) ******

                      1                      2                      3
                      A                      A                      A
 Frequencies --  -5813.3794             -5813.3794               280.9873
 Red. masses --      1.0373                 1.0373                 1.0533
 Frc consts  --     20.6547                20.6547                 0.0490
 IR Inten    --    211.2452               211.2452                 0.0812

                      4
                      A
 Frequencies --  13070.3643
 Red. masses --      1.0583
 Frc consts  --    106.5201
 IR Inten    --    114.8923

 - Thermochemistry -
 -------------------
 Temperature   298.150 Kelvin.  Pressure   1.00000 Atm.
 Atom     1 has atomic number  1 and mass   1.00783

 Molecular mass:    21.01405 amu.
 Principal axes and moments of inertia in atomic units:
                           1         2         3
     Eigenvalues --     0.00000  26.57606  26.57606
           X            1.00000  -0.00000   0.00000
           Y            0.00000   1.00000   0.00000
           Z            0.00000   0.00000   1.00000
 This molecule is a prolate symmetric top.
 Rotational symmetry number  1.
 Rotational temperature (Kelvin)      3.25910
 Rotational constant (GHZ):          67.908521
    2 imaginary frequencies ignored.
 Zero-point vibrational energy      79858.8 (Joules/Mol)
                                   19.08672 (Kcal/Mol)
 Warning -- explicit consideration of   1 degrees of freedom as
           vibrations may cause significant error
 Vibrational temperatures:    404.28 18805.34
          (Kelvin)

 Zero-point correction=                           0.030417 (Hartree/Particle)
 Thermal correction to Energy=                    0.033222
 Thermal correction to Enthalpy=                  0.034166
 Thermal correction to Gibbs Free Energy=         0.010915
 Sum of electronic and zero-point Energies=           -100.657311
 Sum of electronic and thermal Energies=              -100.654506
 Sum of electronic and thermal Enthalpies=            -100.653562
 Sum of electronic and thermal Free Energies=         -100.676813

                     E (Thermal)             CV                S
                      KCal/Mol        Cal/Mol-Kelvin    Cal/Mol-Kelvin
 Total                   20.847              6.677             48.935
 Electronic               0.000              0.000              1.377
 Translational            0.889              2.981             35.068
 Rotational               0.592              1.987             10.962
 Vibrational             19.366              1.709              1.528
 Vibration     1          0.681              1.709              1.528

 Normal termination of Gaussian 16 at Fri Aug 22 15:41:48 2025.
