 Gaussian 16, Revision C.01,
 Gaussian 16:  ES64L-G16RevC.01  3-Jul-2019

 -----------------------------------------
 # sp b3lyp/6-311g** Force nosymm scf=(qc)
 -----------------------------------------

 -------------------
 Title Card Required
 -------------------
 Symbolic Z-matrix:
 Charge =  0 Multiplicity = 2

                          Input orientation:
 ---------------------------------------------------------------------
 Center     Atomic      Atomic             Coordinates (Angstroms)
 Number     Number       Type             X           Y           Z
 ---------------------------------------------------------------------
      1          1           0        0.000000    0.000000    0.000000
      2          1           0       -3.700000    0.000000    0.000000
      3          9           0        1.250000    0.000000    0.000000
 ---------------------------------------------------------------------

 SCF Done:  E(UB3LYP) =  -100.913425680     a.u. after    6 cycles

 Alpha  occ. eigenvalues --  -24.64371  -1.11649  -0.46883  -0.37291  -0.37291
 Alpha  occ. eigenvalues --   -0.33704
 Alpha virt. eigenvalues --   -0.07380   0.21740   0.28714   0.93050   0.93050
 Alpha virt. eigenvalues --    1.01433   1.23662   1.23807   1.23807   1.24144
 Alpha virt. eigenvalues --    1.34241   1.34241   1.71009   2.13548   2.26590

  Beta  occ. eigenvalues --  -24.64368  -1.11641  -0.46875  -0.37288  -0.37288
  Beta virt. eigenvalues --   -0.08197  -0.05252   0.25753   0.38671   0.93049
  Beta virt. eigenvalues --    0.93049   1.01442   1.24044   1.34233   1.34233
  Beta virt. eigenvalues --    1.47430   1.47430   1.47625   1.71033   2.25988

 Mulliken charges and spin densities:
               1          2
     1  H    0.356755  -0.000129
     2  H    0.000846   0.999084
     3  F   -0.357601   0.001046
 Sum of Mulliken charges =   0.00000   1.00000

 Dipole moment (field-independent basis, Debye):
    X=             -2.3474    Y=              0.0000    Z=             -0.0000  Tot=              2.3474
 Quadrupole moment (field-independent basis, Debye-Ang):
   XX=             -9.0615   YY=             -7.1645   ZZ=             -7.1645
   XY=              0.0000   XZ=              0.0000   YZ=              0.0000

  Exact polarizability:      10.168       0.000       2.301      -0.000      -0.000       2.301
 Approx polarizability:      15.145      -0.000       2.250       0.000      -0.000       2.250

 ******    1 imaginary frequencies (negative Signs) ******

                      1                      2                      3
                      A                      A                      A
 Frequencies --    -49.4664               448.2078              1190.3895
 Red. masses --      1.0514                 1.0602                 1.0344
 Frc consts  --      0.0015                 0.1255                 0.8636
 IR Inten    --      0.1423                60.7492               142.2882

                      4
                      A
 Frequencies --   1190.3895
 Red. masses --      1.0344
 Frc consts  --      0.8636
 IR Inten    --    142.2882

 - Thermochemistry -
 -------------------
 Temperature   298.150 Kelvin.  Pressure   1.00000 Atm.
 Atom     1 has atomic number  1 and mass   1.00783

 Molecular mass:    21.01405 amu.
 Principal axes and moments of inertia in atomic units:
                           1         2         3
     Eigenvalues --     0.00000  87.17315  87.17315
           X            1.00000  -0.00000   0.00000
           Y            0.00000   1.00000   0.00000
           Z            0.00000   0.00000   1.00000
 This molecule is a prolate symmetric top.
 Rotational symmetry number  1.
 Rotational temperature (Kelvin)      0.99358
 Rotational constant (GHZ):          20.702949
    1 imaginary frequencies ignored.
 Zero-point vibrational energy      16921.1 (Joules/Mol)
                                    4.04424 (Kcal/Mol)
 Warning -- explicit consideration of   1 degrees of freedom as
           vibrations may cause significant error
 Vibrational temperatures:    644.87  1712.70  1712.70
          (Kelvin)

 Zero-point correction=                           0.006445 (Hartree/Particle)
 Thermal correction to Energy=                    0.009106
 Thermal correction to Enthalpy=                  0.010050
 Thermal correction to Gibbs Free Energy=        -0.014018
 Sum of electronic and zero-point Energies=           -100.906981
 Sum of electronic and thermal Energies=              -100.904320
 Sum of electronic and thermal Enthalpies=            -100.903376
 Sum of electronic and thermal Free Energies=         -100.927444

                     E (Thermal)             CV                S
                      KCal/Mol        Cal/Mol-Kelvin    Cal/Mol-Kelvin
 Total                    5.714              6.755             50.655
 Electronic               0.000              0.000              1.377
 Translational            0.889              2.981             35.068
 Rotational               0.592              1.987             13.322
 Vibrational              4.233              1.787              0.887
 Vibration     1          0.807              1.365              0.801

 Normal termination of Gaussian 16 at Fri Aug 22 16:13:44 2025.
