 Gaussian 16, Revision C.01,
 Gaussian 16:  ES64L-G16RevC.01  3-Jul-2019

 -----------------------------------------
 # sp b3lyp/6-311g** Force nosymm scf=(qc)
 -----------------------------------------

 -------------------
 Title Card Required
 -------------------
 Symbolic Z-matrix:
 Charge =  0 Multiplicity = 2

                          Input orientation:
 ---------------------------------------------------------------------
 Center     Atomic      Atomic             Coordinates (Angstroms)
 Number     Number       Type             X           Y           Z
 ---------------------------------------------------------------------
      1          1           0        0.000000    0.000000    0.000000
      2          1           0       -4.000000    0.000000    0.000000
      3          9           0        3.650000    0.000000    0.000000
 ---------------------------------------------------------------------

 SCF Done:  E(UB3LYP) =  -100.758636417     a.u. after   25 cycles

 Alpha  occ. eigenvalues --  -24.75595  -1.21542  -0.54718  -0.45942  -0.45942
 Alpha  occ. eigenvalues --   -0.32261
 Alpha virt. eigenvalues --   -0.05752   0.24176   0.37693   0.87170   0.91351
 Alpha virt. eigenvalues --    0.91351   1.01488   1.25233   1.25233   1.25253
 Alpha virt. eigenvalues --    1.47333   1.47333   1.48174   2.14552   2.43085

  Beta  occ. eigenvalues --  -24.72467  -1.12553  -0.42807  -0.42807  -0.32648
  Beta virt. eigenvalues --   -0.25588  -0.05796   0.23904   0.38205   0.92845
  Beta virt. eigenvalues --    0.92845   0.96399   1.05545   1.24798   1.24798
  Beta virt. eigenvalues --    1.24801   1.46738   1.46819   1.46819   2.14627

 Mulliken charges and spin densities:
               1          2
     1  H    0.007571  -0.991007
     2  H    0.000034   0.999376
     3  F   -0.007604   0.991631
 Sum of Mulliken charges =  -0.00000   1.00000

 Dipole moment (field-independent basis, Debye):
    X=             -0.1436    Y=             -0.0000    Z=              0.0000  Tot=              0.1436
 Quadrupole moment (field-independent basis, Debye-Ang):
   XX=             -7.2301   YY=             -7.6180   ZZ=             -7.6180
   XY=             -0.0000   XZ=              0.0000   YZ=             -0.0000

  Exact polarizability:      18.705       0.000       1.965      -0.000       0.000       1.965
 Approx polarizability:      14.124      -0.000       1.936       0.000       0.000       1.936

 ******    2 imaginary frequencies (negative Signs) ******

                      1                      2                      3
                      A                      A                      A
 Frequencies --   -182.6517               -65.3400                99.4851
 Red. masses --      1.0414                 1.0706                 1.0191
 Frc consts  --      0.0205                 0.0027                 0.0059
 IR Inten    --      6.3559                 0.1950                 0.1365

                      4
                      A
 Frequencies --     99.5035
 Red. masses --      1.0191
 Frc consts  --      0.0059
 IR Inten    --      0.1366

 - Thermochemistry -
 -------------------
 Temperature   298.150 Kelvin.  Pressure   1.00000 Atm.
 Atom     1 has atomic number  1 and mass   1.00783

 Molecular mass:    21.01405 amu.
 Principal axes and moments of inertia in atomic units:
                           1         2         3
     Eigenvalues --     0.00000 236.53059 236.53059
           X            1.00000  -0.00000   0.00000
           Y            0.00000   1.00000   0.00000
           Z            0.00000   0.00000   1.00000
 This molecule is a prolate symmetric top.
 Rotational symmetry number  1.
 Rotational temperature (Kelvin)      0.36618
 Rotational constant (GHZ):           7.630054
    2 imaginary frequencies ignored.
 Zero-point vibrational energy       1190.2 (Joules/Mol)
                                    0.28447 (Kcal/Mol)
 Warning -- explicit consideration of   2 degrees of freedom as
           vibrations may cause significant error
 Vibrational temperatures:    143.14   143.16
          (Kelvin)

 Zero-point correction=                           0.000453 (Hartree/Particle)
 Thermal correction to Energy=                    0.004285
 Thermal correction to Enthalpy=                  0.005229
 Thermal correction to Gibbs Free Energy=        -0.022651
 Sum of electronic and zero-point Energies=           -100.758183
 Sum of electronic and thermal Energies=              -100.754351
 Sum of electronic and thermal Enthalpies=            -100.753407
 Sum of electronic and thermal Free Energies=         -100.781288

                     E (Thermal)             CV                S
                      KCal/Mol        Cal/Mol-Kelvin    Cal/Mol-Kelvin
 Total                    2.689              8.867             58.680
 Electronic               0.000              0.000              1.377
 Translational            0.889              2.981             35.068
 Rotational               0.592              1.987             15.306
 Vibrational              1.208              3.899              6.928
 Vibration     1          0.604              1.949              3.464
 Vibration     2          0.604              1.949              3.464

 Normal termination of Gaussian 16 at Fri Aug 22 23:38:52 2025.
