 Gaussian 16, Revision C.01,
 Gaussian 16:  ES64L-G16RevC.01  3-Jul-2019

 -----------------------------------------
 # sp b3lyp/6-311g** Force nosymm scf=(qc)
 -----------------------------------------

 -------------------
 Title Card Required
 -------------------
 Symbolic Z-matrix:
 Charge =  0 Multiplicity = 2

                          Input orientation:
 ---------------------------------------------------------------------
 Center     Atomic      Atomic             Coordinates (Angstroms)
 Number     Number       Type             X           Y           Z
 ---------------------------------------------------------------------
      1          1           0        0.000000    0.000000    0.000000
      2          1           0       -1.100000    0.000000    0.000000
      3          9           0        1.750000    0.000000    0.000000
 ---------------------------------------------------------------------

 SCF Done:  E(UB3LYP) =  -100.900733578     a.u. after   13 cycles

 Alpha  occ. eigenvalues --  -24.70756  -1.17274  -0.51637  -0.42083  -0.42083
 Alpha  occ. eigenvalues --   -0.40604
 Alpha virt. eigenvalues --   -0.01149   0.20853   0.34001   0.91331   0.91331
 Alpha virt. eigenvalues --    0.94295   1.08392   1.08392   1.08456   1.53247
 Alpha virt. eigenvalues --    1.57291   1.57291   2.16408   2.29197   2.55346

  Beta  occ. eigenvalues --  -24.68154  -1.10003  -0.41244  -0.39520  -0.39520
  Beta virt. eigenvalues --   -0.24268   0.00957   0.22151   0.34883   0.92360
  Beta virt. eigenvalues --    0.92360   1.01005   1.10510   1.10510   1.11115
  Beta virt. eigenvalues --    1.56747   1.58544   1.58544   2.18607   2.31723

 Mulliken charges and spin densities:
               1          2
     1  H    0.087829  -0.116484
     2  H    0.055963   0.308073
     3  F   -0.143791   0.808412
 Sum of Mulliken charges =  -0.00000   1.00000

 Dipole moment (field-independent basis, Debye):
    X=             -1.5046    Y=             -0.0000    Z=             -0.0000  Tot=              1.5046
 Quadrupole moment (field-independent basis, Debye-Ang):
   XX=             -7.1368   YY=             -7.2118   ZZ=             -7.2118
   XY=             -0.0000   XZ=             -0.0000   YZ=             -0.0000

  Exact polarizability:      34.914      -0.000       2.259      -0.000      -0.000       2.259
 Approx polarizability:      51.127       0.000       2.251       0.000       0.000       2.251

 ******    1 imaginary frequencies (negative Signs) ******

                      1                      2                      3
                      A                      A                      A
 Frequencies --  -1500.5505               553.2705              1370.3903
 Red. masses --      1.0339                 1.0786                 1.0133
 Frc consts  --      1.3716                 0.1945                 1.1212
 IR Inten    --   1073.5830                71.8859                 0.9193

                      4
                      A
 Frequencies --   1370.3903
 Red. masses --      1.0133
 Frc consts  --      1.1212
 IR Inten    --      0.9193

 - Thermochemistry -
 -------------------
 Temperature   298.150 Kelvin.  Pressure   1.00000 Atm.
 Atom     1 has atomic number  1 and mass   1.00783

 Molecular mass:    21.01405 amu.
 Principal axes and moments of inertia in atomic units:
                           1         2         3
     Eigenvalues --     0.00000  36.60255  36.60255
           X            1.00000  -0.00000   0.00000
           Y            0.00000   1.00000   0.00000
           Z            0.00000   0.00000   1.00000
 This molecule is a prolate symmetric top.
 Rotational symmetry number  1.
 Rotational temperature (Kelvin)      2.36634
 Rotational constant (GHZ):          49.306436
    1 imaginary frequencies ignored.
 Zero-point vibrational energy      19702.8 (Joules/Mol)
                                    4.70908 (Kcal/Mol)
 Warning -- explicit consideration of   1 degrees of freedom as
           vibrations may cause significant error
 Vibrational temperatures:    796.03  1971.69  1971.69
          (Kelvin)

 Zero-point correction=                           0.007504 (Hartree/Particle)
 Thermal correction to Energy=                    0.010069
 Thermal correction to Enthalpy=                  0.011013
 Thermal correction to Gibbs Free Energy=        -0.012088
 Sum of electronic and zero-point Energies=           -100.893229
 Sum of electronic and thermal Energies=              -100.890664
 Sum of electronic and thermal Enthalpies=            -100.889720
 Sum of electronic and thermal Free Energies=         -100.912822

                     E (Thermal)             CV                S
                      KCal/Mol        Cal/Mol-Kelvin    Cal/Mol-Kelvin
 Total                    6.319              6.335             48.621
 Electronic               0.000              0.000              1.377
 Translational            0.889              2.981             35.068
 Rotational               0.592              1.987             11.598
 Vibrational              4.837              1.367              0.578
 Vibration     1          0.909              1.133              0.537

 Normal termination of Gaussian 16 at Fri Aug 22 16:39:37 2025.
