 Gaussian 16, Revision C.01,
 Gaussian 16:  ES64L-G16RevC.01  3-Jul-2019

 -----------------------------------------
 # sp b3lyp/6-311g** Force nosymm scf=(qc)
 -----------------------------------------

 -------------------
 Title Card Required
 -------------------
 Symbolic Z-matrix:
 Charge =  0 Multiplicity = 2

                          Input orientation:
 ---------------------------------------------------------------------
 Center     Atomic      Atomic             Coordinates (Angstroms)
 Number     Number       Type             X           Y           Z
 ---------------------------------------------------------------------
      1          1           0        0.000000    0.000000    0.000000
      2          1           0       -3.650000    0.000000    0.000000
      3          9           0        1.100000    0.000000    0.000000
 ---------------------------------------------------------------------

 SCF Done:  E(UB3LYP) =  -100.948420501     a.u. after    6 cycles

 Alpha  occ. eigenvalues --  -24.64298  -1.13869  -0.49613  -0.38104  -0.38104
 Alpha  occ. eigenvalues --   -0.33654
 Alpha virt. eigenvalues --   -0.02493   0.22995   0.31287   0.93567   0.93567
 Alpha virt. eigenvalues --    0.99600   1.23795   1.23858   1.23858   1.28541
 Alpha virt. eigenvalues --    1.35212   1.35212   1.79494   2.13877   2.31760

  Beta  occ. eigenvalues --  -24.64296  -1.13864  -0.49608  -0.38102  -0.38102
  Beta virt. eigenvalues --   -0.06151  -0.01795   0.29439   0.39233   0.93567
  Beta virt. eigenvalues --    0.93567   0.99605   1.28500   1.35209   1.35209
  Beta virt. eigenvalues --    1.49407   1.49407   1.49493   1.79517   2.31334

 Mulliken charges and spin densities:
               1          2
     1  H    0.340405   0.000278
     2  H    0.000803   0.999102
     3  F   -0.341208   0.000620
 Sum of Mulliken charges =   0.00000   1.00000

 Dipole moment (field-independent basis, Debye):
    X=             -2.1669    Y=              0.0000    Z=             -0.0000  Tot=              2.1669
 Quadrupole moment (field-independent basis, Debye-Ang):
   XX=             -8.5618   YY=             -7.0486   ZZ=             -7.0486
   XY=              0.0000   XZ=             -0.0000   YZ=             -0.0000

  Exact polarizability:       7.867       0.000       2.363      -0.000      -0.000       2.363
 Approx polarizability:      10.364       0.000       2.327      -0.000      -0.000       2.327

 ******    1 imaginary frequencies (negative Signs) ******

                      1                      2                      3
                      A                      A                      A
 Frequencies --    -47.2273              1186.6182              1186.6182
 Red. masses --      1.0532                 1.0362                 1.0362
 Frc consts  --      0.0014                 0.8596                 0.8596
 IR Inten    --      0.0454               158.0573               158.0573

                      4
                      A
 Frequencies --   1940.5911
 Red. masses --      1.0584
 Frc consts  --      2.3484
 IR Inten    --     76.7878

 - Thermochemistry -
 -------------------
 Temperature   298.150 Kelvin.  Pressure   1.00000 Atm.
 Atom     1 has atomic number  1 and mass   1.00783

 Molecular mass:    21.01405 amu.
 Principal axes and moments of inertia in atomic units:
                           1         2         3
     Eigenvalues --     0.00000  79.65039  79.65039
           X            1.00000  -0.00000   0.00000
           Y            0.00000   1.00000   0.00000
           Z            0.00000   0.00000   1.00000
 This molecule is a prolate symmetric top.
 Rotational symmetry number  1.
 Rotational temperature (Kelvin)      1.08743
 Rotational constant (GHZ):          22.658284
    1 imaginary frequencies ignored.
 Zero-point vibrational energy      25802.4 (Joules/Mol)
                                    6.16693 (Kcal/Mol)
 Vibrational temperatures:   1707.28  1707.28  2792.08
          (Kelvin)

 Zero-point correction=                           0.009828 (Hartree/Particle)
 Thermal correction to Energy=                    0.012224
 Thermal correction to Enthalpy=                  0.013168
 Thermal correction to Gibbs Free Energy=        -0.010435
 Sum of electronic and zero-point Energies=           -100.938593
 Sum of electronic and thermal Energies=              -100.936196
 Sum of electronic and thermal Enthalpies=            -100.935252
 Sum of electronic and thermal Free Energies=         -100.958856

                     E (Thermal)             CV                S
                      KCal/Mol        Cal/Mol-Kelvin    Cal/Mol-Kelvin
 Total                    7.671              5.410             49.678
 Electronic               0.000              0.000              1.377
 Translational            0.889              2.981             35.068
 Rotational               0.592              1.987             13.143
 Vibrational              6.190              0.442              0.089

 Normal termination of Gaussian 16 at Fri Aug 22 16:06:25 2025.
