 Gaussian 16, Revision C.01,
 Gaussian 16:  ES64L-G16RevC.01  3-Jul-2019

 -----------------------------------------
 # sp b3lyp/6-311g** Force nosymm scf=(qc)
 -----------------------------------------

 -------------------
 Title Card Required
 -------------------
 Symbolic Z-matrix:
 Charge =  0 Multiplicity = 2

                          Input orientation:
 ---------------------------------------------------------------------
 Center     Atomic      Atomic             Coordinates (Angstroms)
 Number     Number       Type             X           Y           Z
 ---------------------------------------------------------------------
      1          1           0        0.000000    0.000000    0.000000
      2          1           0       -1.500000    0.000000    0.000000
      3          9           0        0.750000    0.000000    0.000000
 ---------------------------------------------------------------------

 SCF Done:  E(UB3LYP) =  -100.917251010     a.u. after    6 cycles

 Alpha  occ. eigenvalues --  -24.63346  -1.25595  -0.58264  -0.41150  -0.41150
 Alpha  occ. eigenvalues --   -0.36192
 Alpha virt. eigenvalues --    0.12877   0.21567   0.49199   0.93667   0.93667
 Alpha virt. eigenvalues --    0.96137   1.17034   1.17034   1.31465   1.46273
 Alpha virt. eigenvalues --    1.46273   1.56610   2.04601   2.16684   2.95948

  Beta  occ. eigenvalues --  -24.63203  -1.25201  -0.57382  -0.41036  -0.41036
  Beta virt. eigenvalues --   -0.12966   0.14259   0.29274   0.53212   0.93828
  Beta virt. eigenvalues --    0.93828   0.96451   1.29719   1.29719   1.37839
  Beta virt. eigenvalues --    1.51164   1.51164   1.63904   2.05683   2.36970

 Mulliken charges and spin densities:
               1          2
     1  H    0.250566   0.012785
     2  H    0.015847   0.961027
     3  F   -0.266413   0.026189
 Sum of Mulliken charges =   0.00000   1.00000

 Dipole moment (field-independent basis, Debye):
    X=             -1.7475    Y=              0.0000    Z=              0.0000  Tot=              1.7475
 Quadrupole moment (field-independent basis, Debye-Ang):
   XX=             -7.1820   YY=             -6.6198   ZZ=             -6.6198
   XY=              0.0000   XZ=              0.0000   YZ=             -0.0000

  Exact polarizability:       7.991      -0.000       2.543       0.000      -0.000       2.543
 Approx polarizability:       7.885       0.000       2.553      -0.000      -0.000       2.553

 ******    2 imaginary frequencies (negative Signs) ******

                      1                      2                      3
                      A                      A                      A
 Frequencies --  -2652.3113             -2652.3113               776.2651
 Red. masses --      1.0281                 1.0281                 1.0534
 Frc consts  --      4.2610                 4.2610                 0.3740
 IR Inten    --    141.7883               141.7883                 2.4320

                      4
                      A
 Frequencies --   7549.6015
 Red. masses --      1.0581
 Frc consts  --     35.5339
 IR Inten    --    162.1262

 - Thermochemistry -
 -------------------
 Temperature   298.150 Kelvin.  Pressure   1.00000 Atm.
 Atom     1 has atomic number  1 and mass   1.00783

 Molecular mass:    21.01405 amu.
 Principal axes and moments of inertia in atomic units:
                           1         2         3
     Eigenvalues --     0.00000  18.69096  18.69096
           X            1.00000  -0.00000   0.00000
           Y            0.00000   1.00000   0.00000
           Z            0.00000   0.00000   1.00000
 This molecule is a prolate symmetric top.
 Rotational symmetry number  1.
 Rotational temperature (Kelvin)      4.63400
 Rotational constant (GHZ):          96.556898
    2 imaginary frequencies ignored.
 Zero-point vibrational energy      49799.7 (Joules/Mol)
                                   11.90242 (Kcal/Mol)
 Vibrational temperatures:   1116.87 10862.19
          (Kelvin)

 Zero-point correction=                           0.018968 (Hartree/Particle)
 Thermal correction to Energy=                    0.021414
 Thermal correction to Enthalpy=                  0.022358
 Thermal correction to Gibbs Free Energy=         0.000057
 Sum of electronic and zero-point Energies=           -100.898283
 Sum of electronic and thermal Energies=              -100.895837
 Sum of electronic and thermal Enthalpies=            -100.894893
 Sum of electronic and thermal Free Energies=         -100.917194

                     E (Thermal)             CV                S
                      KCal/Mol        Cal/Mol-Kelvin    Cal/Mol-Kelvin
 Total                   13.437              5.659             46.935
 Electronic               0.000              0.000              1.377
 Translational            0.889              2.981             35.068
 Rotational               0.592              1.987             10.262
 Vibrational             11.956              0.691              0.228

 Normal termination of Gaussian 16 at Fri Aug 22 15:48:24 2025.
