 Gaussian 16, Revision C.01,
 Gaussian 16:  ES64L-G16RevC.01  3-Jul-2019

 -----------------------------------------
 # sp b3lyp/6-311g** Force nosymm scf=(qc)
 -----------------------------------------

 -------------------
 Title Card Required
 -------------------
 Symbolic Z-matrix:
 Charge =  0 Multiplicity = 2

                          Input orientation:
 ---------------------------------------------------------------------
 Center     Atomic      Atomic             Coordinates (Angstroms)
 Number     Number       Type             X           Y           Z
 ---------------------------------------------------------------------
      1          1           0        0.000000    0.000000    0.000000
      2          1           0       -2.150000    0.000000    0.000000
      3          9           0        3.650000    0.000000    0.000000
 ---------------------------------------------------------------------

 SCF Done:  E(UB3LYP) =  -100.769086902     a.u. after   30 cycles

 Alpha  occ. eigenvalues --  -24.75720  -1.21660  -0.54844  -0.46052  -0.46052
 Alpha  occ. eigenvalues --   -0.32870
 Alpha virt. eigenvalues --   -0.10524   0.25948   0.33180   0.87157   0.91262
 Alpha virt. eigenvalues --    0.91262   1.01415   1.22259   1.25016   1.25016
 Alpha virt. eigenvalues --    1.39029   1.39029   1.46531   2.13775   2.35540

  Beta  occ. eigenvalues --  -24.72589  -1.12656  -0.42912  -0.42912  -0.32985
  Beta virt. eigenvalues --   -0.25684  -0.10276   0.25797   0.33585   0.92756
  Beta virt. eigenvalues --    0.92756   0.96420   1.05501   1.22169   1.24878
  Beta virt. eigenvalues --    1.24878   1.39383   1.39383   1.46807   2.14178

 Mulliken charges and spin densities:
               1          2
     1  H    0.002520  -0.904856
     2  H    0.003511   0.911827
     3  F   -0.006031   0.993029
 Sum of Mulliken charges =   0.00000   1.00000

 Dipole moment (field-independent basis, Debye):
    X=             -0.1486    Y=             -0.0000    Z=              0.0000  Tot=              0.1486
 Quadrupole moment (field-independent basis, Debye-Ang):
   XX=             -6.6425   YY=             -7.7061   ZZ=             -7.7061
   XY=             -0.0000   XZ=              0.0000   YZ=              0.0000

  Exact polarizability:      35.442       0.000       2.009      -0.000       0.000       2.009
 Approx polarizability:      28.805      -0.000       1.932       0.000      -0.000       1.932

 ******    2 imaginary frequencies (negative Signs) ******

                      1                      2                      3
                      A                      A                      A
 Frequencies --  -1098.6787              -113.6463               430.1846
 Red. masses --      1.0078                 1.1085                 1.0128
 Frc consts  --      0.7168                 0.0084                 0.1104
 IR Inten    --      3.9219                 3.6109                 0.0013

                      4
                      A
 Frequencies --    430.1846
 Red. masses --      1.0128
 Frc consts  --      0.1104
 IR Inten    --      0.0013

 - Thermochemistry -
 -------------------
 Temperature   298.150 Kelvin.  Pressure   1.00000 Atm.
 Atom     1 has atomic number  1 and mass   1.00783

 Molecular mass:    21.01405 amu.
 Principal axes and moments of inertia in atomic units:
                           1         2         3
     Eigenvalues --     0.00000 153.60421 153.60421
           X            1.00000  -0.00000   0.00000
           Y            0.00000   1.00000   0.00000
           Z            0.00000   0.00000   1.00000
 This molecule is a prolate symmetric top.
 Rotational symmetry number  1.
 Rotational temperature (Kelvin)      0.56388
 Rotational constant (GHZ):          11.749295
    2 imaginary frequencies ignored.
 Zero-point vibrational energy       5146.2 (Joules/Mol)
                                    1.22996 (Kcal/Mol)
 Warning -- explicit consideration of   2 degrees of freedom as
           vibrations may cause significant error
 Vibrational temperatures:    618.94   618.94
          (Kelvin)

 Zero-point correction=                           0.001960 (Hartree/Particle)
 Thermal correction to Energy=                    0.004883
 Thermal correction to Enthalpy=                  0.005827
 Thermal correction to Gibbs Free Energy=        -0.019170
 Sum of electronic and zero-point Energies=           -100.767127
 Sum of electronic and thermal Energies=              -100.764204
 Sum of electronic and thermal Enthalpies=            -100.763260
 Sum of electronic and thermal Free Energies=         -100.788256

                     E (Thermal)             CV                S
                      KCal/Mol        Cal/Mol-Kelvin    Cal/Mol-Kelvin
 Total                    3.064              7.777             52.610
 Electronic               0.000              0.000              1.377
 Translational            0.889              2.981             35.068
 Rotational               0.592              1.987             14.448
 Vibrational              1.583              2.809              1.716
 Vibration     1          0.791              1.405              0.858
 Vibration     2          0.791              1.405              0.858

 Normal termination of Gaussian 16 at Fri Aug 22 23:36:00 2025.
