 Gaussian 16, Revision C.01,
 Gaussian 16:  ES64L-G16RevC.01  3-Jul-2019

 -----------------------------------------
 # sp b3lyp/6-311g** Force nosymm scf=(qc)
 -----------------------------------------

 -------------------
 Title Card Required
 -------------------
 Symbolic Z-matrix:
 Charge =  0 Multiplicity = 2

                          Input orientation:
 ---------------------------------------------------------------------
 Center     Atomic      Atomic             Coordinates (Angstroms)
 Number     Number       Type             X           Y           Z
 ---------------------------------------------------------------------
      1          1           0        0.000000    0.000000    0.000000
      2          1           0       -0.600000    0.000000    0.000000
      3          9           0        1.200000    0.000000    0.000000
 ---------------------------------------------------------------------

 SCF Done:  E(UB3LYP) =  -100.903653231     a.u. after    7 cycles

 Alpha  occ. eigenvalues --  -24.69082  -1.18599  -0.62643  -0.42011  -0.42011
 Alpha  occ. eigenvalues --   -0.39230
 Alpha virt. eigenvalues --    0.12588   0.18902   0.56302   0.87294   0.87294
 Alpha virt. eigenvalues --    0.95389   1.12021   1.12021   1.50030   1.62410
 Alpha virt. eigenvalues --    1.87733   1.87883   1.87883   2.45017   3.78845

  Beta  occ. eigenvalues --  -24.66753  -1.12551  -0.54260  -0.39830  -0.39830
  Beta virt. eigenvalues --   -0.20011   0.14008   0.19659   0.60157   0.88780
  Beta virt. eigenvalues --    0.88780   1.00328   1.15167   1.15167   1.53022
  Beta virt. eigenvalues --    1.67449   1.88898   1.90397   1.90397   2.50156

 Mulliken charges and spin densities:
               1          2
     1  H    0.237361  -0.017568
     2  H   -0.034158   0.367151
     3  F   -0.203203   0.650418
 Sum of Mulliken charges =   0.00000   1.00000

 Dipole moment (field-independent basis, Debye):
    X=             -1.2777    Y=             -0.0000    Z=              0.0000  Tot=              1.2777
 Quadrupole moment (field-independent basis, Debye-Ang):
   XX=             -7.1071   YY=             -6.4988   ZZ=             -6.4988
   XY=             -0.0000   XZ=              0.0000   YZ=              0.0000

  Exact polarizability:      14.207      -0.000       2.407       0.000      -0.000       2.407
 Approx polarizability:      17.483      -0.000       2.463       0.000      -0.000       2.463

 ******    2 imaginary frequencies (negative Signs) ******

                      1                      2                      3
                      A                      A                      A
 Frequencies --  -3141.8219             -3141.8219              1150.0702
 Red. masses --      1.0117                 1.0117                 1.1083
 Frc consts  --      5.8840                 5.8840                 0.8637
 IR Inten    --      5.1104                 5.1104                24.9368

                      4
                      A
 Frequencies --   6646.4943
 Red. masses --      1.0080
 Frc consts  --     26.2351
 IR Inten    --    410.5999

 - Thermochemistry -
 -------------------
 Temperature   298.150 Kelvin.  Pressure   1.00000 Atm.
 Atom     1 has atomic number  1 and mass   1.00783

 Molecular mass:    21.01405 amu.
 Principal axes and moments of inertia in atomic units:
                           1         2         3
     Eigenvalues --     0.00000  15.28990  15.28990
           X            1.00000  -0.00000   0.00000
           Y            0.00000   1.00000   0.00000
           Z            0.00000   0.00000   1.00000
 This molecule is a prolate symmetric top.
 Rotational symmetry number  1.
 Rotational temperature (Kelvin)      5.66478
 Rotational constant (GHZ):         118.034877
    2 imaginary frequencies ignored.
 Zero-point vibrational energy      46633.8 (Joules/Mol)
                                   11.14575 (Kcal/Mol)
 Vibrational temperatures:   1654.69  9562.82
          (Kelvin)

 Zero-point correction=                           0.017762 (Hartree/Particle)
 Thermal correction to Energy=                    0.020143
 Thermal correction to Enthalpy=                  0.021087
 Thermal correction to Gibbs Free Energy=        -0.000940
 Sum of electronic and zero-point Energies=           -100.885891
 Sum of electronic and thermal Energies=              -100.883510
 Sum of electronic and thermal Enthalpies=            -100.882566
 Sum of electronic and thermal Free Energies=         -100.904593

                     E (Thermal)             CV                S
                      KCal/Mol        Cal/Mol-Kelvin    Cal/Mol-Kelvin
 Total                   12.640              5.208             46.359
 Electronic               0.000              0.000              1.377
 Translational            0.889              2.981             35.068
 Rotational               0.592              1.987              9.863
 Vibrational             11.159              0.240              0.051

 Normal termination of Gaussian 16 at Fri Aug 22 16:09:09 2025.
