 Gaussian 16, Revision C.01,
 Gaussian 16:  ES64L-G16RevC.01  3-Jul-2019

 -----------------------------------------
 # sp b3lyp/6-311g** Force nosymm scf=(qc)
 -----------------------------------------

 -------------------
 Title Card Required
 -------------------
 Symbolic Z-matrix:
 Charge =  0 Multiplicity = 2

                          Input orientation:
 ---------------------------------------------------------------------
 Center     Atomic      Atomic             Coordinates (Angstroms)
 Number     Number       Type             X           Y           Z
 ---------------------------------------------------------------------
      1          1           0        0.000000    0.000000    0.000000
      2          1           0       -0.900000    0.000000    0.000000
      3          9           0        4.000000    0.000000    0.000000
 ---------------------------------------------------------------------

 SCF Done:  E(UB3LYP) =  -100.921717022     a.u. after   67 cycles

 Alpha  occ. eigenvalues --  -24.76176  -1.22076  -0.55280  -0.46452  -0.46436
 Alpha  occ. eigenvalues --   -0.40436
 Alpha virt. eigenvalues --    0.02583   0.20754   0.41670   0.86086   0.90964
 Alpha virt. eigenvalues --    0.91463   1.00963   1.08355   1.08357   1.45293
 Alpha virt. eigenvalues --    1.72241   1.72243   2.16796   2.37240   2.74156

  Beta  occ. eigenvalues --  -24.73020  -1.13002  -0.43290  -0.43273  -0.40434
  Beta virt. eigenvalues --   -0.25931   0.02586   0.20756   0.41684   0.92464
  Beta virt. eigenvalues --    0.92955   0.95553   1.05110   1.08355   1.08357
  Beta virt. eigenvalues --    1.45294   1.72241   1.72243   2.16799   2.37240

 Mulliken charges and spin densities:
               1          2
     1  H    0.000700  -0.000093
     2  H   -0.001677  -0.000012
     3  F    0.000977   1.000105
 Sum of Mulliken charges =   0.00000   1.00000

 Dipole moment (field-independent basis, Debye):
    X=              0.0183    Y=             -0.0000    Z=              0.0000  Tot=              0.0183
 Quadrupole moment (field-independent basis, Debye-Ang):
   XX=             -6.3419   YY=             -7.1486   ZZ=             -6.2844
   XY=             -0.0000   XZ=              0.0000   YZ=             -0.0143

  Exact polarizability:      10.226      -0.000       2.027       0.000      -0.007       2.441
 Approx polarizability:      12.780      -0.000       2.088       0.000      -0.010       2.671

 ******    1 imaginary frequencies (negative Signs) ******

                      1                      2                      3
                      A                      A                      A
 Frequencies --    -65.8236              1453.4711              1508.1484
 Red. masses --      1.1085                 1.0088                 1.0088
 Frc consts  --      0.0028                 1.2557                 1.3520
 IR Inten    --      0.0352                 0.0004                 0.2846

                      4
                      A
 Frequencies --   2642.6781
 Red. masses --      1.0078
 Frc consts  --      4.1469
 IR Inten    --      0.0307

 - Thermochemistry -
 -------------------
 Temperature   298.150 Kelvin.  Pressure   1.00000 Atm.
 Atom     1 has atomic number  1 and mass   1.00783

 Molecular mass:    21.01405 amu.
 Principal axes and moments of inertia in atomic units:
                           1         2         3
     Eigenvalues --     0.00000 130.32414 130.32414
           X            1.00000  -0.00000   0.00000
           Y            0.00000   1.00000   0.00000
           Z            0.00000   0.00000   1.00000
 This molecule is a prolate symmetric top.
 Rotational symmetry number  1.
 Rotational temperature (Kelvin)      0.66460
 Rotational constant (GHZ):          13.848096
    1 imaginary frequencies ignored.
 Zero-point vibrational energy      33521.1 (Joules/Mol)
                                    8.01175 (Kcal/Mol)
 Vibrational temperatures:   2091.22  2169.89  3802.22
          (Kelvin)

 Zero-point correction=                           0.012768 (Hartree/Particle)
 Thermal correction to Energy=                    0.015139
 Thermal correction to Enthalpy=                  0.016083
 Thermal correction to Gibbs Free Energy=        -0.007955
 Sum of electronic and zero-point Energies=           -100.908949
 Sum of electronic and thermal Energies=              -100.906578
 Sum of electronic and thermal Enthalpies=            -100.905634
 Sum of electronic and thermal Free Energies=         -100.929672

                     E (Thermal)             CV                S
                      KCal/Mol        Cal/Mol-Kelvin    Cal/Mol-Kelvin
 Total                    9.500              5.130             50.593
 Electronic               0.000              0.000              1.377
 Translational            0.889              2.981             35.068
 Rotational               0.592              1.987             14.121
 Vibrational              8.018              0.162              0.026

 Normal termination of Gaussian 16 at Sat Aug 23 01:45:10 2025.
