 Gaussian 16, Revision C.01,
 Gaussian 16:  ES64L-G16RevC.01  3-Jul-2019

 -----------------------------------------
 # sp b3lyp/6-311g** Force nosymm scf=(qc)
 -----------------------------------------

 -------------------
 Title Card Required
 -------------------
 Symbolic Z-matrix:
 Charge =  0 Multiplicity = 2

                          Input orientation:
 ---------------------------------------------------------------------
 Center     Atomic      Atomic             Coordinates (Angstroms)
 Number     Number       Type             X           Y           Z
 ---------------------------------------------------------------------
      1          1           0        0.000000    0.000000    0.000000
      2          1           0       -2.450000    0.000000    0.000000
      3          9           0        2.450000    0.000000    0.000000
 ---------------------------------------------------------------------

 SCF Done:  E(UB3LYP) =  -100.772787944     a.u. after   15 cycles

 Alpha  occ. eigenvalues --  -24.71439  -1.17663  -0.50532  -0.42448  -0.42448
 Alpha  occ. eigenvalues --   -0.33975
 Alpha virt. eigenvalues --   -0.12219   0.24782   0.32954   0.89946   0.93790
 Alpha virt. eigenvalues --    0.93790   1.06656   1.23699   1.23699   1.26866
 Alpha virt. eigenvalues --    1.37385   1.37385   1.43663   2.14369   2.32808

  Beta  occ. eigenvalues --  -24.68625  -1.09662  -0.39645  -0.39645  -0.35489
  Beta virt. eigenvalues --   -0.23191  -0.09841   0.25898   0.34444   0.95131
  Beta virt. eigenvalues --    0.95131   0.96461   1.09371   1.22240   1.22240
  Beta virt. eigenvalues --    1.31753   1.41143   1.41143   1.43214   2.13997

 Mulliken charges and spin densities:
               1          2
     1  H    0.083433  -0.854832
     2  H    0.013020   0.966095
     3  F   -0.096453   0.888737
 Sum of Mulliken charges =  -0.00000   1.00000

 Dipole moment (field-independent basis, Debye):
    X=             -1.3525    Y=              0.0000    Z=             -0.0000  Tot=              1.3525
 Quadrupole moment (field-independent basis, Debye-Ang):
   XX=             -8.8538   YY=             -7.6088   ZZ=             -7.6088
   XY=              0.0000   XZ=             -0.0000   YZ=              0.0000

  Exact polarizability:      44.599       0.000       2.016      -0.000       0.000       2.016
 Approx polarizability:      48.244       0.000       1.919      -0.000      -0.000       1.919

 ******    2 imaginary frequencies (negative Signs) ******

                      1                      2                      3
                      A                      A                      A
 Frequencies --   -869.3530              -360.1276               346.9597
 Red. masses --      1.0202                 1.0940                 1.0179
 Frc consts  --      0.4543                 0.0836                 0.0722
 IR Inten    --     55.2403                27.8084                 5.5908

                      4
                      A
 Frequencies --    346.9597
 Red. masses --      1.0179
 Frc consts  --      0.0722
 IR Inten    --      5.5908

 - Thermochemistry -
 -------------------
 Temperature   298.150 Kelvin.  Pressure   1.00000 Atm.
 Atom     1 has atomic number  1 and mass   1.00783

 Molecular mass:    21.01405 amu.
 Principal axes and moments of inertia in atomic units:
                           1         2         3
     Eigenvalues --     0.00000  98.69059  98.69059
           X            1.00000  -0.00000   0.00000
           Y            0.00000   1.00000   0.00000
           Z            0.00000   0.00000   1.00000
 This molecule is a prolate symmetric top.
 Rotational symmetry number  1.
 Rotational temperature (Kelvin)      0.87763
 Rotational constant (GHZ):          18.286863
    2 imaginary frequencies ignored.
 Zero-point vibrational energy       4150.6 (Joules/Mol)
                                    0.99201 (Kcal/Mol)
 Warning -- explicit consideration of   2 degrees of freedom as
           vibrations may cause significant error
 Vibrational temperatures:    499.20   499.20
          (Kelvin)

 Zero-point correction=                           0.001581 (Hartree/Particle)
 Thermal correction to Energy=                    0.004671
 Thermal correction to Enthalpy=                  0.005615
 Thermal correction to Gibbs Free Energy=        -0.019270
 Sum of electronic and zero-point Energies=           -100.771207
 Sum of electronic and thermal Energies=              -100.768117
 Sum of electronic and thermal Enthalpies=            -100.767173
 Sum of electronic and thermal Free Energies=         -100.792058

                     E (Thermal)             CV                S
                      KCal/Mol        Cal/Mol-Kelvin    Cal/Mol-Kelvin
 Total                    2.931              8.131             52.374
 Electronic               0.000              0.000              1.377
 Translational            0.889              2.981             35.068
 Rotational               0.592              1.987             13.569
 Vibrational              1.450              3.163              2.360
 Vibration     1          0.725              1.581              1.180
 Vibration     2          0.725              1.581              1.180

 Normal termination of Gaussian 16 at Fri Aug 22 17:38:46 2025.
