 Gaussian 16, Revision C.01,
 Gaussian 16:  ES64L-G16RevC.01  3-Jul-2019

 -----------------------------------------
 # sp b3lyp/6-311g** Force nosymm scf=(qc)
 -----------------------------------------

 -------------------
 Title Card Required
 -------------------
 Symbolic Z-matrix:
 Charge =  0 Multiplicity = 2

                          Input orientation:
 ---------------------------------------------------------------------
 Center     Atomic      Atomic             Coordinates (Angstroms)
 Number     Number       Type             X           Y           Z
 ---------------------------------------------------------------------
      1          1           0        0.000000    0.000000    0.000000
      2          1           0       -2.350000    0.000000    0.000000
      3          9           0        3.600000    0.000000    0.000000
 ---------------------------------------------------------------------

 SCF Done:  E(UB3LYP) =  -100.764799008     a.u. after   34 cycles

 Alpha  occ. eigenvalues --  -24.75618  -1.21564  -0.54742  -0.45964  -0.45964
 Alpha  occ. eigenvalues --   -0.32732
 Alpha virt. eigenvalues --   -0.09930   0.25846   0.33939   0.87300   0.91330
 Alpha virt. eigenvalues --    0.91330   1.01534   1.25000   1.25000   1.25873
 Alpha virt. eigenvalues --    1.40439   1.40439   1.43562   2.15139   2.35860

  Beta  occ. eigenvalues --  -24.72492  -1.12577  -0.42829  -0.42829  -0.32932
  Beta virt. eigenvalues --   -0.25621  -0.09576   0.25669   0.34472   0.92824
  Beta virt. eigenvalues --    0.92824   0.96536   1.05606   1.24761   1.24761
  Beta virt. eigenvalues --    1.25613   1.40970   1.40970   1.44062   2.15579

 Mulliken charges and spin densities:
               1          2
     1  H    0.004993  -0.944138
     2  H    0.002629   0.952787
     3  F   -0.007622   0.991351
 Sum of Mulliken charges =   0.00000   1.00000

 Dipole moment (field-independent basis, Debye):
    X=             -0.1702    Y=              0.0000    Z=             -0.0000  Tot=              0.1702
 Quadrupole moment (field-independent basis, Debye-Ang):
   XX=             -6.8803   YY=             -7.6809   ZZ=             -7.6809
   XY=              0.0000   XZ=             -0.0000   YZ=             -0.0000

  Exact polarizability:      33.038      -0.000       2.006       0.000      -0.000       2.006
 Approx polarizability:      24.927       0.000       1.929      -0.000       0.000       1.929

 ******    2 imaginary frequencies (negative Signs) ******

                      1                      2                      3
                      A                      A                      A
 Frequencies --   -825.2044              -124.1991               311.0143
 Red. masses --      1.0079                 1.1084                 1.0136
 Frc consts  --      0.4044                 0.0101                 0.0578
 IR Inten    --      4.1650                 4.4345                 0.0169

                      4
                      A
 Frequencies --    311.0143
 Red. masses --      1.0136
 Frc consts  --      0.0578
 IR Inten    --      0.0169

 - Thermochemistry -
 -------------------
 Temperature   298.150 Kelvin.  Pressure   1.00000 Atm.
 Atom     1 has atomic number  1 and mass   1.00783

 Molecular mass:    21.01405 amu.
 Principal axes and moments of inertia in atomic units:
                           1         2         3
     Eigenvalues --     0.00000 158.31487 158.31487
           X            1.00000  -0.00000   0.00000
           Y            0.00000   1.00000   0.00000
           Z            0.00000   0.00000   1.00000
 This molecule is a prolate symmetric top.
 Rotational symmetry number  1.
 Rotational temperature (Kelvin)      0.54710
 Rotational constant (GHZ):          11.399695
    2 imaginary frequencies ignored.
 Zero-point vibrational energy       3720.6 (Joules/Mol)
                                    0.88923 (Kcal/Mol)
 Warning -- explicit consideration of   2 degrees of freedom as
           vibrations may cause significant error
 Vibrational temperatures:    447.48   447.48
          (Kelvin)

 Zero-point correction=                           0.001417 (Hartree/Particle)
 Thermal correction to Energy=                    0.004591
 Thermal correction to Enthalpy=                  0.005535
 Thermal correction to Gibbs Free Energy=        -0.019964
 Sum of electronic and zero-point Energies=           -100.763382
 Sum of electronic and thermal Energies=              -100.760208
 Sum of electronic and thermal Enthalpies=            -100.759264
 Sum of electronic and thermal Free Energies=         -100.784763

                     E (Thermal)             CV                S
                      KCal/Mol        Cal/Mol-Kelvin    Cal/Mol-Kelvin
 Total                    2.881              8.273             53.667
 Electronic               0.000              0.000              1.377
 Translational            0.889              2.981             35.068
 Rotational               0.592              1.987             14.508
 Vibrational              1.399              3.305              2.714
 Vibration     1          0.700              1.653              1.357
 Vibration     2          0.700              1.653              1.357

 Normal termination of Gaussian 16 at Fri Aug 22 23:06:08 2025.
