 Gaussian 16, Revision C.01,
 Gaussian 16:  ES64L-G16RevC.01  3-Jul-2019

 -----------------------------------------
 # sp b3lyp/6-311g** Force nosymm scf=(qc)
 -----------------------------------------

 -------------------
 Title Card Required
 -------------------
 Symbolic Z-matrix:
 Charge =  0 Multiplicity = 2

                          Input orientation:
 ---------------------------------------------------------------------
 Center     Atomic      Atomic             Coordinates (Angstroms)
 Number     Number       Type             X           Y           Z
 ---------------------------------------------------------------------
      1          1           0        0.000000    0.000000    0.000000
      2          1           0       -3.050000    0.000000    0.000000
      3          9           0        0.550000    0.000000    0.000000
 ---------------------------------------------------------------------

 SCF Done:  E(UB3LYP) =  -100.519284974     a.u. after    6 cycles

 Alpha  occ. eigenvalues --  -24.62688  -1.38424  -0.62255  -0.43626  -0.43626
 Alpha  occ. eigenvalues --   -0.33626
 Alpha virt. eigenvalues --    0.08037   0.25542   0.60489   0.91201   0.91224
 Alpha virt. eigenvalues --    0.91224   1.22739   1.23896   1.23896   1.38779
 Alpha virt. eigenvalues --    1.54143   1.54143   1.96916   2.15184   3.65594

  Beta  occ. eigenvalues --  -24.62687  -1.38419  -0.62253  -0.43626  -0.43626
  Beta virt. eigenvalues --   -0.05773   0.08935   0.39342   0.60544   0.91211
  Beta virt. eigenvalues --    0.91220   0.91220   1.35133   1.50368   1.50368
  Beta virt. eigenvalues --    1.52686   1.54146   1.54146   1.96711   2.45126

 Mulliken charges and spin densities:
               1          2
     1  H    0.198557   0.001054
     2  H    0.001717   0.997866
     3  F   -0.200275   0.001080
 Sum of Mulliken charges =   0.00000   1.00000

 Dipole moment (field-independent basis, Debye):
    X=             -1.3830    Y=             -0.0000    Z=              0.0000  Tot=              1.3830
 Quadrupole moment (field-independent basis, Debye-Ang):
   XX=             -6.7498   YY=             -6.4951   ZZ=             -6.4951
   XY=             -0.0000   XZ=              0.0000   YZ=             -0.0000

  Exact polarizability:       3.689      -0.000       2.435      -0.000       0.000       2.435
 Approx polarizability:       3.815       0.000       2.415      -0.000       0.000       2.415

 ******    2 imaginary frequencies (negative Signs) ******

                      1                      2                      3
                      A                      A                      A
 Frequencies --  -7491.8879             -7491.8879                13.2971
 Red. masses --      1.0433                 1.0433                 1.0532
 Frc consts  --     34.5007                34.5007                 0.0001
 IR Inten    --    254.1380               254.1380                 0.0689

                      4
                      A
 Frequencies --  15777.8864
 Red. masses --      1.0583
 Frc consts  --    155.2249
 IR Inten    --     91.7058

 - Thermochemistry -
 -------------------
 Temperature   298.150 Kelvin.  Pressure   1.00000 Atm.
 Atom     1 has atomic number  1 and mass   1.00783

 Molecular mass:    21.01405 amu.
 Principal axes and moments of inertia in atomic units:
                           1         2         3
     Eigenvalues --     0.00000  44.75913  44.75913
           X            1.00000  -0.00000   0.00000
           Y            0.00000   1.00000   0.00000
           Z            0.00000   0.00000   1.00000
 This molecule is a prolate symmetric top.
 Rotational symmetry number  1.
 Rotational temperature (Kelvin)      1.93511
 Rotational constant (GHZ):          40.321188
    2 imaginary frequencies ignored.
 Zero-point vibrational energy      94452.3 (Joules/Mol)
                                   22.57463 (Kcal/Mol)
 Warning -- explicit consideration of   1 degrees of freedom as
           vibrations may cause significant error
 Vibrational temperatures:     19.13 22700.86
          (Kelvin)

 Zero-point correction=                           0.035975 (Hartree/Particle)
 Thermal correction to Energy=                    0.039250
 Thermal correction to Enthalpy=                  0.040194
 Thermal correction to Gibbs Free Energy=         0.013640
 Sum of electronic and zero-point Energies=           -100.483310
 Sum of electronic and thermal Energies=              -100.480035
 Sum of electronic and thermal Enthalpies=            -100.479091
 Sum of electronic and thermal Free Energies=         -100.505645

                     E (Thermal)             CV                S
                      KCal/Mol        Cal/Mol-Kelvin    Cal/Mol-Kelvin
 Total                   24.630              6.955             55.888
 Electronic               0.000              0.000              1.377
 Translational            0.889              2.981             35.068
 Rotational               0.592              1.987             11.998
 Vibrational             23.148              1.987              7.445
 Vibration     1          0.593              1.987              7.445

 Normal termination of Gaussian 16 at Fri Aug 22 15:40:01 2025.
