 Gaussian 16, Revision C.01,
 Gaussian 16:  ES64L-G16RevC.01  3-Jul-2019

 -----------------------------------------
 # sp b3lyp/6-311g** Force nosymm scf=(qc)
 -----------------------------------------

 -------------------
 Title Card Required
 -------------------
 Symbolic Z-matrix:
 Charge =  0 Multiplicity = 2

                          Input orientation:
 ---------------------------------------------------------------------
 Center     Atomic      Atomic             Coordinates (Angstroms)
 Number     Number       Type             X           Y           Z
 ---------------------------------------------------------------------
      1          1           0        0.000000    0.000000    0.000000
      2          1           0       -0.600000    0.000000    0.000000
      3          9           0        1.050000    0.000000    0.000000
 ---------------------------------------------------------------------

 SCF Done:  E(UB3LYP) =  -100.889249403     a.u. after    6 cycles

 Alpha  occ. eigenvalues --  -24.67872  -1.20237  -0.65284  -0.41964  -0.41964
 Alpha  occ. eigenvalues --   -0.35918
 Alpha virt. eigenvalues --    0.13551   0.18463   0.61900   0.86839   0.86839
 Alpha virt. eigenvalues --    0.94476   1.12186   1.12186   1.48723   1.69267
 Alpha virt. eigenvalues --    1.85664   1.85664   1.88543   2.53706   3.78944

  Beta  occ. eigenvalues --  -24.65901  -1.15246  -0.57034  -0.40163  -0.40163
  Beta virt. eigenvalues --   -0.17619   0.15458   0.19246   0.66475   0.88632
  Beta virt. eigenvalues --    0.88632   0.98474   1.15893   1.15893   1.51180
  Beta virt. eigenvalues --    1.76024   1.89201   1.89201   1.89836   2.59709

 Mulliken charges and spin densities:
               1          2
     1  H    0.271717  -0.014733
     2  H   -0.052749   0.504749
     3  F   -0.218969   0.509984
 Sum of Mulliken charges =   0.00000   1.00000

 Dipole moment (field-independent basis, Debye):
    X=             -1.3280    Y=             -0.0000    Z=             -0.0000  Tot=              1.3280
 Quadrupole moment (field-independent basis, Debye-Ang):
   XX=             -7.2835   YY=             -6.4458   ZZ=             -6.4458
   XY=             -0.0000   XZ=             -0.0000   YZ=             -0.0000

  Exact polarizability:      12.709      -0.000       2.471       0.000       0.000       2.471
 Approx polarizability:      15.221      -0.000       2.537      -0.000       0.000       2.537

 ******    2 imaginary frequencies (negative Signs) ******

                      1                      2                      3
                      A                      A                      A
 Frequencies --  -3363.4133             -3363.4133              1899.8263
 Red. masses --      1.0126                 1.0126                 1.1084
 Frc consts  --      6.7491                 6.7491                 2.3571
 IR Inten    --     16.0071                16.0071                 1.3246

                      4
                      A
 Frequencies --   6607.6131
 Red. masses --      1.0079
 Frc consts  --     25.9271
 IR Inten    --    189.6064

 - Thermochemistry -
 -------------------
 Temperature   298.150 Kelvin.  Pressure   1.00000 Atm.
 Atom     1 has atomic number  1 and mass   1.00783

 Molecular mass:    21.01405 amu.
 Principal axes and moments of inertia in atomic units:
                           1         2         3
     Eigenvalues --     0.00000  12.50790  12.50790
           X            1.00000  -0.00000   0.00000
           Y            0.00000   1.00000   0.00000
           Z            0.00000   0.00000   1.00000
 This molecule is a prolate symmetric top.
 Rotational symmetry number  1.
 Rotational temperature (Kelvin)      6.92474
 Rotational constant (GHZ):         144.288069
    2 imaginary frequencies ignored.
 Zero-point vibrational energy      50885.8 (Joules/Mol)
                                   12.16200 (Kcal/Mol)
 Vibrational temperatures:   2733.43  9506.88
          (Kelvin)

 Zero-point correction=                           0.019381 (Hartree/Particle)
 Thermal correction to Energy=                    0.021743
 Thermal correction to Enthalpy=                  0.022687
 Thermal correction to Gibbs Free Energy=         0.000873
 Sum of electronic and zero-point Energies=           -100.869868
 Sum of electronic and thermal Energies=              -100.867507
 Sum of electronic and thermal Enthalpies=            -100.866562
 Sum of electronic and thermal Free Energies=         -100.888377

                     E (Thermal)             CV                S
                      KCal/Mol        Cal/Mol-Kelvin    Cal/Mol-Kelvin
 Total                   13.644              4.985             45.912
 Electronic               0.000              0.000              1.377
 Translational            0.889              2.981             35.068
 Rotational               0.592              1.987              9.464
 Vibrational             12.163              0.017              0.002

 Normal termination of Gaussian 16 at Fri Aug 22 16:01:57 2025.
