 Gaussian 16, Revision C.01,
 Gaussian 16:  ES64L-G16RevC.01  3-Jul-2019

 -----------------------------------------
 # sp b3lyp/6-311g** Force nosymm scf=(qc)
 -----------------------------------------

 -------------------
 Title Card Required
 -------------------
 Symbolic Z-matrix:
 Charge =  0 Multiplicity = 2

                          Input orientation:
 ---------------------------------------------------------------------
 Center     Atomic      Atomic             Coordinates (Angstroms)
 Number     Number       Type             X           Y           Z
 ---------------------------------------------------------------------
      1          1           0        0.000000    0.000000    0.000000
      2          1           0       -1.800000    0.000000    0.000000
      3          9           0        1.050000    0.000000    0.000000
 ---------------------------------------------------------------------

 SCF Done:  E(UB3LYP) =  -100.959878577     a.u. after    6 cycles

 Alpha  occ. eigenvalues --  -24.63633  -1.14477  -0.50894  -0.37949  -0.37949
 Alpha  occ. eigenvalues --   -0.36755
 Alpha virt. eigenvalues --    0.03544   0.22953   0.31949   0.94218   0.94218
 Alpha virt. eigenvalues --    0.99316   1.12148   1.19738   1.19738   1.36977
 Alpha virt. eigenvalues --    1.36977   1.51602   1.84360   2.23276   2.34682

  Beta  occ. eigenvalues --  -24.63477  -1.14086  -0.49952  -0.37811  -0.37811
  Beta virt. eigenvalues --   -0.14360   0.06239   0.29991   0.34492   0.94250
  Beta virt. eigenvalues --    0.94250   0.99823   1.21452   1.33126   1.33126
  Beta virt. eigenvalues --    1.41632   1.41632   1.56833   1.90470   2.33995

 Mulliken charges and spin densities:
               1          2
     1  H    0.309258   0.000619
     2  H    0.026775   0.956010
     3  F   -0.336033   0.043371
 Sum of Mulliken charges =   0.00000   1.00000

 Dipole moment (field-independent basis, Debye):
    X=             -2.3639    Y=             -0.0000    Z=              0.0000  Tot=              2.3639
 Quadrupole moment (field-independent basis, Debye-Ang):
   XX=             -7.8097   YY=             -6.9363   ZZ=             -6.9363
   XY=             -0.0000   XZ=              0.0000   YZ=              0.0000

  Exact polarizability:      12.743      -0.000       2.461       0.000      -0.000       2.461
 Approx polarizability:      14.263       0.000       2.443       0.000      -0.000       2.443

 ******    1 imaginary frequencies (negative Signs) ******

                      1                      2                      3
                      A                      A                      A
 Frequencies --   -142.8617              1055.1038              1055.1038
 Red. masses --      1.0482                 1.0256                 1.0256
 Frc consts  --      0.0126                 0.6727                 0.6727
 IR Inten    --      6.1878               115.4604               115.4604

                      4
                      A
 Frequencies --   2316.4592
 Red. masses --      1.0634
 Frc consts  --      3.3621
 IR Inten    --    217.8540

 - Thermochemistry -
 -------------------
 Temperature   298.150 Kelvin.  Pressure   1.00000 Atm.
 Atom     1 has atomic number  1 and mass   1.00783

 Molecular mass:    21.01405 amu.
 Principal axes and moments of inertia in atomic units:
                           1         2         3
     Eigenvalues --     0.00000  30.57550  30.57550
           X            1.00000  -0.00000   0.00000
           Y            0.00000   1.00000   0.00000
           Z            0.00000   0.00000   1.00000
 This molecule is a prolate symmetric top.
 Rotational symmetry number  1.
 Rotational temperature (Kelvin)      2.83279
 Rotational constant (GHZ):          59.025725
    1 imaginary frequencies ignored.
 Zero-point vibrational energy      26477.3 (Joules/Mol)
                                    6.32824 (Kcal/Mol)
 Vibrational temperatures:   1518.06  1518.06  3332.87
          (Kelvin)

 Zero-point correction=                           0.010085 (Hartree/Particle)
 Thermal correction to Energy=                    0.012505
 Thermal correction to Enthalpy=                  0.013449
 Thermal correction to Gibbs Free Energy=        -0.009279
 Sum of electronic and zero-point Energies=           -100.949794
 Sum of electronic and thermal Energies=              -100.947374
 Sum of electronic and thermal Enthalpies=            -100.946430
 Sum of electronic and thermal Free Energies=         -100.969158

                     E (Thermal)             CV                S
                      KCal/Mol        Cal/Mol-Kelvin    Cal/Mol-Kelvin
 Total                    7.847              5.613             47.836
 Electronic               0.000              0.000              1.377
 Translational            0.889              2.981             35.068
 Rotational               0.592              1.987             11.240
 Vibrational              6.366              0.645              0.150

 Normal termination of Gaussian 16 at Fri Aug 22 16:02:47 2025.
