 Gaussian 16, Revision C.01,
 Gaussian 16:  ES64L-G16RevC.01  3-Jul-2019

 -----------------------------------------
 # sp b3lyp/6-311g** Force nosymm scf=(qc)
 -----------------------------------------

 -------------------
 Title Card Required
 -------------------
 Symbolic Z-matrix:
 Charge =  0 Multiplicity = 2

                          Input orientation:
 ---------------------------------------------------------------------
 Center     Atomic      Atomic             Coordinates (Angstroms)
 Number     Number       Type             X           Y           Z
 ---------------------------------------------------------------------
      1          1           0        0.000000    0.000000    0.000000
      2          1           0       -3.400000    0.000000    0.000000
      3          9           0        3.350000    0.000000    0.000000
 ---------------------------------------------------------------------

 SCF Done:  E(UB3LYP) =  -100.759585845     a.u. after   24 cycles

 Alpha  occ. eigenvalues --  -24.75096  -1.21081  -0.54218  -0.45522  -0.45522
 Alpha  occ. eigenvalues --   -0.32405
 Alpha virt. eigenvalues --   -0.07417   0.24327   0.36582   0.88110   0.91660
 Alpha virt. eigenvalues --    0.91660   1.02272   1.25104   1.25104   1.25322
 Alpha virt. eigenvalues --    1.44735   1.44735   1.44773   2.15112   2.40832

  Beta  occ. eigenvalues --  -24.72001  -1.12192  -0.42421  -0.42421  -0.33040
  Beta virt. eigenvalues --   -0.25332  -0.06671   0.24105   0.37757   0.93144
  Beta virt. eigenvalues --    0.93144   0.97143   1.06220   1.24368   1.24368
  Beta virt. eigenvalues --    1.24573   1.45660   1.45905   1.45905   2.15417

 Mulliken charges and spin densities:
               1          2
     1  H    0.016719  -0.978602
     2  H    0.000316   0.997309
     3  F   -0.017036   0.981292
 Sum of Mulliken charges =  -0.00000   1.00000

 Dipole moment (field-independent basis, Debye):
    X=             -0.2985    Y=              0.0000    Z=             -0.0000  Tot=              0.2985
 Quadrupole moment (field-independent basis, Debye-Ang):
   XX=             -7.6241   YY=             -7.6214   ZZ=             -7.6214
   XY=              0.0000   XZ=             -0.0000   YZ=              0.0000

  Exact polarizability:      27.572       0.000       2.031      -0.000       0.000       2.031
 Approx polarizability:      23.256       0.000       1.931      -0.000       0.000       1.931

 ******    2 imaginary frequencies (negative Signs) ******

                      1                      2                      3
                      A                      A                      A
 Frequencies --   -287.9983              -119.1326                94.6585
 Red. masses --      1.0299                 1.0830                 1.0181
 Frc consts  --      0.0503                 0.0091                 0.0054
 IR Inten    --     16.7723                 1.7065                 0.2512

                      4
                      A
 Frequencies --     94.6585
 Red. masses --      1.0181
 Frc consts  --      0.0054
 IR Inten    --      0.2512

 - Thermochemistry -
 -------------------
 Temperature   298.150 Kelvin.  Pressure   1.00000 Atm.
 Atom     1 has atomic number  1 and mass   1.00783

 Molecular mass:    21.01405 amu.
 Principal axes and moments of inertia in atomic units:
                           1         2         3
     Eigenvalues --     0.00000 186.76207 186.76207
           X            1.00000  -0.00000   0.00000
           Y            0.00000   1.00000   0.00000
           Z            0.00000   0.00000   1.00000
 This molecule is a prolate symmetric top.
 Rotational symmetry number  1.
 Rotational temperature (Kelvin)      0.46377
 Rotational constant (GHZ):           9.663318
    2 imaginary frequencies ignored.
 Zero-point vibrational energy       1132.4 (Joules/Mol)
                                    0.27064 (Kcal/Mol)
 Warning -- explicit consideration of   2 degrees of freedom as
           vibrations may cause significant error
 Vibrational temperatures:    136.19   136.19
          (Kelvin)

 Zero-point correction=                           0.000431 (Hartree/Particle)
 Thermal correction to Energy=                    0.004282
 Thermal correction to Enthalpy=                  0.005226
 Thermal correction to Gibbs Free Energy=        -0.022524
 Sum of electronic and zero-point Energies=           -100.759155
 Sum of electronic and thermal Energies=              -100.755304
 Sum of electronic and thermal Enthalpies=            -100.754360
 Sum of electronic and thermal Free Energies=         -100.782110

                     E (Thermal)             CV                S
                      KCal/Mol        Cal/Mol-Kelvin    Cal/Mol-Kelvin
 Total                    2.687              8.874             58.405
 Electronic               0.000              0.000              1.377
 Translational            0.889              2.981             35.068
 Rotational               0.592              1.987             14.836
 Vibrational              1.206              3.906              7.123
 Vibration     1          0.603              1.953              3.561
 Vibration     2          0.603              1.953              3.561

 Normal termination of Gaussian 16 at Fri Aug 22 21:03:05 2025.
