 Gaussian 16, Revision C.01,
 Gaussian 16:  ES64L-G16RevC.01  3-Jul-2019

 -----------------------------------------
 # sp b3lyp/6-311g** Force nosymm scf=(qc)
 -----------------------------------------

 -------------------
 Title Card Required
 -------------------
 Symbolic Z-matrix:
 Charge =  0 Multiplicity = 2

                          Input orientation:
 ---------------------------------------------------------------------
 Center     Atomic      Atomic             Coordinates (Angstroms)
 Number     Number       Type             X           Y           Z
 ---------------------------------------------------------------------
      1          1           0        0.000000    0.000000    0.000000
      2          1           0       -2.300000    0.000000    0.000000
      3          9           0        0.850000    0.000000    0.000000
 ---------------------------------------------------------------------

 SCF Done:  E(UB3LYP) =  -100.965824755     a.u. after    6 cycles

 Alpha  occ. eigenvalues --  -24.63722  -1.20791  -0.54987  -0.40017  -0.40017
 Alpha  occ. eigenvalues --   -0.35104
 Alpha virt. eigenvalues --    0.06268   0.25095   0.42270   0.94445   0.94445
 Alpha virt. eigenvalues --    0.97146   1.16627   1.22440   1.22440   1.38481
 Alpha virt. eigenvalues --    1.38481   1.44836   2.01712   2.15237   2.42987

  Beta  occ. eigenvalues --  -24.63698  -1.20730  -0.54880  -0.39997  -0.39997
  Beta virt. eigenvalues --   -0.10010   0.07975   0.36753   0.42214   0.94448
  Beta virt. eigenvalues --    0.94448   0.97407   1.26548   1.38394   1.38394
  Beta virt. eigenvalues --    1.43497   1.43497   1.56413   2.02581   2.41354

 Mulliken charges and spin densities:
               1          2
     1  H    0.276970   0.005051
     2  H    0.007794   0.988253
     3  F   -0.284764   0.006697
 Sum of Mulliken charges =   0.00000   1.00000

 Dipole moment (field-independent basis, Debye):
    X=             -1.9030    Y=             -0.0000    Z=             -0.0000  Tot=              1.9030
 Quadrupole moment (field-independent basis, Debye-Ang):
   XX=             -7.4951   YY=             -6.8048   ZZ=             -6.8048
   XY=              0.0000   XZ=             -0.0000   YZ=             -0.0000

  Exact polarizability:       7.378       0.000       2.474      -0.000       0.000       2.474
 Approx polarizability:       7.769      -0.000       2.460       0.000       0.000       2.460

 ******    2 imaginary frequencies (negative Signs) ******

                      1                      2                      3
                      A                      A                      A
 Frequencies --  -1310.8310             -1310.8310               125.7280
 Red. masses --      1.0329                 1.0329                 1.0532
 Frc consts  --      1.0457                 1.0457                 0.0098
 IR Inten    --    167.9546               167.9546                 0.6843

                      4
                      A
 Frequencies --   5303.4286
 Red. masses --      1.0584
 Frc consts  --     17.5392
 IR Inten    --    140.8231

 - Thermochemistry -
 -------------------
 Temperature   298.150 Kelvin.  Pressure   1.00000 Atm.
 Atom     1 has atomic number  1 and mass   1.00783

 Molecular mass:    21.01405 amu.
 Principal axes and moments of inertia in atomic units:
                           1         2         3
     Eigenvalues --     0.00000  35.54974  35.54974
           X            1.00000  -0.00000   0.00000
           Y            0.00000   1.00000   0.00000
           Z            0.00000   0.00000   1.00000
 This molecule is a prolate symmetric top.
 Rotational symmetry number  1.
 Rotational temperature (Kelvin)      2.43642
 Rotational constant (GHZ):          50.766657
    2 imaginary frequencies ignored.
 Zero-point vibrational energy      32473.6 (Joules/Mol)
                                    7.76137 (Kcal/Mol)
 Warning -- explicit consideration of   1 degrees of freedom as
           vibrations may cause significant error
 Vibrational temperatures:    180.89  7630.45
          (Kelvin)

 Zero-point correction=                           0.012369 (Hartree/Particle)
 Thermal correction to Energy=                    0.015416
 Thermal correction to Enthalpy=                  0.016360
 Thermal correction to Gibbs Free Energy=        -0.007870
 Sum of electronic and zero-point Energies=           -100.953456
 Sum of electronic and thermal Energies=              -100.950409
 Sum of electronic and thermal Enthalpies=            -100.949465
 Sum of electronic and thermal Free Energies=         -100.973695

                     E (Thermal)             CV                S
                      KCal/Mol        Cal/Mol-Kelvin    Cal/Mol-Kelvin
 Total                    9.673              6.895             50.996
 Electronic               0.000              0.000              1.377
 Translational            0.889              2.981             35.068
 Rotational               0.592              1.987             11.540
 Vibrational              8.192              1.927              3.010
 Vibration     1          0.611              1.927              3.010

 Normal termination of Gaussian 16 at Fri Aug 22 15:53:39 2025.
