 Gaussian 16, Revision C.01,
 Gaussian 16:  ES64L-G16RevC.01  3-Jul-2019

 -----------------------------------------
 # sp b3lyp/6-311g** Force nosymm scf=(qc)
 -----------------------------------------

 -------------------
 Title Card Required
 -------------------
 Symbolic Z-matrix:
 Charge =  0 Multiplicity = 2

                          Input orientation:
 ---------------------------------------------------------------------
 Center     Atomic      Atomic             Coordinates (Angstroms)
 Number     Number       Type             X           Y           Z
 ---------------------------------------------------------------------
      1          1           0        0.000000    0.000000    0.000000
      2          1           0       -3.650000    0.000000    0.000000
      3          9           0        1.200000    0.000000    0.000000
 ---------------------------------------------------------------------

 SCF Done:  E(UB3LYP) =  -100.925556221     a.u. after    6 cycles

 Alpha  occ. eigenvalues --  -24.64354  -1.12273  -0.47747  -0.37531  -0.37531
 Alpha  occ. eigenvalues --   -0.33716
 Alpha virt. eigenvalues --   -0.05754   0.22161   0.29358   0.93172   0.93172
 Alpha virt. eigenvalues --    1.00803   1.23742   1.23796   1.23796   1.26159
 Alpha virt. eigenvalues --    1.34616   1.34616   1.72684   2.13690   2.28471

  Beta  occ. eigenvalues --  -24.64351  -1.12265  -0.47739  -0.37529  -0.37529
  Beta virt. eigenvalues --   -0.07283  -0.04371   0.26759   0.38826   0.93172
  Beta virt. eigenvalues --    0.93172   1.00811   1.26145   1.34609   1.34609
  Beta virt. eigenvalues --    1.47972   1.47972   1.48398   1.72708   2.27956

 Mulliken charges and spin densities:
               1          2
     1  H    0.353241   0.000049
     2  H    0.000897   0.999016
     3  F   -0.354138   0.000934
 Sum of Mulliken charges =   0.00000   1.00000

 Dipole moment (field-independent basis, Debye):
    X=             -2.2909    Y=              0.0000    Z=             -0.0000  Tot=              2.2909
 Quadrupole moment (field-independent basis, Debye-Ang):
   XX=             -8.8880   YY=             -7.1278   ZZ=             -7.1278
   XY=              0.0000   XZ=             -0.0000   YZ=              0.0000

  Exact polarizability:       9.391      -0.000       2.323       0.000      -0.000       2.323
 Approx polarizability:      13.368      -0.000       2.277       0.000      -0.000       2.277

 ******    1 imaginary frequencies (negative Signs) ******

                      1                      2                      3
                      A                      A                      A
 Frequencies --    -50.1508              1005.2847              1206.9120
 Red. masses --      1.0529                 1.0587                 1.0348
 Frc consts  --      0.0016                 0.6304                 0.8881
 IR Inten    --      0.0713                66.2467               147.1734

                      4
                      A
 Frequencies --   1206.9120
 Red. masses --      1.0348
 Frc consts  --      0.8881
 IR Inten    --    147.1734

 - Thermochemistry -
 -------------------
 Temperature   298.150 Kelvin.  Pressure   1.00000 Atm.
 Atom     1 has atomic number  1 and mass   1.00783

 Molecular mass:    21.01405 amu.
 Principal axes and moments of inertia in atomic units:
                           1         2         3
     Eigenvalues --     0.00000  83.52241  83.52241
           X            1.00000  -0.00000   0.00000
           Y            0.00000   1.00000   0.00000
           Z            0.00000   0.00000   1.00000
 This molecule is a prolate symmetric top.
 Rotational symmetry number  1.
 Rotational temperature (Kelvin)      1.03701
 Rotational constant (GHZ):          21.607869
    1 imaginary frequencies ignored.
 Zero-point vibrational energy      20450.8 (Joules/Mol)
                                    4.88786 (Kcal/Mol)
 Vibrational temperatures:   1446.38  1736.48  1736.48
          (Kelvin)

 Zero-point correction=                           0.007789 (Hartree/Particle)
 Thermal correction to Energy=                    0.010218
 Thermal correction to Enthalpy=                  0.011163
 Thermal correction to Gibbs Free Energy=        -0.012525
 Sum of electronic and zero-point Energies=           -100.917767
 Sum of electronic and thermal Energies=              -100.915338
 Sum of electronic and thermal Enthalpies=            -100.914394
 Sum of electronic and thermal Free Energies=         -100.938081

                     E (Thermal)             CV                S
                      KCal/Mol        Cal/Mol-Kelvin    Cal/Mol-Kelvin
 Total                    6.412              5.740             49.855
 Electronic               0.000              0.000              1.377
 Translational            0.889              2.981             35.068
 Rotational               0.592              1.987             13.237
 Vibrational              4.931              0.772              0.172

 Normal termination of Gaussian 16 at Fri Aug 22 16:11:14 2025.
