 Gaussian 16, Revision C.01,
 Gaussian 16:  ES64L-G16RevC.01  3-Jul-2019

 -----------------------------------------
 # sp b3lyp/6-311g** Force nosymm scf=(qc)
 -----------------------------------------

 -------------------
 Title Card Required
 -------------------
 Symbolic Z-matrix:
 Charge =  0 Multiplicity = 2

                          Input orientation:
 ---------------------------------------------------------------------
 Center     Atomic      Atomic             Coordinates (Angstroms)
 Number     Number       Type             X           Y           Z
 ---------------------------------------------------------------------
      1          1           0        0.000000    0.000000    0.000000
      2          1           0       -1.700000    0.000000    0.000000
      3          9           0        1.850000    0.000000    0.000000
 ---------------------------------------------------------------------

 SCF Done:  E(UB3LYP) =  -100.825788487     a.u. after   17 cycles

 Alpha  occ. eigenvalues --  -24.67401  -1.13783  -0.46878  -0.39077  -0.39077
 Alpha  occ. eigenvalues --   -0.37908
 Alpha virt. eigenvalues --   -0.11939   0.22656   0.30111   0.86680   0.94620
 Alpha virt. eigenvalues --    0.94620   1.03401   1.18979   1.18979   1.31779
 Alpha virt. eigenvalues --    1.35280   1.35280   1.74275   2.15257   2.36710

  Beta  occ. eigenvalues --  -24.65181  -1.07619  -0.38248  -0.36899  -0.36899
  Beta virt. eigenvalues --   -0.22009  -0.10006   0.25378   0.30136   0.89720
  Beta virt. eigenvalues --    0.95117   0.95117   1.07493   1.22670   1.22670
  Beta virt. eigenvalues --    1.35873   1.35873   1.38142   1.75284   2.16031

 Mulliken charges and spin densities:
               1          2
     1  H    0.151520  -0.459767
     2  H    0.063917   0.763688
     3  F   -0.215437   0.696078
 Sum of Mulliken charges =   0.00000   1.00000

 Dipole moment (field-independent basis, Debye):
    X=             -2.4848    Y=              0.0000    Z=             -0.0000  Tot=              2.4848
 Quadrupole moment (field-independent basis, Debye-Ang):
   XX=             -8.3076   YY=             -7.4860   ZZ=             -7.4860
   XY=              0.0000   XZ=             -0.0000   YZ=             -0.0000

  Exact polarizability:      49.056      -0.000       2.123       0.000      -0.000       2.123
 Approx polarizability:      68.165      -0.000       2.047       0.000       0.000       2.047

 ******    2 imaginary frequencies (negative Signs) ******

                      1                      2                      3
                      A                      A                      A
 Frequencies --  -2098.9637              -604.5005               882.6683
 Red. masses --      1.0170                 1.0976                 1.0170
 Frc consts  --      2.6399                 0.2363                 0.4668
 IR Inten    --    350.9751                14.3367                10.7461

                      4
                      A
 Frequencies --    882.6683
 Red. masses --      1.0170
 Frc consts  --      0.4668
 IR Inten    --     10.7461

 - Thermochemistry -
 -------------------
 Temperature   298.150 Kelvin.  Pressure   1.00000 Atm.
 Atom     1 has atomic number  1 and mass   1.00783

 Molecular mass:    21.01405 amu.
 Principal axes and moments of inertia in atomic units:
                           1         2         3
     Eigenvalues --     0.00000  52.64089  52.64089
           X            1.00000  -0.00000   0.00000
           Y            0.00000   1.00000   0.00000
           Z            0.00000   0.00000   1.00000
 This molecule is a prolate symmetric top.
 Rotational symmetry number  1.
 Rotational temperature (Kelvin)      1.64537
 Rotational constant (GHZ):          34.284015
    2 imaginary frequencies ignored.
 Zero-point vibrational energy      10559.1 (Joules/Mol)
                                    2.52368 (Kcal/Mol)
 Vibrational temperatures:   1269.96  1269.96
          (Kelvin)

 Zero-point correction=                           0.004022 (Hartree/Particle)
 Thermal correction to Energy=                    0.006497
 Thermal correction to Enthalpy=                  0.007442
 Thermal correction to Gibbs Free Energy=        -0.015870
 Sum of electronic and zero-point Energies=           -100.821767
 Sum of electronic and thermal Energies=              -100.819291
 Sum of electronic and thermal Enthalpies=            -100.818347
 Sum of electronic and thermal Free Energies=         -100.841659

                     E (Thermal)             CV                S
                      KCal/Mol        Cal/Mol-Kelvin    Cal/Mol-Kelvin
 Total                    4.077              6.016             49.065
 Electronic               0.000              0.000              1.377
 Translational            0.889              2.981             35.068
 Rotational               0.592              1.987             12.320
 Vibrational              2.596              1.048              0.299

 Normal termination of Gaussian 16 at Fri Aug 22 16:46:27 2025.
