 Gaussian 16, Revision C.01,
 Gaussian 16:  ES64L-G16RevC.01  3-Jul-2019

 -----------------------------------------
 # sp b3lyp/6-311g** Force nosymm scf=(qc)
 -----------------------------------------

 -------------------
 Title Card Required
 -------------------
 Symbolic Z-matrix:
 Charge =  0 Multiplicity = 2

                          Input orientation:
 ---------------------------------------------------------------------
 Center     Atomic      Atomic             Coordinates (Angstroms)
 Number     Number       Type             X           Y           Z
 ---------------------------------------------------------------------
      1          1           0        0.000000    0.000000    0.000000
      2          1           0       -1.200000    0.000000    0.000000
      3          9           0        3.800000    0.000000    0.000000
 ---------------------------------------------------------------------

 SCF Done:  E(UB3LYP) =  -100.871614810     a.u. after  229 cycles

 Alpha  occ. eigenvalues --  -24.76255  -1.22148  -0.55350  -0.46530  -0.46506
 Alpha  occ. eigenvalues --   -0.36333
 Alpha virt. eigenvalues --   -0.04084   0.22843   0.34271   0.86025   0.90902
 Alpha virt. eigenvalues --    0.91563   1.00990   1.12908   1.12910   1.22170
 Alpha virt. eigenvalues --    1.54408   1.54410   2.07312   2.31616   2.54389

  Beta  occ. eigenvalues --  -24.73099  -1.13074  -0.43367  -0.43342  -0.36332
  Beta virt. eigenvalues --   -0.25999  -0.04082   0.22847   0.34288   0.92402
  Beta virt. eigenvalues --    0.93056   0.95491   1.05131   1.12907   1.12910
  Beta virt. eigenvalues --    1.22174   1.54408   1.54410   2.07315   2.31617

 Mulliken charges and spin densities:
               1          2
     1  H    0.000786  -0.000080
     2  H   -0.002202  -0.000078
     3  F    0.001416   1.000158
 Sum of Mulliken charges =   0.00000   1.00000

 Dipole moment (field-independent basis, Debye):
    X=              0.0278    Y=             -0.0000    Z=              0.0000  Tot=              0.0278
 Quadrupole moment (field-independent basis, Debye-Ang):
   XX=             -6.3181   YY=             -7.0597   ZZ=             -7.0639
   XY=             -0.0000   XZ=              0.0000   YZ=             -0.4323

  Exact polarizability:      15.840      -0.000       2.312       0.000      -0.233       2.310
 Approx polarizability:      23.957      -0.000       2.397       0.000      -0.291       2.394

 ******    2 imaginary frequencies (negative Signs) ******

                      1                      2                      3
                      A                      A                      A
 Frequencies --   -454.1366               -55.6428              1472.8410
 Red. masses --      1.0078                 1.1085                 1.0097
 Frc consts  --      0.1225                 0.0020                 1.2905
 IR Inten    --      0.0797                 0.0612                 0.0011

                      4
                      A
 Frequencies --   1472.9092
 Red. masses --      1.0097
 Frc consts  --      1.2906
 IR Inten    --      0.0009

 - Thermochemistry -
 -------------------
 Temperature   298.150 Kelvin.  Pressure   1.00000 Atm.
 Atom     1 has atomic number  1 and mass   1.00783

 Molecular mass:    21.01405 amu.
 Principal axes and moments of inertia in atomic units:
                           1         2         3
     Eigenvalues --     0.00000 128.57822 128.57822
           X            1.00000  -0.00000   0.00000
           Y            0.00000   1.00000   0.00000
           Z            0.00000   0.00000   1.00000
 This molecule is a prolate symmetric top.
 Rotational symmetry number  1.
 Rotational temperature (Kelvin)      0.67363
 Rotational constant (GHZ):          14.036135
    2 imaginary frequencies ignored.
 Zero-point vibrational energy      17619.5 (Joules/Mol)
                                    4.21116 (Kcal/Mol)
 Vibrational temperatures:   2119.09  2119.19
          (Kelvin)

 Zero-point correction=                           0.006711 (Hartree/Particle)
 Thermal correction to Energy=                    0.009082
 Thermal correction to Enthalpy=                  0.010027
 Thermal correction to Gibbs Free Energy=        -0.013999
 Sum of electronic and zero-point Energies=           -100.864904
 Sum of electronic and thermal Energies=              -100.862532
 Sum of electronic and thermal Enthalpies=            -100.861588
 Sum of electronic and thermal Free Energies=         -100.885614

                     E (Thermal)             CV                S
                      KCal/Mol        Cal/Mol-Kelvin    Cal/Mol-Kelvin
 Total                    5.699              5.133             50.566
 Electronic               0.000              0.000              1.377
 Translational            0.889              2.981             35.068
 Rotational               0.592              1.987             14.095
 Vibrational              4.218              0.165              0.026

 Normal termination of Gaussian 16 at Sat Aug 23 00:33:32 2025.
