 Gaussian 16, Revision C.01,
 Gaussian 16:  ES64L-G16RevC.01  3-Jul-2019

 -----------------------------------------
 # sp b3lyp/6-311g** Force nosymm scf=(qc)
 -----------------------------------------

 -------------------
 Title Card Required
 -------------------
 Symbolic Z-matrix:
 Charge =  0 Multiplicity = 2

                          Input orientation:
 ---------------------------------------------------------------------
 Center     Atomic      Atomic             Coordinates (Angstroms)
 Number     Number       Type             X           Y           Z
 ---------------------------------------------------------------------
      1          1           0        0.000000    0.000000    0.000000
      2          1           0       -3.100000    0.000000    0.000000
      3          9           0        3.850000    0.000000    0.000000
 ---------------------------------------------------------------------

 SCF Done:  E(UB3LYP) =  -100.759321120     a.u. after   34 cycles

 Alpha  occ. eigenvalues --  -24.75800  -1.21733  -0.54925  -0.46116  -0.46116
 Alpha  occ. eigenvalues --   -0.32336
 Alpha virt. eigenvalues --   -0.07496   0.24885   0.36729   0.86769   0.91220
 Alpha virt. eigenvalues --    0.91220   1.01203   1.25190   1.25190   1.25728
 Alpha virt. eigenvalues --    1.44564   1.44693   1.44693   2.15665   2.39919

  Beta  occ. eigenvalues --  -24.72660  -1.12704  -0.42968  -0.42968  -0.32563
  Beta virt. eigenvalues --   -0.25694  -0.07228   0.24710   0.37111   0.92718
  Beta virt. eigenvalues --    0.92718   0.96102   1.05312   1.24939   1.24939
  Beta virt. eigenvalues --    1.25457   1.44975   1.45102   1.45102   2.15723

 Mulliken charges and spin densities:
               1          2
     1  H    0.003666  -0.989738
     2  H    0.000254   0.994110
     3  F   -0.003919   0.995629
 Sum of Mulliken charges =  -0.00000   1.00000

 Dipole moment (field-independent basis, Debye):
    X=             -0.0817    Y=             -0.0000    Z=              0.0000  Tot=              0.0817
 Quadrupole moment (field-independent basis, Debye-Ang):
   XX=             -6.9501   YY=             -7.6327   ZZ=             -7.6327
   XY=             -0.0000   XZ=              0.0000   YZ=             -0.0000

  Exact polarizability:      15.830       0.000       2.030       0.000      -0.000       2.030
 Approx polarizability:      11.732      -0.000       1.934       0.000       0.000       1.934

 ******    2 imaginary frequencies (negative Signs) ******

                      1                      2                      3
                      A                      A                      A
 Frequencies --   -301.2412               -86.1093               105.2539
 Red. masses --      1.0087                 1.1075                 1.0155
 Frc consts  --      0.0539                 0.0048                 0.0066
 IR Inten    --      1.4698                 1.1402                 0.0120

                      4
                      A
 Frequencies --    105.2539
 Red. masses --      1.0155
 Frc consts  --      0.0066
 IR Inten    --      0.0120

 - Thermochemistry -
 -------------------
 Temperature   298.150 Kelvin.  Pressure   1.00000 Atm.
 Atom     1 has atomic number  1 and mass   1.00783

 Molecular mass:    21.01405 amu.
 Principal axes and moments of inertia in atomic units:
                           1         2         3
     Eigenvalues --     0.00000 207.05454 207.05454
           X            1.00000  -0.00000   0.00000
           Y            0.00000   1.00000   0.00000
           Z            0.00000   0.00000   1.00000
 This molecule is a prolate symmetric top.
 Rotational symmetry number  1.
 Rotational temperature (Kelvin)      0.41831
 Rotational constant (GHZ):           8.716260
    2 imaginary frequencies ignored.
 Zero-point vibrational energy       1259.1 (Joules/Mol)
                                    0.30094 (Kcal/Mol)
 Warning -- explicit consideration of   2 degrees of freedom as
           vibrations may cause significant error
 Vibrational temperatures:    151.44   151.44
          (Kelvin)

 Zero-point correction=                           0.000480 (Hartree/Particle)
 Thermal correction to Energy=                    0.004289
 Thermal correction to Enthalpy=                  0.005233
 Thermal correction to Gibbs Free Energy=        -0.022417
 Sum of electronic and zero-point Energies=           -100.758842
 Sum of electronic and thermal Energies=              -100.755032
 Sum of electronic and thermal Enthalpies=            -100.754088
 Sum of electronic and thermal Free Energies=         -100.781738

                     E (Thermal)             CV                S
                      KCal/Mol        Cal/Mol-Kelvin    Cal/Mol-Kelvin
 Total                    2.692              8.858             58.196
 Electronic               0.000              0.000              1.377
 Translational            0.889              2.981             35.068
 Rotational               0.592              1.987             15.041
 Vibrational              1.210              3.890              6.709
 Vibration     1          0.605              1.945              3.355
 Vibration     2          0.605              1.945              3.355

 Normal termination of Gaussian 16 at Sat Aug 23 01:10:15 2025.
