 Gaussian 16, Revision C.01,
 Gaussian 16:  ES64L-G16RevC.01  3-Jul-2019

 -----------------------------------------
 # sp b3lyp/6-311g** Force nosymm scf=(qc)
 -----------------------------------------

 -------------------
 Title Card Required
 -------------------
 Symbolic Z-matrix:
 Charge =  0 Multiplicity = 2

                          Input orientation:
 ---------------------------------------------------------------------
 Center     Atomic      Atomic             Coordinates (Angstroms)
 Number     Number       Type             X           Y           Z
 ---------------------------------------------------------------------
      1          1           0        0.000000    0.000000    0.000000
      2          1           0       -2.400000    0.000000    0.000000
      3          9           0        1.300000    0.000000    0.000000
 ---------------------------------------------------------------------

 SCF Done:  E(UB3LYP) =  -100.902441970     a.u. after    7 cycles

 Alpha  occ. eigenvalues --  -24.64048  -1.10904  -0.46023  -0.36804  -0.36804
 Alpha  occ. eigenvalues --   -0.35699
 Alpha virt. eigenvalues --   -0.07861   0.24108   0.27267   0.93274   0.93274
 Alpha virt. eigenvalues --    1.02225   1.18098   1.21800   1.21800   1.29883
 Alpha virt. eigenvalues --    1.34172   1.34172   1.72103   2.12583   2.26041

  Beta  occ. eigenvalues --  -24.63958  -1.10673  -0.45653  -0.36721  -0.36721
  Beta virt. eigenvalues --   -0.13202  -0.04400   0.26980   0.35763   0.93261
  Beta virt. eigenvalues --    0.93261   1.02438   1.22358   1.33915   1.33915
  Beta virt. eigenvalues --    1.42410   1.42410   1.45148   1.72394   2.24834

 Mulliken charges and spin densities:
               1          2
     1  H    0.346851  -0.008444
     2  H    0.015676   0.980645
     3  F   -0.362527   0.027800
 Sum of Mulliken charges =  -0.00000   1.00000

 Dipole moment (field-independent basis, Debye):
    X=             -2.5913    Y=             -0.0000    Z=             -0.0000  Tot=              2.5913
 Quadrupole moment (field-independent basis, Debye-Ang):
   XX=             -8.7522   YY=             -7.1927   ZZ=             -7.1927
   XY=             -0.0000   XZ=             -0.0000   YZ=              0.0000

  Exact polarizability:      15.937       0.000       2.305      -0.000      -0.000       2.305
 Approx polarizability:      21.750      -0.000       2.253       0.000      -0.000       2.253

 ******    2 imaginary frequencies (negative Signs) ******

                      1                      2                      3
                      A                      A                      A
 Frequencies --   -780.6749              -165.7876              1133.5486
 Red. masses --      1.0380                 1.0742                 1.0268
 Frc consts  --      0.3727                 0.0174                 0.7773
 IR Inten    --    147.0340                 0.0860               116.0971

                      4
                      A
 Frequencies --   1133.5486
 Red. masses --      1.0268
 Frc consts  --      0.7773
 IR Inten    --    116.0971

 - Thermochemistry -
 -------------------
 Temperature   298.150 Kelvin.  Pressure   1.00000 Atm.
 Atom     1 has atomic number  1 and mass   1.00783

 Molecular mass:    21.01405 amu.
 Principal axes and moments of inertia in atomic units:
                           1         2         3
     Eigenvalues --     0.00000  51.03758  51.03758
           X            1.00000  -0.00000   0.00000
           Y            0.00000   1.00000   0.00000
           Z            0.00000   0.00000   1.00000
 This molecule is a prolate symmetric top.
 Rotational symmetry number  1.
 Rotational temperature (Kelvin)      1.69706
 Rotational constant (GHZ):          35.361027
    2 imaginary frequencies ignored.
 Zero-point vibrational energy      13560.3 (Joules/Mol)
                                    3.24098 (Kcal/Mol)
 Vibrational temperatures:   1630.92  1630.92
          (Kelvin)

 Zero-point correction=                           0.005165 (Hartree/Particle)
 Thermal correction to Energy=                    0.007569
 Thermal correction to Enthalpy=                  0.008513
 Thermal correction to Gibbs Free Energy=        -0.014679
 Sum of electronic and zero-point Energies=           -100.897277
 Sum of electronic and thermal Energies=              -100.894873
 Sum of electronic and thermal Enthalpies=            -100.893929
 Sum of electronic and thermal Free Energies=         -100.917121

                     E (Thermal)             CV                S
                      KCal/Mol        Cal/Mol-Kelvin    Cal/Mol-Kelvin
 Total                    4.750              5.473             48.813
 Electronic               0.000              0.000              1.377
 Translational            0.889              2.981             35.068
 Rotational               0.592              1.987             12.258
 Vibrational              3.268              0.505              0.109

 Normal termination of Gaussian 16 at Fri Aug 22 16:15:20 2025.
