 Gaussian 16, Revision C.01,
 Gaussian 16:  ES64L-G16RevC.01  3-Jul-2019

 -----------------------------------------
 # sp b3lyp/6-311g** Force nosymm scf=(qc)
 -----------------------------------------

 -------------------
 Title Card Required
 -------------------
 Symbolic Z-matrix:
 Charge =  0 Multiplicity = 2

                          Input orientation:
 ---------------------------------------------------------------------
 Center     Atomic      Atomic             Coordinates (Angstroms)
 Number     Number       Type             X           Y           Z
 ---------------------------------------------------------------------
      1          1           0        0.000000    0.000000    0.000000
      2          1           0       -1.650000    0.000000    0.000000
      3          9           0        3.200000    0.000000    0.000000
 ---------------------------------------------------------------------

 SCF Done:  E(UB3LYP) =  -100.800620999     a.u. after   31 cycles

 Alpha  occ. eigenvalues --  -24.75399  -1.21364  -0.54526  -0.45789  -0.45789
 Alpha  occ. eigenvalues --   -0.33888
 Alpha virt. eigenvalues --   -0.11071   0.25130   0.30159   0.88716   0.91436
 Alpha virt. eigenvalues --    0.91436   1.02767   1.06211   1.22444   1.22444
 Alpha virt. eigenvalues --    1.38049   1.38049   1.70550   2.17453   2.42875

  Beta  occ. eigenvalues --  -24.72298  -1.12456  -0.42682  -0.42682  -0.33789
  Beta virt. eigenvalues --   -0.25644  -0.10876   0.25324   0.30478   0.92918
  Beta virt. eigenvalues --    0.92918   0.97678   1.06255   1.06882   1.22558
  Beta virt. eigenvalues --    1.22558   1.38220   1.38220   1.70819   2.18113

 Mulliken charges and spin densities:
               1          2
     1  H    0.000359  -0.539280
     2  H    0.013579   0.556279
     3  F   -0.013938   0.983001
 Sum of Mulliken charges =   0.00000   1.00000

 Dipole moment (field-independent basis, Debye):
    X=             -0.3336    Y=              0.0000    Z=             -0.0000  Tot=              0.3336
 Quadrupole moment (field-independent basis, Debye-Ang):
   XX=             -6.2606   YY=             -7.7561   ZZ=             -7.7561
   XY=              0.0000   XZ=             -0.0000   YZ=             -0.0000

  Exact polarizability:      51.066      -0.000       2.011       0.000      -0.000       2.011
 Approx polarizability:      59.400       0.000       1.987      -0.000       0.000       1.987

 ******    2 imaginary frequencies (negative Signs) ******

                      1                      2                      3
                      A                      A                      A
 Frequencies --  -1994.3083              -164.5898               968.0606
 Red. masses --      1.0079                 1.1085                 1.0119
 Frc consts  --      2.3617                 0.0177                 0.5587
 IR Inten    --     73.9943                13.0125                 0.0223

                      4
                      A
 Frequencies --    968.0606
 Red. masses --      1.0119
 Frc consts  --      0.5587
 IR Inten    --      0.0223

 - Thermochemistry -
 -------------------
 Temperature   298.150 Kelvin.  Pressure   1.00000 Atm.
 Atom     1 has atomic number  1 and mass   1.00783

 Molecular mass:    21.01405 amu.
 Principal axes and moments of inertia in atomic units:
                           1         2         3
     Eigenvalues --     0.00000 110.32617 110.32617
           X            1.00000  -0.00000   0.00000
           Y            0.00000   1.00000   0.00000
           Z            0.00000   0.00000   1.00000
 This molecule is a prolate symmetric top.
 Rotational symmetry number  1.
 Rotational temperature (Kelvin)      0.78507
 Rotational constant (GHZ):          16.358234
    2 imaginary frequencies ignored.
 Zero-point vibrational energy      11580.6 (Joules/Mol)
                                    2.76782 (Kcal/Mol)
 Vibrational temperatures:   1392.82  1392.82
          (Kelvin)

 Zero-point correction=                           0.004411 (Hartree/Particle)
 Thermal correction to Energy=                    0.006855
 Thermal correction to Enthalpy=                  0.007799
 Thermal correction to Gibbs Free Energy=        -0.016171
 Sum of electronic and zero-point Energies=           -100.796210
 Sum of electronic and thermal Energies=              -100.793766
 Sum of electronic and thermal Enthalpies=            -100.792822
 Sum of electronic and thermal Free Energies=         -100.816792

                     E (Thermal)             CV                S
                      KCal/Mol        Cal/Mol-Kelvin    Cal/Mol-Kelvin
 Total                    4.301              5.795             50.449
 Electronic               0.000              0.000              1.377
 Translational            0.889              2.981             35.068
 Rotational               0.592              1.987             13.790
 Vibrational              2.820              0.827              0.213

 Normal termination of Gaussian 16 at Fri Aug 22 20:22:30 2025.
