 Gaussian 16, Revision C.01,
 Gaussian 16:  ES64L-G16RevC.01  3-Jul-2019

 -----------------------------------------
 # sp b3lyp/6-311g** Force nosymm scf=(qc)
 -----------------------------------------

 -------------------
 Title Card Required
 -------------------
 Symbolic Z-matrix:
 Charge =  0 Multiplicity = 2

                          Input orientation:
 ---------------------------------------------------------------------
 Center     Atomic      Atomic             Coordinates (Angstroms)
 Number     Number       Type             X           Y           Z
 ---------------------------------------------------------------------
      1          1           0        0.000000    0.000000    0.000000
      2          1           0       -0.700000    0.000000    0.000000
      3          9           0        0.750000    0.000000    0.000000
 ---------------------------------------------------------------------

 SCF Done:  E(UB3LYP) =  -100.811826705     a.u. after    6 cycles

 Alpha  occ. eigenvalues --  -24.67176  -1.31836  -0.68252  -0.44790  -0.44790
 Alpha  occ. eigenvalues --   -0.31033
 Alpha virt. eigenvalues --    0.16762   0.17778   0.76209   0.86180   0.86180
 Alpha virt. eigenvalues --    0.93092   1.09961   1.09961   1.42616   1.69743
 Alpha virt. eigenvalues --    1.84097   1.84097   2.05571   2.72696   3.76140

  Beta  occ. eigenvalues --  -24.66201  -1.29051  -0.63407  -0.43949  -0.43949
  Beta virt. eigenvalues --   -0.12531   0.17601   0.22085   0.80774   0.88144
  Beta virt. eigenvalues --    0.88144   0.95546   1.15106   1.15106   1.44813
  Beta virt. eigenvalues --    1.76268   1.89491   1.89491   2.10960   2.80038

 Mulliken charges and spin densities:
               1          2
     1  H    0.267973  -0.038731
     2  H   -0.083442   0.860804
     3  F   -0.184531   0.177927
 Sum of Mulliken charges =   0.00000   1.00000

 Dipole moment (field-independent basis, Debye):
    X=             -0.9290    Y=             -0.0000    Z=             -0.0000  Tot=              0.9290
 Quadrupole moment (field-independent basis, Debye-Ang):
   XX=             -7.5064   YY=             -6.4513   ZZ=             -6.4513
   XY=             -0.0000   XZ=             -0.0000   YZ=             -0.0000

  Exact polarizability:       9.285      -0.000       2.515       0.000      -0.000       2.515
 Approx polarizability:       9.610       0.000       2.599       0.000      -0.000       2.599

 ******    2 imaginary frequencies (negative Signs) ******

                      1                      2                      3
                      A                      A                      A
 Frequencies --  -3746.7542             -3746.7542              3725.0035
 Red. masses --      1.0171                 1.0171                 1.0741
 Frc consts  --      8.4127                 8.4127                 8.7808
 IR Inten    --     96.1968                96.1968               206.3531

                      4
                      A
 Frequencies --   7921.8445
 Red. masses --      1.0381
 Frc consts  --     38.3831
 IR Inten    --     29.8186

 - Thermochemistry -
 -------------------
 Temperature   298.150 Kelvin.  Pressure   1.00000 Atm.
 Atom     1 has atomic number  1 and mass   1.00783

 Molecular mass:    21.01405 amu.
 Principal axes and moments of inertia in atomic units:
                           1         2         3
     Eigenvalues --     0.00000   8.75594   8.75594
           X            1.00000  -0.00000   0.00000
           Y            0.00000   1.00000   0.00000
           Z            0.00000   0.00000   1.00000
 This molecule is a prolate symmetric top.
 Rotational symmetry number  1.
 Rotational temperature (Kelvin)      9.89202
 Rotational constant (GHZ):         206.116207
    2 imaginary frequencies ignored.
 Zero-point vibrational energy      69663.6 (Joules/Mol)
                                   16.65001 (Kcal/Mol)
 Vibrational temperatures:   5359.45 11397.77
          (Kelvin)

 Zero-point correction=                           0.026533 (Hartree/Particle)
 Thermal correction to Energy=                    0.028894
 Thermal correction to Enthalpy=                  0.029838
 Thermal correction to Gibbs Free Energy=         0.008362
 Sum of electronic and zero-point Energies=           -100.785293
 Sum of electronic and thermal Energies=              -100.782933
 Sum of electronic and thermal Enthalpies=            -100.781989
 Sum of electronic and thermal Free Energies=         -100.803465

                     E (Thermal)             CV                S
                      KCal/Mol        Cal/Mol-Kelvin    Cal/Mol-Kelvin
 Total                   18.131              4.968             45.201
 Electronic               0.000              0.000              1.377
 Translational            0.889              2.981             35.068
 Rotational               0.592              1.987              8.755
 Vibrational             16.650              0.000              0.000

 Normal termination of Gaussian 16 at Fri Aug 22 15:47:51 2025.
