 Gaussian 16, Revision C.01,
 Gaussian 16:  ES64L-G16RevC.01  3-Jul-2019

 -----------------------------------------
 # sp b3lyp/6-311g** Force nosymm scf=(qc)
 -----------------------------------------

 -------------------
 Title Card Required
 -------------------
 Symbolic Z-matrix:
 Charge =  0 Multiplicity = 2

                          Input orientation:
 ---------------------------------------------------------------------
 Center     Atomic      Atomic             Coordinates (Angstroms)
 Number     Number       Type             X           Y           Z
 ---------------------------------------------------------------------
      1          1           0        0.000000    0.000000    0.000000
      2          1           0       -1.000000    0.000000    0.000000
      3          9           0        2.000000    0.000000    0.000000
 ---------------------------------------------------------------------

 SCF Done:  E(UB3LYP) =  -100.910633766     a.u. after    9 cycles

 Alpha  occ. eigenvalues --  -24.73593  -1.19780  -0.53410  -0.44349  -0.44349
 Alpha  occ. eigenvalues --   -0.41011
 Alpha virt. eigenvalues --    0.00764   0.21149   0.37798   0.90475   0.91334
 Alpha virt. eigenvalues --    0.91334   1.07365   1.07365   1.10209   1.49362
 Alpha virt. eigenvalues --    1.63862   1.63862   2.20692   2.33896   2.59859

  Beta  occ. eigenvalues --  -24.70675  -1.11494  -0.41446  -0.41446  -0.40990
  Beta virt. eigenvalues --   -0.25270   0.01988   0.21844   0.38332   0.92639
  Beta virt. eigenvalues --    0.92639   0.98040   1.08345   1.08345   1.13203
  Beta virt. eigenvalues --    1.51641   1.64511   1.64511   2.21954   2.34914

 Mulliken charges and spin densities:
               1          2
     1  H    0.023872  -0.055393
     2  H    0.040595   0.140521
     3  F   -0.064466   0.914872
 Sum of Mulliken charges =   0.00000   1.00000

 Dipole moment (field-independent basis, Debye):
    X=             -0.8158    Y=              0.0000    Z=             -0.0000  Tot=              0.8158
 Quadrupole moment (field-independent basis, Debye-Ang):
   XX=             -6.4876   YY=             -7.1991   ZZ=             -7.1991
   XY=              0.0000   XZ=              0.0000   YZ=              0.0000

  Exact polarizability:      30.256      -0.000       2.168       0.000       0.000       2.168
 Approx polarizability:      38.742      -0.000       2.193       0.000      -0.000       2.193

 ******    1 imaginary frequencies (negative Signs) ******

                      1                      2                      3
                      A                      A                      A
 Frequencies --   -460.9702              1445.9480              1445.9480
 Red. masses --      1.1052                 1.0117                 1.0117
 Frc consts  --      0.1384                 1.2463                 1.2463
 IR Inten    --    138.2600                 0.0112                 0.0112

                      4
                      A
 Frequencies --   1515.9860
 Red. masses --      1.0106
 Frc consts  --      1.3684
 IR Inten    --    504.5572

 - Thermochemistry -
 -------------------
 Temperature   298.150 Kelvin.  Pressure   1.00000 Atm.
 Atom     1 has atomic number  1 and mass   1.00783

 Molecular mass:    21.01405 amu.
 Principal axes and moments of inertia in atomic units:
                           1         2         3
     Eigenvalues --     0.00000  42.47194  42.47194
           X            1.00000  -0.00000   0.00000
           Y            0.00000   1.00000   0.00000
           Z            0.00000   0.00000   1.00000
 This molecule is a prolate symmetric top.
 Rotational symmetry number  1.
 Rotational temperature (Kelvin)      2.03932
 Rotational constant (GHZ):          42.492556
    1 imaginary frequencies ignored.
 Zero-point vibrational energy      26365.0 (Joules/Mol)
                                    6.30138 (Kcal/Mol)
 Vibrational temperatures:   2080.40  2080.40  2181.17
          (Kelvin)

 Zero-point correction=                           0.010042 (Hartree/Particle)
 Thermal correction to Energy=                    0.012419
 Thermal correction to Enthalpy=                  0.013363
 Thermal correction to Gibbs Free Energy=        -0.009623
 Sum of electronic and zero-point Energies=           -100.900592
 Sum of electronic and thermal Energies=              -100.898215
 Sum of electronic and thermal Enthalpies=            -100.897270
 Sum of electronic and thermal Free Energies=         -100.920257

                     E (Thermal)             CV                S
                      KCal/Mol        Cal/Mol-Kelvin    Cal/Mol-Kelvin
 Total                    7.793              5.220             48.379
 Electronic               0.000              0.000              1.377
 Translational            0.889              2.981             35.068
 Rotational               0.592              1.987             11.893
 Vibrational              6.312              0.252              0.041

 Normal termination of Gaussian 16 at Fri Aug 22 16:55:33 2025.
