 Gaussian 16, Revision C.01,
 Gaussian 16:  ES64L-G16RevC.01  3-Jul-2019

 -----------------------------------------
 # sp b3lyp/6-311g** Force nosymm scf=(qc)
 -----------------------------------------

 -------------------
 Title Card Required
 -------------------
 Symbolic Z-matrix:
 Charge =  0 Multiplicity = 2

                          Input orientation:
 ---------------------------------------------------------------------
 Center     Atomic      Atomic             Coordinates (Angstroms)
 Number     Number       Type             X           Y           Z
 ---------------------------------------------------------------------
      1          1           0        0.000000    0.000000    0.000000
      2          1           0       -1.400000    0.000000    0.000000
      3          9           0        3.750000    0.000000    0.000000
 ---------------------------------------------------------------------

 SCF Done:  E(UB3LYP) =  -100.836466689     a.u. after   23 cycles

 Alpha  occ. eigenvalues --  -24.76283  -1.22176  -0.55377  -0.46559  -0.46533
 Alpha  occ. eigenvalues --   -0.34371
 Alpha virt. eigenvalues --   -0.08123   0.24256   0.31364   0.86000   0.90877
 Alpha virt. eigenvalues --    0.91538   1.00968   1.10723   1.17920   1.17922
 Alpha virt. eigenvalues --    1.45117   1.45119   1.89913   2.25458   2.49708

  Beta  occ. eigenvalues --  -24.73127  -1.13101  -0.43396  -0.43369  -0.34370
  Beta virt. eigenvalues --   -0.26025  -0.08121   0.24260   0.31380   0.92377
  Beta virt. eigenvalues --    0.93032   0.95465   1.05104   1.10731   1.17920
  Beta virt. eigenvalues --    1.17922   1.45117   1.45119   1.89915   2.25460

 Mulliken charges and spin densities:
               1          2
     1  H    0.000882   0.000099
     2  H   -0.002353  -0.000268
     3  F    0.001471   1.000168
 Sum of Mulliken charges =   0.00000   1.00000

 Dipole moment (field-independent basis, Debye):
    X=              0.0315    Y=              0.0000    Z=             -0.0000  Tot=              0.0315
 Quadrupole moment (field-independent basis, Debye-Ang):
   XX=             -6.2968   YY=             -7.5710   ZZ=             -6.9286
   XY=              0.0000   XZ=             -0.0000   YZ=             -0.2893

  Exact polarizability:      20.282      -0.000       2.119       0.000      -0.158       2.469
 Approx polarizability:      35.915       0.000       2.137      -0.000      -0.195       2.570

 ******    2 imaginary frequencies (negative Signs) ******

                      1                      2                      3
                      A                      A                      A
 Frequencies --  -1168.1514               -61.6602              1307.2410
 Red. masses --      1.0078                 1.1085                 1.0103
 Frc consts  --      0.8103                 0.0025                 1.0172
 IR Inten    --      0.1055                 0.0793                 0.0089

                      4
                      A
 Frequencies --   1312.5767
 Red. masses --      1.0103
 Frc consts  --      1.0255
 IR Inten    --      0.0017

 - Thermochemistry -
 -------------------
 Temperature   298.150 Kelvin.  Pressure   1.00000 Atm.
 Atom     1 has atomic number  1 and mass   1.00783

 Molecular mass:    21.01405 amu.
 Principal axes and moments of inertia in atomic units:
                           1         2         3
     Eigenvalues --     0.00000 132.39357 132.39357
           X            1.00000  -0.00000   0.00000
           Y            0.00000   1.00000   0.00000
           Z            0.00000   0.00000   1.00000
 This molecule is a prolate symmetric top.
 Rotational symmetry number  1.
 Rotational temperature (Kelvin)      0.65422
 Rotational constant (GHZ):          13.631638
    2 imaginary frequencies ignored.
 Zero-point vibrational energy      15670.0 (Joules/Mol)
                                    3.74522 (Kcal/Mol)
 Vibrational temperatures:   1880.83  1888.51
          (Kelvin)

 Zero-point correction=                           0.005968 (Hartree/Particle)
 Thermal correction to Energy=                    0.008350
 Thermal correction to Enthalpy=                  0.009295
 Thermal correction to Gibbs Free Energy=        -0.014771
 Sum of electronic and zero-point Energies=           -100.830498
 Sum of electronic and thermal Energies=              -100.828116
 Sum of electronic and thermal Enthalpies=            -100.827172
 Sum of electronic and thermal Free Energies=         -100.851238

                     E (Thermal)             CV                S
                      KCal/Mol        Cal/Mol-Kelvin    Cal/Mol-Kelvin
 Total                    5.240              5.255             50.651
 Electronic               0.000              0.000              1.377
 Translational            0.889              2.981             35.068
 Rotational               0.592              1.987             14.153
 Vibrational              3.759              0.287              0.052

 Normal termination of Gaussian 16 at Sat Aug 23 00:17:16 2025.
