 Gaussian 16, Revision C.01,
 Gaussian 16:  ES64L-G16RevC.01  3-Jul-2019

 -----------------------------------------
 # sp b3lyp/6-311g** Force nosymm scf=(qc)
 -----------------------------------------

 -------------------
 Title Card Required
 -------------------
 Symbolic Z-matrix:
 Charge =  0 Multiplicity = 2

                          Input orientation:
 ---------------------------------------------------------------------
 Center     Atomic      Atomic             Coordinates (Angstroms)
 Number     Number       Type             X           Y           Z
 ---------------------------------------------------------------------
      1          1           0        0.000000    0.000000    0.000000
      2          1           0       -0.950000    0.000000    0.000000
      3          9           0        3.450000    0.000000    0.000000
 ---------------------------------------------------------------------

 SCF Done:  E(UB3LYP) =  -100.915046387     a.u. after   40 cycles

 Alpha  occ. eigenvalues --  -24.76386  -1.22245  -0.55445  -0.46643  -0.46598
 Alpha  occ. eigenvalues --   -0.39571
 Alpha virt. eigenvalues --    0.01557   0.21114   0.40034   0.85965   0.90840
 Alpha virt. eigenvalues --    0.92648   1.01855   1.08746   1.08749   1.41691
 Alpha virt. eigenvalues --    1.69066   1.69070   2.21572   2.37042   2.64766

  Beta  occ. eigenvalues --  -24.73228  -1.13166  -0.43483  -0.43432  -0.39564
  Beta virt. eigenvalues --   -0.26083   0.01568   0.21125   0.40082   0.92340
  Beta virt. eigenvalues --    0.94176   0.95428   1.05913   1.08746   1.08749
  Beta virt. eigenvalues --    1.41698   1.69066   1.69069   2.21583   2.37045

 Mulliken charges and spin densities:
               1          2
     1  H   -0.000893  -0.000364
     2  H   -0.003014  -0.000092
     3  F    0.003907   1.000456
 Sum of Mulliken charges =   0.00000   1.00000

 Dipole moment (field-independent basis, Debye):
    X=              0.0515    Y=             -0.0000    Z=              0.0000  Tot=              0.0515
 Quadrupole moment (field-independent basis, Debye-Ang):
   XX=             -6.2311   YY=             -6.3513   ZZ=             -7.2154
   XY=             -0.0000   XZ=             -0.0000   YZ=              0.0017

  Exact polarizability:      11.362      -0.000       2.507      -0.000       0.001       2.043
 Approx polarizability:      14.467      -0.000       2.682      -0.000       0.001       2.101

 ******    1 imaginary frequencies (negative Signs) ******

                      1                      2                      3
                      A                      A                      A
 Frequencies --    -17.2508              1517.3645              1518.0758
 Red. masses --      1.1085                 1.0093                 1.0093
 Frc consts  --      0.0002                 1.3691                 1.3704
 IR Inten    --      0.1661                 0.0000                 0.0000

                      4
                      A
 Frequencies --   2200.3792
 Red. masses --      1.0078
 Frc consts  --      2.8750
 IR Inten    --      0.1545

 - Thermochemistry -
 -------------------
 Temperature   298.150 Kelvin.  Pressure   1.00000 Atm.
 Atom     1 has atomic number  1 and mass   1.00783

 Molecular mass:    21.01405 amu.
 Principal axes and moments of inertia in atomic units:
                           1         2         3
     Eigenvalues --     0.00000 101.87753 101.87753
           X            1.00000  -0.00000   0.00000
           Y            0.00000   1.00000   0.00000
           Z            0.00000   0.00000   1.00000
 This molecule is a prolate symmetric top.
 Rotational symmetry number  1.
 Rotational temperature (Kelvin)      0.85018
 Rotational constant (GHZ):          17.714810
    1 imaginary frequencies ignored.
 Zero-point vibrational energy      31317.2 (Joules/Mol)
                                    7.48498 (Kcal/Mol)
 Vibrational temperatures:   2183.15  2184.17  3165.85
          (Kelvin)

 Zero-point correction=                           0.011928 (Hartree/Particle)
 Thermal correction to Energy=                    0.014298
 Thermal correction to Enthalpy=                  0.015242
 Thermal correction to Gibbs Free Energy=        -0.008562
 Sum of electronic and zero-point Energies=           -100.903118
 Sum of electronic and thermal Energies=              -100.900748
 Sum of electronic and thermal Enthalpies=            -100.899804
 Sum of electronic and thermal Free Energies=         -100.923608

                     E (Thermal)             CV                S
                      KCal/Mol        Cal/Mol-Kelvin    Cal/Mol-Kelvin
 Total                    8.972              5.114             50.100
 Electronic               0.000              0.000              1.377
 Translational            0.889              2.981             35.068
 Rotational               0.592              1.987             13.632
 Vibrational              7.491              0.146              0.022

 Normal termination of Gaussian 16 at Fri Aug 22 21:26:07 2025.
