 Gaussian 16, Revision C.01,
 Gaussian 16:  ES64L-G16RevC.01  3-Jul-2019

 -----------------------------------------
 # sp b3lyp/6-311g** Force nosymm scf=(qc)
 -----------------------------------------

 -------------------
 Title Card Required
 -------------------
 Symbolic Z-matrix:
 Charge =  0 Multiplicity = 2

                          Input orientation:
 ---------------------------------------------------------------------
 Center     Atomic      Atomic             Coordinates (Angstroms)
 Number     Number       Type             X           Y           Z
 ---------------------------------------------------------------------
      1          1           0        0.000000    0.000000    0.000000
      2          1           0       -2.800000    0.000000    0.000000
      3          9           0        3.450000    0.000000    0.000000
 ---------------------------------------------------------------------

 SCF Done:  E(UB3LYP) =  -100.760856576     a.u. after   27 cycles

 Alpha  occ. eigenvalues --  -24.75330  -1.21297  -0.54452  -0.45719  -0.45719
 Alpha  occ. eigenvalues --   -0.32539
 Alpha virt. eigenvalues --   -0.08666   0.25258   0.35189   0.87775   0.91515
 Alpha virt. eigenvalues --    0.91515   1.01939   1.25026   1.25026   1.26183
 Alpha virt. eigenvalues --    1.42889   1.42889   1.43232   2.15908   2.38660

  Beta  occ. eigenvalues --  -24.72220  -1.12363  -0.42603  -0.42603  -0.32967
  Beta virt. eigenvalues --   -0.25461  -0.08074   0.25047   0.36072   0.93002
  Beta virt. eigenvalues --    0.93002   0.96900   1.05951   1.24524   1.24524
  Beta virt. eigenvalues --    1.25615   1.43827   1.43827   1.44158   2.16345

 Mulliken charges and spin densities:
               1          2
     1  H    0.011496  -0.973040
     2  H    0.001215   0.987146
     3  F   -0.012711   0.985894
 Sum of Mulliken charges =  -0.00000   1.00000

 Dipole moment (field-independent basis, Debye):
    X=             -0.2416    Y=              0.0000    Z=              0.0000  Tot=              0.2416
 Quadrupole moment (field-independent basis, Debye-Ang):
   XX=             -7.3236   YY=             -7.6431   ZZ=             -7.6431
   XY=              0.0000   XZ=              0.0000   YZ=              0.0000

  Exact polarizability:      29.678       0.000       2.027       0.000      -0.000       2.027
 Approx polarizability:      23.108       0.000       1.930       0.000      -0.000       1.930

 ******    2 imaginary frequencies (negative Signs) ******

                      1                      2                      3
                      A                      A                      A
 Frequencies --   -455.2068              -142.3701               161.7552
 Red. masses --      1.0092                 1.1068                 1.0156
 Frc consts  --      0.1232                 0.0132                 0.0157
 IR Inten    --      8.0136                 5.8572                 0.1054

                      4
                      A
 Frequencies --    161.7552
 Red. masses --      1.0156
 Frc consts  --      0.0157
 IR Inten    --      0.1054

 - Thermochemistry -
 -------------------
 Temperature   298.150 Kelvin.  Pressure   1.00000 Atm.
 Atom     1 has atomic number  1 and mass   1.00783

 Molecular mass:    21.01405 amu.
 Principal axes and moments of inertia in atomic units:
                           1         2         3
     Eigenvalues --     0.00000 167.18289 167.18289
           X            1.00000  -0.00000   0.00000
           Y            0.00000   1.00000   0.00000
           Z            0.00000   0.00000   1.00000
 This molecule is a prolate symmetric top.
 Rotational symmetry number  1.
 Rotational temperature (Kelvin)      0.51808
 Rotational constant (GHZ):          10.795012
    2 imaginary frequencies ignored.
 Zero-point vibrational energy       1935.0 (Joules/Mol)
                                    0.46248 (Kcal/Mol)
 Warning -- explicit consideration of   2 degrees of freedom as
           vibrations may cause significant error
 Vibrational temperatures:    232.73   232.73
          (Kelvin)

 Zero-point correction=                           0.000737 (Hartree/Particle)
 Thermal correction to Energy=                    0.004344
 Thermal correction to Enthalpy=                  0.005288
 Thermal correction to Gibbs Free Energy=        -0.021377
 Sum of electronic and zero-point Energies=           -100.760120
 Sum of electronic and thermal Energies=              -100.756513
 Sum of electronic and thermal Enthalpies=            -100.755569
 Sum of electronic and thermal Free Energies=         -100.782233

                     E (Thermal)             CV                S
                      KCal/Mol        Cal/Mol-Kelvin    Cal/Mol-Kelvin
 Total                    2.726              8.747             56.120
 Electronic               0.000              0.000              1.377
 Translational            0.889              2.981             35.068
 Rotational               0.592              1.987             14.616
 Vibrational              1.245              3.779              5.058
 Vibration     1          0.622              1.889              2.529
 Vibration     2          0.622              1.889              2.529

 Normal termination of Gaussian 16 at Fri Aug 22 21:42:16 2025.
