 Gaussian 16, Revision C.01,
 Gaussian 16:  ES64L-G16RevC.01  3-Jul-2019

 -----------------------------------------
 # sp b3lyp/6-311g** Force nosymm scf=(qc)
 -----------------------------------------

 -------------------
 Title Card Required
 -------------------
 Symbolic Z-matrix:
 Charge =  0 Multiplicity = 2

                          Input orientation:
 ---------------------------------------------------------------------
 Center     Atomic      Atomic             Coordinates (Angstroms)
 Number     Number       Type             X           Y           Z
 ---------------------------------------------------------------------
      1          1           0        0.000000    0.000000    0.000000
      2          1           0       -0.500000    0.000000    0.000000
      3          9           0        1.500000    0.000000    0.000000
 ---------------------------------------------------------------------

 SCF Done:  E(UB3LYP) =  -100.855912311     a.u. after    6 cycles

 Alpha  occ. eigenvalues --  -24.72665  -1.19728  -0.59970  -0.45556  -0.44006
 Alpha  occ. eigenvalues --   -0.44006
 Alpha virt. eigenvalues --    0.12575   0.19519   0.55595   0.88323   0.88323
 Alpha virt. eigenvalues --    0.96169   1.12954   1.12954   1.37223   1.66495
 Alpha virt. eigenvalues --    1.85419   1.98574   1.98574   2.49042   3.72361

  Beta  occ. eigenvalues --  -24.69783  -1.11802  -0.53192  -0.41200  -0.41200
  Beta virt. eigenvalues --   -0.23100   0.13238   0.20165   0.57679   0.89564
  Beta virt. eigenvalues --    0.89564   1.02800   1.14588   1.14588   1.40987
  Beta virt. eigenvalues --    1.69005   1.86300   1.99434   1.99434   2.51611

 Mulliken charges and spin densities:
               1          2
     1  H    0.113114  -0.021976
     2  H   -0.010645   0.153954
     3  F   -0.102469   0.868022
 Sum of Mulliken charges =   0.00000   1.00000

 Dipole moment (field-independent basis, Debye):
    X=             -0.7228    Y=              0.0000    Z=              0.0000  Tot=              0.7228
 Quadrupole moment (field-independent basis, Debye-Ang):
   XX=             -6.4478   YY=             -6.4809   ZZ=             -6.4809
   XY=              0.0000   XZ=              0.0000   YZ=              0.0000

  Exact polarizability:      12.651      -0.000       2.191       0.000      -0.000       2.191
 Approx polarizability:      14.350       0.000       2.255       0.000      -0.000       2.255

 ******    2 imaginary frequencies (negative Signs) ******

                      1                      2                      3
                      A                      A                      A
 Frequencies --  -4915.5658             -4915.5658               664.4541
 Red. masses --      1.0098                 1.0098                 1.1085
 Frc consts  --     14.3765                14.3765                 0.2883
 IR Inten    --      0.0061                 0.0061                46.2930

                      4
                      A
 Frequencies --   9855.3581
 Red. masses --      1.0078
 Frc consts  --     57.6742
 IR Inten    --    368.2601

 - Thermochemistry -
 -------------------
 Temperature   298.150 Kelvin.  Pressure   1.00000 Atm.
 Atom     1 has atomic number  1 and mass   1.00783

 Molecular mass:    21.01405 amu.
 Principal axes and moments of inertia in atomic units:
                           1         2         3
     Eigenvalues --     0.00000  20.37937  20.37937
           X            1.00000  -0.00000   0.00000
           Y            0.00000   1.00000   0.00000
           Z            0.00000   0.00000   1.00000
 This molecule is a prolate symmetric top.
 Rotational symmetry number  1.
 Rotational temperature (Kelvin)      4.25008
 Rotational constant (GHZ):          88.557268
    2 imaginary frequencies ignored.
 Zero-point vibrational energy      62922.5 (Joules/Mol)
                                   15.03883 (Kcal/Mol)
 Vibrational temperatures:    956.00 14179.66
          (Kelvin)

 Zero-point correction=                           0.023966 (Hartree/Particle)
 Thermal correction to Energy=                    0.026454
 Thermal correction to Enthalpy=                  0.027398
 Thermal correction to Gibbs Free Energy=         0.004958
 Sum of electronic and zero-point Energies=           -100.831946
 Sum of electronic and thermal Energies=              -100.829458
 Sum of electronic and thermal Enthalpies=            -100.828514
 Sum of electronic and thermal Free Energies=         -100.850955

                     E (Thermal)             CV                S
                      KCal/Mol        Cal/Mol-Kelvin    Cal/Mol-Kelvin
 Total                   16.600              5.867             47.231
 Electronic               0.000              0.000              1.377
 Translational            0.889              2.981             35.068
 Rotational               0.592              1.987             10.434
 Vibrational             15.119              0.899              0.351

 Normal termination of Gaussian 16 at Fri Aug 22 16:24:14 2025.
