 Gaussian 16, Revision C.01,
 Gaussian 16:  ES64L-G16RevC.01  3-Jul-2019

 -----------------------------------------
 # sp b3lyp/6-311g** Force nosymm scf=(qc)
 -----------------------------------------

 -------------------
 Title Card Required
 -------------------
 Symbolic Z-matrix:
 Charge =  0 Multiplicity = 2

                          Input orientation:
 ---------------------------------------------------------------------
 Center     Atomic      Atomic             Coordinates (Angstroms)
 Number     Number       Type             X           Y           Z
 ---------------------------------------------------------------------
      1          1           0        0.000000    0.000000    0.000000
      2          1           0       -1.450000    0.000000    0.000000
      3          9           0        3.350000    0.000000    0.000000
 ---------------------------------------------------------------------

 SCF Done:  E(UB3LYP) =  -100.828442916     a.u. after  356 cycles

 Alpha  occ. eigenvalues --  -24.76470  -1.22333  -0.55530  -0.46736  -0.46683
 Alpha  occ. eigenvalues --   -0.33902
 Alpha virt. eigenvalues --   -0.08971   0.24642   0.30840   0.85882   0.90757
 Alpha virt. eigenvalues --    0.92370   1.01626   1.08946   1.19209   1.19212
 Alpha virt. eigenvalues --    1.43221   1.43225   1.86182   2.24098   2.48484

  Beta  occ. eigenvalues --  -24.73312  -1.13254  -0.43571  -0.43517  -0.33899
  Beta virt. eigenvalues --   -0.26168  -0.08966   0.24654   0.30879   0.92257
  Beta virt. eigenvalues --    0.93892   0.95345   1.05689   1.08965   1.19208
  Beta virt. eigenvalues --    1.19212   1.43221   1.43224   1.86189   2.24099

 Mulliken charges and spin densities:
               1          2
     1  H    0.000221   0.001456
     2  H   -0.004040  -0.001930
     3  F    0.003820   1.000474
 Sum of Mulliken charges =   0.00000   1.00000

 Dipole moment (field-independent basis, Debye):
    X=              0.0648    Y=              0.0000    Z=              0.0000  Tot=              0.0648
 Quadrupole moment (field-independent basis, Debye-Ang):
   XX=             -6.2185   YY=             -7.7119   ZZ=             -6.8783
   XY=             -0.0000   XZ=             -0.0000   YZ=              0.1139

  Exact polarizability:      21.798       0.000       2.057      -0.000       0.061       2.506
 Approx polarizability:      39.943      -0.000       2.061      -0.000       0.077       2.622

 ******    2 imaginary frequencies (negative Signs) ******

                      1                      2                      3
                      A                      A                      A
 Frequencies --  -1222.1197               -33.7501              1266.4210
 Red. masses --      1.0078                 1.1085                 1.0109
 Frc consts  --      0.8869                 0.0007                 0.9553
 IR Inten    --      0.3618                 0.2660                 0.0033

                      4
                      A
 Frequencies --   1267.5250
 Red. masses --      1.0109
 Frc consts  --      0.9569
 IR Inten    --      0.0028

 - Thermochemistry -
 -------------------
 Temperature   298.150 Kelvin.  Pressure   1.00000 Atm.
 Atom     1 has atomic number  1 and mass   1.00783

 Molecular mass:    21.01405 amu.
 Principal axes and moments of inertia in atomic units:
                           1         2         3
     Eigenvalues --     0.00000 111.84605 111.84605
           X            1.00000  -0.00000   0.00000
           Y            0.00000   1.00000   0.00000
           Z            0.00000   0.00000   1.00000
 This molecule is a prolate symmetric top.
 Rotational symmetry number  1.
 Rotational temperature (Kelvin)      0.77440
 Rotational constant (GHZ):          16.135941
    2 imaginary frequencies ignored.
 Zero-point vibrational energy      15156.4 (Joules/Mol)
                                    3.62246 (Kcal/Mol)
 Vibrational temperatures:   1822.10  1823.69
          (Kelvin)

 Zero-point correction=                           0.005773 (Hartree/Particle)
 Thermal correction to Energy=                    0.008159
 Thermal correction to Enthalpy=                  0.009103
 Thermal correction to Gibbs Free Energy=        -0.014808
 Sum of electronic and zero-point Energies=           -100.822670
 Sum of electronic and thermal Energies=              -100.820284
 Sum of electronic and thermal Enthalpies=            -100.819340
 Sum of electronic and thermal Free Energies=         -100.843251

                     E (Thermal)             CV                S
                      KCal/Mol        Cal/Mol-Kelvin    Cal/Mol-Kelvin
 Total                    5.120              5.298             50.326
 Electronic               0.000              0.000              1.377
 Translational            0.889              2.981             35.068
 Rotational               0.592              1.987             13.818
 Vibrational              3.639              0.330              0.063

 Normal termination of Gaussian 16 at Fri Aug 22 20:58:51 2025.
