 Gaussian 16, Revision C.01,
 Gaussian 16:  ES64L-G16RevC.01  3-Jul-2019

 -----------------------------------------
 # sp b3lyp/6-311g** Force nosymm scf=(qc)
 -----------------------------------------

 -------------------
 Title Card Required
 -------------------
 Symbolic Z-matrix:
 Charge =  0 Multiplicity = 2

                          Input orientation:
 ---------------------------------------------------------------------
 Center     Atomic      Atomic             Coordinates (Angstroms)
 Number     Number       Type             X           Y           Z
 ---------------------------------------------------------------------
      1          1           0        0.000000    0.000000    0.000000
      2          1           0       -3.700000    0.000000    0.000000
      3          9           0        1.650000    0.000000    0.000000
 ---------------------------------------------------------------------

 SCF Done:  E(UB3LYP) =  -100.824969098     a.u. after   15 cycles

 Alpha  occ. eigenvalues --  -24.64106  -1.07908  -0.40797  -0.36024  -0.36024
 Alpha  occ. eigenvalues --   -0.33714
 Alpha virt. eigenvalues --   -0.17767   0.19495   0.26871   0.94058   0.94058
 Alpha virt. eigenvalues --    0.98855   1.07345   1.23775   1.23786   1.23786
 Alpha virt. eigenvalues --    1.26334   1.26334   1.70773   2.11439   2.15269

  Beta  occ. eigenvalues --  -24.65293  -1.11119  -0.43806  -0.37169  -0.37169
  Beta virt. eigenvalues --   -0.15545  -0.05704   0.24765   0.38788   0.94385
  Beta virt. eigenvalues --    0.94385   0.98286   1.06434   1.32582   1.32582
  Beta virt. eigenvalues --    1.46267   1.46609   1.46609   1.73850   2.21762

 Mulliken charges and spin densities:
               1          2
     1  H    0.312509   0.375482
     2  H    0.001137   0.998880
     3  F   -0.313646  -0.374362
 Sum of Mulliken charges =   0.00000   1.00000

 Dipole moment (field-independent basis, Debye):
    X=             -2.5442    Y=             -0.0000    Z=             -0.0000  Tot=              2.5442
 Quadrupole moment (field-independent basis, Debye-Ang):
   XX=            -10.2454   YY=             -7.3856   ZZ=             -7.3856
   XY=             -0.0000   XZ=             -0.0000   YZ=              0.0000

  Exact polarizability:      20.266       0.000       2.133      -0.000       0.000       2.133
 Approx polarizability:      34.958       0.000       2.038       0.000      -0.000       2.038

 ******    2 imaginary frequencies (negative Signs) ******

                      1                      2                      3
                      A                      A                      A
 Frequencies --  -1828.5026               -38.9240               843.5473
 Red. masses --      1.0585                 1.0531                 1.0299
 Frc consts  --      2.0851                 0.0009                 0.4318
 IR Inten    --     97.4926                 0.1759                92.5043

                      4
                      A
 Frequencies --    843.5473
 Red. masses --      1.0299
 Frc consts  --      0.4318
 IR Inten    --     92.5043

 - Thermochemistry -
 -------------------
 Temperature   298.150 Kelvin.  Pressure   1.00000 Atm.
 Atom     1 has atomic number  1 and mass   1.00783

 Molecular mass:    21.01405 amu.
 Principal axes and moments of inertia in atomic units:
                           1         2         3
     Eigenvalues --     0.00000 104.35318 104.35318
           X            1.00000  -0.00000   0.00000
           Y            0.00000   1.00000   0.00000
           Z            0.00000   0.00000   1.00000
 This molecule is a prolate symmetric top.
 Rotational symmetry number  1.
 Rotational temperature (Kelvin)      0.83001
 Rotational constant (GHZ):          17.294549
    2 imaginary frequencies ignored.
 Zero-point vibrational energy      10091.1 (Joules/Mol)
                                    2.41182 (Kcal/Mol)
 Vibrational temperatures:   1213.68  1213.68
          (Kelvin)

 Zero-point correction=                           0.003843 (Hartree/Particle)
 Thermal correction to Energy=                    0.006337
 Thermal correction to Enthalpy=                  0.007282
 Thermal correction to Gibbs Free Energy=        -0.016700
 Sum of electronic and zero-point Energies=           -100.821126
 Sum of electronic and thermal Energies=              -100.818632
 Sum of electronic and thermal Enthalpies=            -100.817688
 Sum of electronic and thermal Free Energies=         -100.841670

                     E (Thermal)             CV                S
                      KCal/Mol        Cal/Mol-Kelvin    Cal/Mol-Kelvin
 Total                    3.977              6.131             50.474
 Electronic               0.000              0.000              1.377
 Translational            0.889              2.981             35.068
 Rotational               0.592              1.987             13.680
 Vibrational              2.496              1.163              0.349

 Normal termination of Gaussian 16 at Fri Aug 22 16:35:50 2025.
