 Gaussian 16, Revision C.01,
 Gaussian 16:  ES64L-G16RevC.01  3-Jul-2019

 -----------------------------------------
 # sp b3lyp/6-311g** Force nosymm scf=(qc)
 -----------------------------------------

 -------------------
 Title Card Required
 -------------------
 Symbolic Z-matrix:
 Charge =  0 Multiplicity = 2

                          Input orientation:
 ---------------------------------------------------------------------
 Center     Atomic      Atomic             Coordinates (Angstroms)
 Number     Number       Type             X           Y           Z
 ---------------------------------------------------------------------
      1          1           0        0.000000    0.000000    0.000000
      2          1           0       -3.750000    0.000000    0.000000
      3          9           0        2.400000    0.000000    0.000000
 ---------------------------------------------------------------------

 SCF Done:  E(UB3LYP) =  -100.769392599     a.u. after   20 cycles

 Alpha  occ. eigenvalues --  -24.68302  -1.09444  -0.39395  -0.39395  -0.35801
 Alpha  occ. eigenvalues --   -0.32821
 Alpha virt. eigenvalues --   -0.22903   0.21021   0.27779   0.94417   0.95256
 Alpha virt. eigenvalues --    0.95256   1.08369   1.21815   1.21815   1.24638
 Alpha virt. eigenvalues --    1.24638   1.24649   1.33070   2.10568   2.16185

  Beta  occ. eigenvalues --  -24.71081  -1.17335  -0.50173  -0.42161  -0.42161
  Beta virt. eigenvalues --   -0.11145  -0.04372   0.32403   0.40373   0.89226
  Beta virt. eigenvalues --    0.93952   0.93952   1.06269   1.39563   1.39563
  Beta virt. eigenvalues --    1.46107   1.48320   1.48320   1.48439   2.35068

 Mulliken charges and spin densities:
               1          2
     1  H    0.106599   0.877847
     2  H    0.000483   0.999525
     3  F   -0.107081  -0.877372
 Sum of Mulliken charges =   0.00000   1.00000

 Dipole moment (field-independent basis, Debye):
    X=             -1.3101    Y=             -0.0000    Z=             -0.0000  Tot=              1.3101
 Quadrupole moment (field-independent basis, Debye-Ang):
   XX=             -9.5607   YY=             -7.5480   ZZ=             -7.5480
   XY=             -0.0000   XZ=             -0.0000   YZ=             -0.0000

  Exact polarizability:      29.745      -0.000       2.030      -0.000       0.000       2.030
 Approx polarizability:      39.411      -0.000       1.923      -0.000       0.000       1.923

 ******    1 imaginary frequencies (negative Signs) ******

                      1                      2                      3
                      A                      A                      A
 Frequencies --   -672.8694                62.1799               270.9899
 Red. masses --      1.0594                 1.0521                 1.0241
 Frc consts  --      0.2826                 0.0024                 0.0443
 IR Inten    --     86.0180                 0.0307                10.9932

                      4
                      A
 Frequencies --    270.9899
 Red. masses --      1.0241
 Frc consts  --      0.0443
 IR Inten    --     10.9932

 - Thermochemistry -
 -------------------
 Temperature   298.150 Kelvin.  Pressure   1.00000 Atm.
 Atom     1 has atomic number  1 and mass   1.00783

 Molecular mass:    21.01405 amu.
 Principal axes and moments of inertia in atomic units:
                           1         2         3
     Eigenvalues --     0.00000 144.23579 144.23579
           X            1.00000  -0.00000   0.00000
           Y            0.00000   1.00000   0.00000
           Z            0.00000   0.00000   1.00000
 This molecule is a prolate symmetric top.
 Rotational symmetry number  1.
 Rotational temperature (Kelvin)      0.60050
 Rotational constant (GHZ):          12.512437
    1 imaginary frequencies ignored.
 Zero-point vibrational energy       3613.7 (Joules/Mol)
                                    0.86369 (Kcal/Mol)
 Warning -- explicit consideration of   3 degrees of freedom as
           vibrations may cause significant error
 Vibrational temperatures:     89.46   389.89   389.89
          (Kelvin)

 Zero-point correction=                           0.001376 (Hartree/Particle)
 Thermal correction to Energy=                    0.005462
 Thermal correction to Enthalpy=                  0.006406
 Thermal correction to Gibbs Free Energy=        -0.021311
 Sum of electronic and zero-point Energies=           -100.768016
 Sum of electronic and thermal Energies=              -100.763931
 Sum of electronic and thermal Enthalpies=            -100.762987
 Sum of electronic and thermal Free Energies=         -100.790703

                     E (Thermal)             CV                S
                      KCal/Mol        Cal/Mol-Kelvin    Cal/Mol-Kelvin
 Total                    3.427             10.394             58.335
 Electronic               0.000              0.000              1.377
 Translational            0.889              2.981             35.068
 Rotational               0.592              1.987             14.323
 Vibrational              1.946              5.426              7.567
 Vibration     1          0.597              1.972              4.387
 Vibration     2          0.675              1.727              1.590
 Vibration     3          0.675              1.727              1.590

 Normal termination of Gaussian 16 at Fri Aug 22 17:33:47 2025.
