 Gaussian 16, Revision C.01,
 Gaussian 16:  ES64L-G16RevC.01  3-Jul-2019

 -----------------------------------------
 # sp b3lyp/6-311g** Force nosymm scf=(qc)
 -----------------------------------------

 -------------------
 Title Card Required
 -------------------
 Symbolic Z-matrix:
 Charge =  0 Multiplicity = 2

                          Input orientation:
 ---------------------------------------------------------------------
 Center     Atomic      Atomic             Coordinates (Angstroms)
 Number     Number       Type             X           Y           Z
 ---------------------------------------------------------------------
      1          1           0        0.000000    0.000000    0.000000
      2          1           0       -3.300000    0.000000    0.000000
      3          9           0        1.450000    0.000000    0.000000
 ---------------------------------------------------------------------

 SCF Done:  E(UB3LYP) =  -100.865895488     a.u. after    8 cycles

 Alpha  occ. eigenvalues --  -24.64336  -1.09943  -0.43869  -0.36537  -0.36537
 Alpha  occ. eigenvalues --   -0.34191
 Alpha virt. eigenvalues --   -0.13161   0.20764   0.27865   0.93304   0.93304
 Alpha virt. eigenvalues --    1.03521   1.12344   1.23324   1.23324   1.23474
 Alpha virt. eigenvalues --    1.31960   1.31960   1.72599   2.13687   2.19839

  Beta  occ. eigenvalues --  -24.64308  -1.09870  -0.43795  -0.36511  -0.36511
  Beta virt. eigenvalues --   -0.13656  -0.06753   0.23851   0.37995   0.93294
  Beta virt. eigenvalues --    0.93294   1.03597   1.12403   1.31844   1.31844
  Beta virt. eigenvalues --    1.45429   1.45902   1.45902   1.72601   2.19554

 Mulliken charges and spin densities:
               1          2
     1  H    0.351975  -0.005847
     2  H    0.002874   0.996915
     3  F   -0.354849   0.008932
 Sum of Mulliken charges =   0.00000   1.00000

 Dipole moment (field-independent basis, Debye):
    X=             -2.5858    Y=              0.0000    Z=             -0.0000  Tot=              2.5858
 Quadrupole moment (field-independent basis, Debye-Ang):
   XX=             -9.6527   YY=             -7.2943   ZZ=             -7.2943
   XY=              0.0000   XZ=             -0.0000   YZ=             -0.0000

  Exact polarizability:      15.036       0.000       2.211      -0.000      -0.000       2.211
 Approx polarizability:      26.173       0.000       2.141      -0.000       0.000       2.141

 ******    2 imaginary frequencies (negative Signs) ******

                      1                      2                      3
                      A                      A                      A
 Frequencies --  -1107.1010               -96.4358              1050.6566
 Red. masses --      1.0569                 1.0546                 1.0301
 Frc consts  --      0.7633                 0.0058                 0.6700
 IR Inten    --     54.2686                 0.3485               119.9185

                      4
                      A
 Frequencies --   1050.6566
 Red. masses --      1.0301
 Frc consts  --      0.6700
 IR Inten    --    119.9185

 - Thermochemistry -
 -------------------
 Temperature   298.150 Kelvin.  Pressure   1.00000 Atm.
 Atom     1 has atomic number  1 and mass   1.00783

 Molecular mass:    21.01405 amu.
 Principal axes and moments of inertia in atomic units:
                           1         2         3
     Eigenvalues --     0.00000  82.13454  82.13454
           X            1.00000  -0.00000   0.00000
           Y            0.00000   1.00000   0.00000
           Z            0.00000   0.00000   1.00000
 This molecule is a prolate symmetric top.
 Rotational symmetry number  1.
 Rotational temperature (Kelvin)      1.05454
 Rotational constant (GHZ):          21.972988
    2 imaginary frequencies ignored.
 Zero-point vibrational energy      12568.6 (Joules/Mol)
                                    3.00398 (Kcal/Mol)
 Vibrational temperatures:   1511.66  1511.66
          (Kelvin)

 Zero-point correction=                           0.004787 (Hartree/Particle)
 Thermal correction to Energy=                    0.007208
 Thermal correction to Enthalpy=                  0.008152
 Thermal correction to Gibbs Free Energy=        -0.015510
 Sum of electronic and zero-point Energies=           -100.861108
 Sum of electronic and thermal Energies=              -100.858687
 Sum of electronic and thermal Enthalpies=            -100.857743
 Sum of electronic and thermal Free Energies=         -100.881406

                     E (Thermal)             CV                S
                      KCal/Mol        Cal/Mol-Kelvin    Cal/Mol-Kelvin
 Total                    4.523              5.618             49.802
 Electronic               0.000              0.000              1.377
 Translational            0.889              2.981             35.068
 Rotational               0.592              1.987             13.204
 Vibrational              3.042              0.650              0.152

 Normal termination of Gaussian 16 at Fri Aug 22 16:23:44 2025.
