 Gaussian 16, Revision C.01,
 Gaussian 16:  ES64L-G16RevC.01  3-Jul-2019

 -----------------------------------------
 # sp b3lyp/6-311g** Force nosymm scf=(qc)
 -----------------------------------------

 -------------------
 Title Card Required
 -------------------
 Symbolic Z-matrix:
 Charge =  0 Multiplicity = 2

                          Input orientation:
 ---------------------------------------------------------------------
 Center     Atomic      Atomic             Coordinates (Angstroms)
 Number     Number       Type             X           Y           Z
 ---------------------------------------------------------------------
      1          1           0        0.000000    0.000000    0.000000
      2          1           0       -4.000000    0.000000    0.000000
      3          9           0        3.750000    0.000000    0.000000
 ---------------------------------------------------------------------

 SCF Done:  E(UB3LYP) =  -100.758529763     a.u. after   27 cycles

 Alpha  occ. eigenvalues --  -24.75703  -1.21643  -0.54827  -0.46034  -0.46034
 Alpha  occ. eigenvalues --   -0.32247
 Alpha virt. eigenvalues --   -0.05744   0.24188   0.37783   0.86947   0.91283
 Alpha virt. eigenvalues --    0.91283   1.01330   1.25247   1.25247   1.25268
 Alpha virt. eigenvalues --    1.47072   1.47072   1.48025   2.14567   2.42985

  Beta  occ. eigenvalues --  -24.72569  -1.12632  -0.42891  -0.42891  -0.32565
  Beta virt. eigenvalues --   -0.25643  -0.05790   0.23945   0.38213   0.92778
  Beta virt. eigenvalues --    0.92778   0.96225   1.05413   1.24894   1.24894
  Beta virt. eigenvalues --    1.24897   1.46743   1.46822   1.46822   2.14601

 Mulliken charges and spin densities:
               1          2
     1  H    0.005579  -0.993189
     2  H    0.000027   0.999374
     3  F   -0.005606   0.993816
 Sum of Mulliken charges =  -0.00000   1.00000

 Dipole moment (field-independent basis, Debye):
    X=             -0.1089    Y=              0.0000    Z=             -0.0000  Tot=              0.1089
 Quadrupole moment (field-independent basis, Debye-Ang):
   XX=             -7.1206   YY=             -7.6184   ZZ=             -7.6184
   XY=              0.0000   XZ=             -0.0000   YZ=              0.0000

  Exact polarizability:      15.967       0.000       2.032      -0.000       0.000       2.032
 Approx polarizability:      11.822       0.000       1.936      -0.000      -0.000       1.936

 ******    2 imaginary frequencies (negative Signs) ******

                      1                      2                      3
                      A                      A                      A
 Frequencies --   -164.6198               -63.4896                49.8104
 Red. masses --      1.0370                 1.0753                 1.0187
 Frc consts  --      0.0166                 0.0026                 0.0015
 IR Inten    --      4.0415                 0.2047                 0.0312

                      4
                      A
 Frequencies --     49.8105
 Red. masses --      1.0187
 Frc consts  --      0.0015
 IR Inten    --      0.0312

 - Thermochemistry -
 -------------------
 Temperature   298.150 Kelvin.  Pressure   1.00000 Atm.
 Atom     1 has atomic number  1 and mass   1.00783

 Molecular mass:    21.01405 amu.
 Principal axes and moments of inertia in atomic units:
                           1         2         3
     Eigenvalues --     0.00000 243.94924 243.94924
           X            1.00000  -0.00000   0.00000
           Y            0.00000   1.00000   0.00000
           Z            0.00000   0.00000   1.00000
 This molecule is a prolate symmetric top.
 Rotational symmetry number  1.
 Rotational temperature (Kelvin)      0.35505
 Rotational constant (GHZ):           7.398019
    2 imaginary frequencies ignored.
 Zero-point vibrational energy        595.9 (Joules/Mol)
                                    0.14242 (Kcal/Mol)
 Warning -- explicit consideration of   2 degrees of freedom as
           vibrations may cause significant error
 Vibrational temperatures:     71.67    71.67
          (Kelvin)

 Zero-point correction=                           0.000227 (Hartree/Particle)
 Thermal correction to Energy=                    0.004258
 Thermal correction to Enthalpy=                  0.005202
 Thermal correction to Gibbs Free Energy=        -0.024001
 Sum of electronic and zero-point Energies=           -100.758303
 Sum of electronic and thermal Energies=              -100.754272
 Sum of electronic and thermal Enthalpies=            -100.753328
 Sum of electronic and thermal Free Energies=         -100.782530

                     E (Thermal)             CV                S
                      KCal/Mol        Cal/Mol-Kelvin    Cal/Mol-Kelvin
 Total                    2.672              8.923             61.462
 Electronic               0.000              0.000              1.377
 Translational            0.889              2.981             35.068
 Rotational               0.592              1.987             15.367
 Vibrational              1.191              3.955              9.650
 Vibration     1          0.595              1.978              4.825
 Vibration     2          0.595              1.978              4.825

 Normal termination of Gaussian 16 at Sat Aug 23 00:28:43 2025.
