 Gaussian 16, Revision C.01,
 Gaussian 16:  ES64L-G16RevC.01  3-Jul-2019

 -----------------------------------------
 # sp b3lyp/6-311g** Force nosymm scf=(qc)
 -----------------------------------------

 -------------------
 Title Card Required
 -------------------
 Symbolic Z-matrix:
 Charge =  0 Multiplicity = 2

                          Input orientation:
 ---------------------------------------------------------------------
 Center     Atomic      Atomic             Coordinates (Angstroms)
 Number     Number       Type             X           Y           Z
 ---------------------------------------------------------------------
      1          1           0        0.000000    0.000000    0.000000
      2          1           0       -1.500000    0.000000    0.000000
      3          9           0        2.200000    0.000000    0.000000
 ---------------------------------------------------------------------

 SCF Done:  E(UB3LYP) =  -100.828952060     a.u. after   13 cycles

 Alpha  occ. eigenvalues --  -24.71445  -1.17699  -0.50740  -0.42491  -0.42491
 Alpha  occ. eigenvalues --   -0.37074
 Alpha virt. eigenvalues --   -0.10673   0.23000   0.31453   0.86202   0.93435
 Alpha virt. eigenvalues --    0.93435   1.03043   1.17093   1.17093   1.22705
 Alpha virt. eigenvalues --    1.39169   1.39169   1.80444   2.19636   2.45242

  Beta  occ. eigenvalues --  -24.68676  -1.09847  -0.39738  -0.39738  -0.36507
  Beta virt. eigenvalues --   -0.24120  -0.09454   0.24647   0.31346   0.91197
  Beta virt. eigenvalues --    0.94689   0.94689   1.06735   1.18321   1.18321
  Beta virt. eigenvalues --    1.26700   1.39912   1.39912   1.81547   2.20732

 Mulliken charges and spin densities:
               1          2
     1  H    0.050434  -0.344944
     2  H    0.052976   0.472688
     3  F   -0.103410   0.872257
 Sum of Mulliken charges =  -0.00000   1.00000

 Dipole moment (field-independent basis, Debye):
    X=             -1.5194    Y=             -0.0000    Z=             -0.0000  Tot=              1.5194
 Quadrupole moment (field-independent basis, Debye-Ang):
   XX=             -7.3832   YY=             -7.5938   ZZ=             -7.5938
   XY=             -0.0000   XZ=             -0.0000   YZ=             -0.0000

  Exact polarizability:      55.818      -0.000       2.081      -0.000      -0.000       2.081
 Approx polarizability:      82.624       0.000       2.045       0.000       0.000       2.045

 ******    2 imaginary frequencies (negative Signs) ******

                      1                      2                      3
                      A                      A                      A
 Frequencies --  -2088.2788              -404.5537              1106.7576
 Red. masses --      1.0098                 1.1061                 1.0140
 Frc consts  --      2.5946                 0.1067                 0.7318
 IR Inten    --    762.1973                27.8246                 0.4156

                      4
                      A
 Frequencies --   1106.7576
 Red. masses --      1.0140
 Frc consts  --      0.7318
 IR Inten    --      0.4156

 - Thermochemistry -
 -------------------
 Temperature   298.150 Kelvin.  Pressure   1.00000 Atm.
 Atom     1 has atomic number  1 and mass   1.00783

 Molecular mass:    21.01405 amu.
 Principal axes and moments of inertia in atomic units:
                           1         2         3
     Eigenvalues --     0.00000  60.68118  60.68118
           X            1.00000  -0.00000   0.00000
           Y            0.00000   1.00000   0.00000
           Z            0.00000   0.00000   1.00000
 This molecule is a prolate symmetric top.
 Rotational symmetry number  1.
 Rotational temperature (Kelvin)      1.42736
 Rotational constant (GHZ):          29.741366
    2 imaginary frequencies ignored.
 Zero-point vibrational energy      13239.8 (Joules/Mol)
                                    3.16438 (Kcal/Mol)
 Vibrational temperatures:   1592.38  1592.38
          (Kelvin)

 Zero-point correction=                           0.005043 (Hartree/Particle)
 Thermal correction to Energy=                    0.007452
 Thermal correction to Enthalpy=                  0.008396
 Thermal correction to Gibbs Free Energy=        -0.014966
 Sum of electronic and zero-point Energies=           -100.823909
 Sum of electronic and thermal Energies=              -100.821500
 Sum of electronic and thermal Enthalpies=            -100.820556
 Sum of electronic and thermal Free Energies=         -100.843918

                     E (Thermal)             CV                S
                      KCal/Mol        Cal/Mol-Kelvin    Cal/Mol-Kelvin
 Total                    4.676              5.516             49.169
 Electronic               0.000              0.000              1.377
 Translational            0.889              2.981             35.068
 Rotational               0.592              1.987             12.602
 Vibrational              3.195              0.548              0.121

 Normal termination of Gaussian 16 at Fri Aug 22 17:11:11 2025.
