 Gaussian 16, Revision C.01,
 Gaussian 16:  ES64L-G16RevC.01  3-Jul-2019

 -----------------------------------------
 # sp b3lyp/6-311g** Force nosymm scf=(qc)
 -----------------------------------------

 -------------------
 Title Card Required
 -------------------
 Symbolic Z-matrix:
 Charge =  0 Multiplicity = 2

                          Input orientation:
 ---------------------------------------------------------------------
 Center     Atomic      Atomic             Coordinates (Angstroms)
 Number     Number       Type             X           Y           Z
 ---------------------------------------------------------------------
      1          1           0        0.000000    0.000000    0.000000
      2          1           0       -1.350000    0.000000    0.000000
      3          9           0        0.850000    0.000000    0.000000
 ---------------------------------------------------------------------

 SCF Done:  E(UB3LYP) =  -100.959890339     a.u. after    5 cycles

 Alpha  occ. eigenvalues --  -24.63659  -1.21088  -0.56782  -0.40058  -0.40058
 Alpha  occ. eigenvalues --   -0.36575
 Alpha virt. eigenvalues --    0.12690   0.20454   0.44541   0.93654   0.93654
 Alpha virt. eigenvalues --    0.96998   1.13229   1.13229   1.32683   1.47599
 Alpha virt. eigenvalues --    1.47599   1.56018   2.10467   2.21157   2.85615

  Beta  occ. eigenvalues --  -24.63383  -1.20373  -0.54942  -0.39825  -0.39825
  Beta virt. eigenvalues --   -0.14899   0.14244   0.26503   0.49165   0.94060
  Beta virt. eigenvalues --    0.94060   0.97566   1.23186   1.23186   1.38639
  Beta virt. eigenvalues --    1.53306   1.53306   1.62115   2.13893   2.36609

 Mulliken charges and spin densities:
               1          2
     1  H    0.264758   0.006709
     2  H    0.021174   0.932038
     3  F   -0.285931   0.061254
 Sum of Mulliken charges =   0.00000   1.00000

 Dipole moment (field-independent basis, Debye):
    X=             -1.9266    Y=              0.0000    Z=              0.0000  Tot=              1.9266
 Quadrupole moment (field-independent basis, Debye-Ang):
   XX=             -7.4167   YY=             -6.6799   ZZ=             -6.6799
   XY=              0.0000   XZ=              0.0000   YZ=             -0.0000

  Exact polarizability:      10.056      -0.000       2.562       0.000       0.000       2.562
 Approx polarizability:      10.321      -0.000       2.575      -0.000       0.000       2.575

 ******    2 imaginary frequencies (negative Signs) ******

                      1                      2                      3
                      A                      A                      A
 Frequencies --  -1397.8559             -1397.8559               866.7858
 Red. masses --      1.0244                 1.0244                 1.0526
 Frc consts  --      1.1794                 1.1794                 0.4659
 IR Inten    --    113.6408               113.6408                 6.0290

                      4
                      A
 Frequencies --   5178.6132
 Red. masses --      1.0590
 Frc consts  --     16.7330
 IR Inten    --    167.6170

 - Thermochemistry -
 -------------------
 Temperature   298.150 Kelvin.  Pressure   1.00000 Atm.
 Atom     1 has atomic number  1 and mass   1.00783

 Molecular mass:    21.01405 amu.
 Principal axes and moments of inertia in atomic units:
                           1         2         3
     Eigenvalues --     0.00000  18.41381  18.41381
           X            1.00000  -0.00000   0.00000
           Y            0.00000   1.00000   0.00000
           Z            0.00000   0.00000   1.00000
 This molecule is a prolate symmetric top.
 Rotational symmetry number  1.
 Rotational temperature (Kelvin)      4.70375
 Rotational constant (GHZ):          98.010205
    2 imaginary frequencies ignored.
 Zero-point vibrational energy      36159.5 (Joules/Mol)
                                    8.64233 (Kcal/Mol)
 Vibrational temperatures:   1247.11  7450.87
          (Kelvin)

 Zero-point correction=                           0.013772 (Hartree/Particle)
 Thermal correction to Energy=                    0.016194
 Thermal correction to Enthalpy=                  0.017138
 Thermal correction to Gibbs Free Energy=        -0.005116
 Sum of electronic and zero-point Energies=           -100.946118
 Sum of electronic and thermal Energies=              -100.943696
 Sum of electronic and thermal Enthalpies=            -100.942752
 Sum of electronic and thermal Free Energies=         -100.965006

                     E (Thermal)             CV                S
                      KCal/Mol        Cal/Mol-Kelvin    Cal/Mol-Kelvin
 Total                   10.162              5.515             46.837
 Electronic               0.000              0.000              1.377
 Translational            0.889              2.981             35.068
 Rotational               0.592              1.987             10.233
 Vibrational              8.681              0.547              0.159

 Normal termination of Gaussian 16 at Fri Aug 22 15:53:00 2025.
