 Gaussian 16, Revision C.01,
 Gaussian 16:  ES64L-G16RevC.01  3-Jul-2019

 -----------------------------------------
 # sp b3lyp/6-311g** Force nosymm scf=(qc)
 -----------------------------------------

 -------------------
 Title Card Required
 -------------------
 Symbolic Z-matrix:
 Charge =  0 Multiplicity = 2

                          Input orientation:
 ---------------------------------------------------------------------
 Center     Atomic      Atomic             Coordinates (Angstroms)
 Number     Number       Type             X           Y           Z
 ---------------------------------------------------------------------
      1          1           0        0.000000    0.000000    0.000000
      2          1           0       -1.700000    0.000000    0.000000
      3          9           0        1.650000    0.000000    0.000000
 ---------------------------------------------------------------------

 SCF Done:  E(UB3LYP) =  -100.845479143     a.u. after   17 cycles

 Alpha  occ. eigenvalues --  -24.65480  -1.11856  -0.45688  -0.38292  -0.37484
 Alpha  occ. eigenvalues --   -0.37484
 Alpha virt. eigenvalues --   -0.10841   0.22115   0.29038   0.91180   0.94412
 Alpha virt. eigenvalues --    0.94412   1.03807   1.18231   1.18231   1.35859
 Alpha virt. eigenvalues --    1.35859   1.37340   1.77600   2.14720   2.35506

  Beta  occ. eigenvalues --  -24.63794  -1.07265  -0.39827  -0.35851  -0.35851
  Beta virt. eigenvalues --   -0.21277  -0.08049   0.25163   0.29972   0.94428
  Beta virt. eigenvalues --    0.94428   0.94725   1.07268   1.24664   1.24664
  Beta virt. eigenvalues --    1.36631   1.36631   1.44351   1.79439   2.16614

 Mulliken charges and spin densities:
               1          2
     1  H    0.218611  -0.342934
     2  H    0.067001   0.815503
     3  F   -0.285612   0.527431
 Sum of Mulliken charges =   0.00000   1.00000

 Dipole moment (field-independent basis, Debye):
    X=             -2.8540    Y=              0.0000    Z=              0.0000  Tot=              2.8540
 Quadrupole moment (field-independent basis, Debye-Ang):
   XX=             -8.4469   YY=             -7.3726   ZZ=             -7.3726
   XY=             -0.0000   XZ=              0.0000   YZ=              0.0000

  Exact polarizability:      41.463       0.000       2.195       0.000       0.000       2.195
 Approx polarizability:      57.796      -0.000       2.120      -0.000      -0.000       2.120

 ******    2 imaginary frequencies (negative Signs) ******

                      1                      2                      3
                      A                      A                      A
 Frequencies --  -2312.3632              -584.6467               935.5943
 Red. masses --      1.0244                 1.0891                 1.0183
 Frc consts  --      3.2274                 0.2193                 0.5252
 IR Inten    --    256.9007                 1.0693                25.5004

                      4
                      A
 Frequencies --    935.5943
 Red. masses --      1.0183
 Frc consts  --      0.5252
 IR Inten    --     25.5004

 - Thermochemistry -
 -------------------
 Temperature   298.150 Kelvin.  Pressure   1.00000 Atm.
 Atom     1 has atomic number  1 and mass   1.00783

 Molecular mass:    21.01405 amu.
 Principal axes and moments of inertia in atomic units:
                           1         2         3
     Eigenvalues --     0.00000  45.87300  45.87300
           X            1.00000  -0.00000   0.00000
           Y            0.00000   1.00000   0.00000
           Z            0.00000   0.00000   1.00000
 This molecule is a prolate symmetric top.
 Rotational symmetry number  1.
 Rotational temperature (Kelvin)      1.88812
 Rotational constant (GHZ):          39.342122
    2 imaginary frequencies ignored.
 Zero-point vibrational energy      11192.2 (Joules/Mol)
                                    2.67500 (Kcal/Mol)
 Vibrational temperatures:   1346.11  1346.11
          (Kelvin)

 Zero-point correction=                           0.004263 (Hartree/Particle)
 Thermal correction to Energy=                    0.006718
 Thermal correction to Enthalpy=                  0.007662
 Thermal correction to Gibbs Free Energy=        -0.015493
 Sum of electronic and zero-point Energies=           -100.841216
 Sum of electronic and thermal Energies=              -100.838761
 Sum of electronic and thermal Enthalpies=            -100.837817
 Sum of electronic and thermal Free Energies=         -100.860972

                     E (Thermal)             CV                S
                      KCal/Mol        Cal/Mol-Kelvin    Cal/Mol-Kelvin
 Total                    4.215              5.874             48.734
 Electronic               0.000              0.000              1.377
 Translational            0.889              2.981             35.068
 Rotational               0.592              1.987             12.046
 Vibrational              2.734              0.906              0.242

 Normal termination of Gaussian 16 at Fri Aug 22 16:34:01 2025.
