 Gaussian 16, Revision C.01,
 Gaussian 16:  ES64L-G16RevC.01  3-Jul-2019

 -----------------------------------------
 # sp b3lyp/6-311g** Force nosymm scf=(qc)
 -----------------------------------------

 -------------------
 Title Card Required
 -------------------
 Symbolic Z-matrix:
 Charge =  0 Multiplicity = 2

                          Input orientation:
 ---------------------------------------------------------------------
 Center     Atomic      Atomic             Coordinates (Angstroms)
 Number     Number       Type             X           Y           Z
 ---------------------------------------------------------------------
      1          1           0        0.000000    0.000000    0.000000
      2          1           0       -1.550000    0.000000    0.000000
      3          9           0        3.600000    0.000000    0.000000
 ---------------------------------------------------------------------

 SCF Done:  E(UB3LYP) =  -100.812769419     a.u. after  385 cycles

 Alpha  occ. eigenvalues --  -24.76327  -1.22212  -0.55413  -0.46599  -0.46569
 Alpha  occ. eigenvalues --   -0.33404
 Alpha virt. eigenvalues --   -0.10038   0.25202   0.30439   0.85971   0.90848
 Alpha virt. eigenvalues --    0.91773   1.01112   1.06908   1.21457   1.21459
 Alpha virt. eigenvalues --    1.40403   1.40406   1.78205   2.20840   2.45223

  Beta  occ. eigenvalues --  -24.73172  -1.13138  -0.43440  -0.43405  -0.33399
  Beta virt. eigenvalues --   -0.26059  -0.10057   0.25190   0.30498   0.92349
  Beta virt. eigenvalues --    0.93240   0.95438   1.05209   1.06920   1.21450
  Beta virt. eigenvalues --    1.21453   1.40397   1.40399   1.78239   2.20959

 Mulliken charges and spin densities:
               1          2
     1  H    0.000734  -0.334264
     2  H   -0.002757   0.334142
     3  F    0.002023   1.000123
 Sum of Mulliken charges =   0.00000   1.00000

 Dipole moment (field-independent basis, Debye):
    X=              0.0414    Y=              0.0000    Z=              0.0000  Tot=              0.0414
 Quadrupole moment (field-independent basis, Debye-Ang):
   XX=             -6.3483   YY=             -7.7672   ZZ=             -6.9028
   XY=              0.0000   XZ=              0.0000   YZ=              0.0043

  Exact polarizability:      23.246       0.000       2.033       0.000       0.002       2.421
 Approx polarizability:      42.385       0.000       2.019       0.000       0.003       2.602

 ******    2 imaginary frequencies (negative Signs) ******

                      1                      2                      3
                      A                      A                      A
 Frequencies --  -2128.9236               -50.1633              1136.6426
 Red. masses --      1.0078                 1.1085                 1.0109
 Frc consts  --      2.6913                 0.0016                 0.7695
 IR Inten    --      0.0496                 0.1297                 0.0023

                      4
                      A
 Frequencies --   1179.2012
 Red. masses --      1.0109
 Frc consts  --      0.8282
 IR Inten    --      0.2367

 - Thermochemistry -
 -------------------
 Temperature   298.150 Kelvin.  Pressure   1.00000 Atm.
 Atom     1 has atomic number  1 and mass   1.00783

 Molecular mass:    21.01405 amu.
 Principal axes and moments of inertia in atomic units:
                           1         2         3
     Eigenvalues --     0.00000 128.88264 128.88264
           X            1.00000  -0.00000   0.00000
           Y            0.00000   1.00000   0.00000
           Z            0.00000   0.00000   1.00000
 This molecule is a prolate symmetric top.
 Rotational symmetry number  1.
 Rotational temperature (Kelvin)      0.67204
 Rotational constant (GHZ):          14.002982
    2 imaginary frequencies ignored.
 Zero-point vibrational energy      13851.8 (Joules/Mol)
                                    3.31066 (Kcal/Mol)
 Vibrational temperatures:   1635.38  1696.61
          (Kelvin)

 Zero-point correction=                           0.005276 (Hartree/Particle)
 Thermal correction to Energy=                    0.007676
 Thermal correction to Enthalpy=                  0.008620
 Thermal correction to Gibbs Free Energy=        -0.015442
 Sum of electronic and zero-point Energies=           -100.807494
 Sum of electronic and thermal Energies=              -100.805093
 Sum of electronic and thermal Enthalpies=            -100.804149
 Sum of electronic and thermal Free Energies=         -100.828211

                     E (Thermal)             CV                S
                      KCal/Mol        Cal/Mol-Kelvin    Cal/Mol-Kelvin
 Total                    4.817              5.437             50.643
 Electronic               0.000              0.000              1.377
 Translational            0.889              2.981             35.068
 Rotational               0.592              1.987             14.099
 Vibrational              3.336              0.469              0.099

 Normal termination of Gaussian 16 at Fri Aug 22 23:02:35 2025.
