 Gaussian 16, Revision C.01,
 Gaussian 16:  ES64L-G16RevC.01  3-Jul-2019

 -----------------------------------------
 # sp b3lyp/6-311g** Force nosymm scf=(qc)
 -----------------------------------------

 -------------------
 Title Card Required
 -------------------
 Symbolic Z-matrix:
 Charge =  0 Multiplicity = 2

                          Input orientation:
 ---------------------------------------------------------------------
 Center     Atomic      Atomic             Coordinates (Angstroms)
 Number     Number       Type             X           Y           Z
 ---------------------------------------------------------------------
      1          1           0        0.000000    0.000000    0.000000
      2          1           0       -0.950000    0.000000    0.000000
      3          9           0        2.750000    0.000000    0.000000
 ---------------------------------------------------------------------

 SCF Done:  E(UB3LYP) =  -100.914794151     a.u. after    7 cycles

 Alpha  occ. eigenvalues --  -24.76059  -1.21964  -0.55212  -0.46341  -0.46341
 Alpha  occ. eigenvalues --   -0.40191
 Alpha virt. eigenvalues --    0.01311   0.20949   0.40333   0.89924   0.91004
 Alpha virt. eigenvalues --    0.91004   1.07646   1.08117   1.08117   1.40921
 Alpha virt. eigenvalues --    1.68434   1.68434   2.22335   2.37340   2.64127

  Beta  occ. eigenvalues --  -24.72930  -1.12971  -0.43205  -0.43205  -0.40140
  Beta virt. eigenvalues --   -0.26170   0.01607   0.21148   0.40744   0.92487
  Beta virt. eigenvalues --    0.92487   0.98448   1.08212   1.08212   1.12051
  Beta virt. eigenvalues --    1.41025   1.68506   1.68506   2.22490   2.37444

 Mulliken charges and spin densities:
               1          2
     1  H   -0.011290  -0.007899
     2  H    0.013875   0.017300
     3  F   -0.002585   0.990599
 Sum of Mulliken charges =   0.00000   1.00000

 Dipole moment (field-independent basis, Debye):
    X=             -0.1079    Y=             -0.0000    Z=             -0.0000  Tot=              0.1079
 Quadrupole moment (field-independent basis, Debye-Ang):
   XX=             -5.6003   YY=             -7.2080   ZZ=             -7.2080
   XY=              0.0000   XZ=             -0.0000   YZ=              0.0000

  Exact polarizability:      16.574      -0.000       2.053       0.000      -0.000       2.053
 Approx polarizability:      19.185      -0.000       2.112       0.000      -0.000       2.112

 ******    1 imaginary frequencies (negative Signs) ******

                      1                      2                      3
                      A                      A                      A
 Frequencies --   -124.2699              1502.1726              1502.1726
 Red. masses --      1.1085                 1.0100                 1.0100
 Frc consts  --      0.0101                 1.3428                 1.3428
 IR Inten    --      2.3753                 0.1651                 0.1651

                      4
                      A
 Frequencies --   2176.0803
 Red. masses --      1.0078
 Frc consts  --      2.8118
 IR Inten    --     25.7906

 - Thermochemistry -
 -------------------
 Temperature   298.150 Kelvin.  Pressure   1.00000 Atm.
 Atom     1 has atomic number  1 and mass   1.00783

 Molecular mass:    21.01405 amu.
 Principal axes and moments of inertia in atomic units:
                           1         2         3
     Eigenvalues --     0.00000  69.30705  69.30705
           X            1.00000  -0.00000   0.00000
           Y            0.00000   1.00000   0.00000
           Z            0.00000   0.00000   1.00000
 This molecule is a prolate symmetric top.
 Rotational symmetry number  1.
 Rotational temperature (Kelvin)      1.24971
 Rotational constant (GHZ):          26.039793
    1 imaginary frequencies ignored.
 Zero-point vibrational energy      30985.8 (Joules/Mol)
                                    7.40579 (Kcal/Mol)
 Vibrational temperatures:   2161.29  2161.29  3130.89
          (Kelvin)

 Zero-point correction=                           0.011802 (Hartree/Particle)
 Thermal correction to Energy=                    0.014172
 Thermal correction to Enthalpy=                  0.015117
 Thermal correction to Gibbs Free Energy=        -0.008325
 Sum of electronic and zero-point Energies=           -100.902992
 Sum of electronic and thermal Energies=              -100.900622
 Sum of electronic and thermal Enthalpies=            -100.899678
 Sum of electronic and thermal Free Energies=         -100.923119

                     E (Thermal)             CV                S
                      KCal/Mol        Cal/Mol-Kelvin    Cal/Mol-Kelvin
 Total                    8.893              5.123             49.336
 Electronic               0.000              0.000              1.377
 Translational            0.889              2.981             35.068
 Rotational               0.592              1.987             12.867
 Vibrational              7.412              0.155              0.024

 Normal termination of Gaussian 16 at Fri Aug 22 18:29:19 2025.
