 Gaussian 16, Revision C.01,
 Gaussian 16:  ES64L-G16RevC.01  3-Jul-2019

 -----------------------------------------
 # sp b3lyp/6-311g** Force nosymm scf=(qc)
 -----------------------------------------

 -------------------
 Title Card Required
 -------------------
 Symbolic Z-matrix:
 Charge =  0 Multiplicity = 2

                          Input orientation:
 ---------------------------------------------------------------------
 Center     Atomic      Atomic             Coordinates (Angstroms)
 Number     Number       Type             X           Y           Z
 ---------------------------------------------------------------------
      1          1           0        0.000000    0.000000    0.000000
      2          1           0       -1.250000    0.000000    0.000000
      3          9           0        3.400000    0.000000    0.000000
 ---------------------------------------------------------------------

 SCF Done:  E(UB3LYP) =  -100.862903014     a.u. after   16 cycles

 Alpha  occ. eigenvalues --  -24.76433  -1.22296  -0.55494  -0.46696  -0.46647
 Alpha  occ. eigenvalues --   -0.35745
 Alpha virt. eigenvalues --   -0.05079   0.23225   0.33406   0.85916   0.90791
 Alpha virt. eigenvalues --    0.92419   1.01643   1.14154   1.14157   1.18860
 Alpha virt. eigenvalues --    1.51909   1.51913   2.03298   2.30469   2.54102

  Beta  occ. eigenvalues --  -24.73275  -1.13217  -0.43532  -0.43481  -0.35741
  Beta virt. eigenvalues --   -0.26132  -0.05073   0.23236   0.33446   0.92291
  Beta virt. eigenvalues --    0.93940   0.95379   1.05716   1.14153   1.14157
  Beta virt. eigenvalues --    1.18870   1.51909   1.51912   2.03305   2.30471

 Mulliken charges and spin densities:
               1          2
     1  H   -0.000049  -0.000145
     2  H   -0.003671  -0.000302
     3  F    0.003719   1.000446
 Sum of Mulliken charges =  -0.00000   1.00000

 Dipole moment (field-independent basis, Debye):
    X=              0.0576    Y=             -0.0000    Z=             -0.0000  Tot=              0.0576
 Quadrupole moment (field-independent basis, Debye-Ang):
   XX=             -6.2342   YY=             -6.7583   ZZ=             -7.4723
   XY=             -0.0000   XZ=             -0.0000   YZ=              0.2434

  Exact polarizability:      17.192      -0.000       2.500      -0.000       0.131       2.117
 Approx polarizability:      26.770      -0.000       2.629      -0.000       0.164       2.148

 ******    2 imaginary frequencies (negative Signs) ******

                      1                      2                      3
                      A                      A                      A
 Frequencies --   -788.8375               -25.1216              1433.3250
 Red. masses --      1.0078                 1.1085                 1.0102
 Frc consts  --      0.3695                 0.0004                 1.2228
 IR Inten    --      0.2620                 0.2117                 0.0014

                      4
                      A
 Frequencies --   1434.4141
 Red. masses --      1.0102
 Frc consts  --      1.2246
 IR Inten    --      0.0014

 - Thermochemistry -
 -------------------
 Temperature   298.150 Kelvin.  Pressure   1.00000 Atm.
 Atom     1 has atomic number  1 and mass   1.00783

 Molecular mass:    21.01405 amu.
 Principal axes and moments of inertia in atomic units:
                           1         2         3
     Eigenvalues --     0.00000 108.23874 108.23874
           X            1.00000  -0.00000   0.00000
           Y            0.00000   1.00000   0.00000
           Z            0.00000   0.00000   1.00000
 This molecule is a prolate symmetric top.
 Rotational symmetry number  1.
 Rotational temperature (Kelvin)      0.80021
 Rotational constant (GHZ):          16.673708
    2 imaginary frequencies ignored.
 Zero-point vibrational energy      17152.9 (Joules/Mol)
                                    4.09964 (Kcal/Mol)
 Vibrational temperatures:   2062.23  2063.80
          (Kelvin)

 Zero-point correction=                           0.006533 (Hartree/Particle)
 Thermal correction to Energy=                    0.008907
 Thermal correction to Enthalpy=                  0.009851
 Thermal correction to Gibbs Free Energy=        -0.014015
 Sum of electronic and zero-point Energies=           -100.856370
 Sum of electronic and thermal Energies=              -100.853996
 Sum of electronic and thermal Enthalpies=            -100.853052
 Sum of electronic and thermal Free Energies=         -100.876918

                     E (Thermal)             CV                S
                      KCal/Mol        Cal/Mol-Kelvin    Cal/Mol-Kelvin
 Total                    5.589              5.156             50.229
 Electronic               0.000              0.000              1.377
 Translational            0.889              2.981             35.068
 Rotational               0.592              1.987             13.752
 Vibrational              4.108              0.188              0.031

 Normal termination of Gaussian 16 at Fri Aug 22 21:12:17 2025.
