 Gaussian 16, Revision C.01,
 Gaussian 16:  ES64L-G16RevC.01  3-Jul-2019

 -----------------------------------------
 # sp b3lyp/6-311g** Force nosymm scf=(qc)
 -----------------------------------------

 -------------------
 Title Card Required
 -------------------
 Symbolic Z-matrix:
 Charge =  0 Multiplicity = 2

                          Input orientation:
 ---------------------------------------------------------------------
 Center     Atomic      Atomic             Coordinates (Angstroms)
 Number     Number       Type             X           Y           Z
 ---------------------------------------------------------------------
      1          1           0        0.000000    0.000000    0.000000
      2          1           0       -3.400000    0.000000    0.000000
      3          9           0        2.550000    0.000000    0.000000
 ---------------------------------------------------------------------

 SCF Done:  E(UB3LYP) =  -100.766578734     a.u. after   20 cycles

 Alpha  occ. eigenvalues --  -24.72025  -1.18224  -0.51131  -0.42950  -0.42950
 Alpha  occ. eigenvalues --   -0.32902
 Alpha virt. eigenvalues --   -0.10100   0.23635   0.35306   0.89825   0.93462
 Alpha virt. eigenvalues --    0.93462   1.06193   1.24611   1.24611   1.24859
 Alpha virt. eigenvalues --    1.41024   1.41024   1.44226   2.14647   2.36693

  Beta  occ. eigenvalues --  -24.69158  -1.10056  -0.40090  -0.40090  -0.35160
  Beta virt. eigenvalues --   -0.23526  -0.06914   0.24060   0.37732   0.94845
  Beta virt. eigenvalues --    0.94845   0.96645   1.08714   1.22253   1.22253
  Beta virt. eigenvalues --    1.28367   1.45508   1.45774   1.45774   2.13302

 Mulliken charges and spin densities:
               1          2
     1  H    0.082246  -0.903706
     2  H    0.001084   0.997337
     3  F   -0.083329   0.906369
 Sum of Mulliken charges =  -0.00000   1.00000

 Dipole moment (field-independent basis, Debye):
    X=             -1.1005    Y=             -0.0000    Z=             -0.0000  Tot=              1.1005
 Quadrupole moment (field-independent basis, Debye-Ang):
   XX=             -9.1884   YY=             -7.5784   ZZ=             -7.5784
   XY=             -0.0000   XZ=             -0.0000   YZ=             -0.0000

  Exact polarizability:      31.722      -0.000       2.024      -0.000      -0.000       2.024
 Approx polarizability:      39.005      -0.000       1.920      -0.000       0.000       1.920

 ******    2 imaginary frequencies (negative Signs) ******

                      1                      2                      3
                      A                      A                      A
 Frequencies --   -592.3624              -135.5836               228.8399
 Red. masses --      1.0524                 1.0591                 1.0218
 Frc consts  --      0.2176                 0.0115                 0.0315
 IR Inten    --     75.5123                 0.5066                 6.4079

                      4
                      A
 Frequencies --    228.8399
 Red. masses --      1.0218
 Frc consts  --      0.0315
 IR Inten    --      6.4079

 - Thermochemistry -
 -------------------
 Temperature   298.150 Kelvin.  Pressure   1.00000 Atm.
 Atom     1 has atomic number  1 and mass   1.00783

 Molecular mass:    21.01405 amu.
 Principal axes and moments of inertia in atomic units:
                           1         2         3
     Eigenvalues --     0.00000 138.34560 138.34560
           X            1.00000  -0.00000   0.00000
           Y            0.00000   1.00000   0.00000
           Z            0.00000   0.00000   1.00000
 This molecule is a prolate symmetric top.
 Rotational symmetry number  1.
 Rotational temperature (Kelvin)      0.62607
 Rotational constant (GHZ):          13.045165
    2 imaginary frequencies ignored.
 Zero-point vibrational energy       2737.5 (Joules/Mol)
                                    0.65429 (Kcal/Mol)
 Warning -- explicit consideration of   2 degrees of freedom as
           vibrations may cause significant error
 Vibrational temperatures:    329.25   329.25
          (Kelvin)

 Zero-point correction=                           0.001043 (Hartree/Particle)
 Thermal correction to Energy=                    0.004437
 Thermal correction to Enthalpy=                  0.005381
 Thermal correction to Gibbs Free Energy=        -0.020495
 Sum of electronic and zero-point Energies=           -100.765536
 Sum of electronic and thermal Energies=              -100.762142
 Sum of electronic and thermal Enthalpies=            -100.761198
 Sum of electronic and thermal Free Energies=         -100.787074

                     E (Thermal)             CV                S
                      KCal/Mol        Cal/Mol-Kelvin    Cal/Mol-Kelvin
 Total                    2.784              8.562             54.462
 Electronic               0.000              0.000              1.377
 Translational            0.889              2.981             35.068
 Rotational               0.592              1.987             14.240
 Vibrational              1.303              3.594              3.776
 Vibration     1          0.652              1.797              1.888
 Vibration     2          0.652              1.797              1.888

 Normal termination of Gaussian 16 at Fri Aug 22 17:55:12 2025.
