 Gaussian 16, Revision C.01,
 Gaussian 16:  ES64L-G16RevC.01  3-Jul-2019

 -----------------------------------------
 # sp b3lyp/6-311g** Force nosymm scf=(qc)
 -----------------------------------------

 -------------------
 Title Card Required
 -------------------
 Symbolic Z-matrix:
 Charge =  0 Multiplicity = 2

                          Input orientation:
 ---------------------------------------------------------------------
 Center     Atomic      Atomic             Coordinates (Angstroms)
 Number     Number       Type             X           Y           Z
 ---------------------------------------------------------------------
      1          1           0        0.000000    0.000000    0.000000
      2          1           0       -1.450000    0.000000    0.000000
      3          9           0        3.200000    0.000000    0.000000
 ---------------------------------------------------------------------

 SCF Done:  E(UB3LYP) =  -100.828565281     a.u. after   97 cycles

 Alpha  occ. eigenvalues --  -24.76564  -1.22412  -0.55606  -0.46828  -0.46758
 Alpha  occ. eigenvalues --   -0.33870
 Alpha virt. eigenvalues --   -0.08927   0.24683   0.30922   0.85822   0.90697
 Alpha virt. eigenvalues --    0.92735   1.02191   1.08969   1.19236   1.19240
 Alpha virt. eigenvalues --    1.43248   1.43253   1.86364   2.24222   2.48774

  Beta  occ. eigenvalues --  -24.73405  -1.13331  -0.43663  -0.43591  -0.33865
  Beta virt. eigenvalues --   -0.26239  -0.08919   0.24698   0.30972   0.92196
  Beta virt. eigenvalues --    0.94296   0.95283   1.06206   1.08982   1.19235
  Beta virt. eigenvalues --    1.19239   1.43247   1.43252   1.86372   2.24222

 Mulliken charges and spin densities:
               1          2
     1  H   -0.000109   0.002276
     2  H   -0.005053  -0.002941
     3  F    0.005162   1.000665
 Sum of Mulliken charges =  -0.00000   1.00000

 Dipole moment (field-independent basis, Debye):
    X=              0.0829    Y=             -0.0000    Z=             -0.0000  Tot=              0.0829
 Quadrupole moment (field-independent basis, Debye-Ang):
   XX=             -6.1883   YY=             -7.2963   ZZ=             -7.2974
   XY=             -0.0000   XZ=             -0.0000   YZ=              0.4320

  Exact polarizability:      21.970      -0.000       2.282      -0.000       0.232       2.282
 Approx polarizability:      40.084      -0.000       2.343      -0.000       0.291       2.342

 ******    1 imaginary frequencies (negative Signs) ******

                      1                      2                      3
                      A                      A                      A
 Frequencies --  -1221.5789                31.1592              1266.5249
 Red. masses --      1.0078                 1.1085                 1.0112
 Frc consts  --      0.8861                 0.0006                 0.9557
 IR Inten    --      0.6103                 0.4191                 0.0036

                      4
                      A
 Frequencies --   1266.5942
 Red. masses --      1.0112
 Frc consts  --      0.9558
 IR Inten    --      0.0039

 - Thermochemistry -
 -------------------
 Temperature   298.150 Kelvin.  Pressure   1.00000 Atm.
 Atom     1 has atomic number  1 and mass   1.00783

 Molecular mass:    21.01405 amu.
 Principal axes and moments of inertia in atomic units:
                           1         2         3
     Eigenvalues --     0.00000 104.03694 104.03694
           X            1.00000  -0.00000   0.00000
           Y            0.00000   1.00000   0.00000
           Z            0.00000   0.00000   1.00000
 This molecule is a prolate symmetric top.
 Rotational symmetry number  1.
 Rotational temperature (Kelvin)      0.83253
 Rotational constant (GHZ):          17.347119
    1 imaginary frequencies ignored.
 Zero-point vibrational energy      15337.8 (Joules/Mol)
                                    3.66582 (Kcal/Mol)
 Warning -- explicit consideration of   1 degrees of freedom as
           vibrations may cause significant error
 Vibrational temperatures:     44.83  1822.25  1822.35
          (Kelvin)

 Zero-point correction=                           0.005842 (Hartree/Particle)
 Thermal correction to Energy=                    0.009103
 Thermal correction to Enthalpy=                  0.010047
 Thermal correction to Gibbs Free Energy=        -0.016530
 Sum of electronic and zero-point Energies=           -100.822723
 Sum of electronic and thermal Energies=              -100.819462
 Sum of electronic and thermal Enthalpies=            -100.818518
 Sum of electronic and thermal Free Energies=         -100.845095

                     E (Thermal)             CV                S
                      KCal/Mol        Cal/Mol-Kelvin    Cal/Mol-Kelvin
 Total                    5.712              7.282             55.936
 Electronic               0.000              0.000              1.377
 Translational            0.889              2.981             35.068
 Rotational               0.592              1.987             13.674
 Vibrational              4.231              2.314              5.817
 Vibration     1          0.594              1.983              5.754

 Normal termination of Gaussian 16 at Fri Aug 22 20:21:30 2025.
