 Gaussian 16, Revision C.01,
 Gaussian 16:  ES64L-G16RevC.01  3-Jul-2019

 -----------------------------------------
 # sp b3lyp/6-311g** Force nosymm scf=(qc)
 -----------------------------------------

 -------------------
 Title Card Required
 -------------------
 Symbolic Z-matrix:
 Charge =  0 Multiplicity = 2

                          Input orientation:
 ---------------------------------------------------------------------
 Center     Atomic      Atomic             Coordinates (Angstroms)
 Number     Number       Type             X           Y           Z
 ---------------------------------------------------------------------
      1          1           0        0.000000    0.000000    0.000000
      2          1           0       -3.500000    0.000000    0.000000
      3          9           0        2.150000    0.000000    0.000000
 ---------------------------------------------------------------------

 SCF Done:  E(UB3LYP) =  -100.778328111     a.u. after   17 cycles

 Alpha  occ. eigenvalues --  -24.66756  -1.08417  -0.38146  -0.38146  -0.37070
 Alpha  occ. eigenvalues --   -0.33164
 Alpha virt. eigenvalues --   -0.21631   0.20479   0.27868   0.90847   0.95652
 Alpha virt. eigenvalues --    0.95652   1.08214   1.21527   1.21527   1.24282
 Alpha virt. eigenvalues --    1.24282   1.24348   1.44749   2.10965   2.15360

  Beta  occ. eigenvalues --  -24.69324  -1.15646  -0.48364  -0.40688  -0.40688
  Beta virt. eigenvalues --   -0.12941  -0.04708   0.30591   0.40071   0.88408
  Beta virt. eigenvalues --    0.94661   0.94661   1.05995   1.37056   1.37056
  Beta virt. eigenvalues --    1.47687   1.47687   1.47906   1.53886   2.31680

 Mulliken charges and spin densities:
               1          2
     1  H    0.155761   0.809379
     2  H    0.001206   0.998823
     3  F   -0.156968  -0.808202
 Sum of Mulliken charges =   0.00000   1.00000

 Dipole moment (field-independent basis, Debye):
    X=             -1.7054    Y=             -0.0000    Z=              0.0000  Tot=              1.7054
 Quadrupole moment (field-independent basis, Debye-Ang):
   XX=             -9.9282   YY=             -7.5084   ZZ=             -7.5084
   XY=             -0.0000   XZ=              0.0000   YZ=             -0.0000

  Exact polarizability:      28.118      -0.000       2.045       0.000       0.000       2.045
 Approx polarizability:      39.465      -0.000       1.933       0.000       0.000       1.933

 ******    1 imaginary frequencies (negative Signs) ******

                      1                      2                      3
                      A                      A                      A
 Frequencies --   -911.3906                70.9002               382.8230
 Red. masses --      1.0593                 1.0523                 1.0248
 Frc consts  --      0.5184                 0.0031                 0.0885
 IR Inten    --    102.3842                 0.2097                22.9236

                      4
                      A
 Frequencies --    382.8230
 Red. masses --      1.0248
 Frc consts  --      0.0885
 IR Inten    --     22.9236

 - Thermochemistry -
 -------------------
 Temperature   298.150 Kelvin.  Pressure   1.00000 Atm.
 Atom     1 has atomic number  1 and mass   1.00783

 Molecular mass:    21.01405 amu.
 Principal axes and moments of inertia in atomic units:
                           1         2         3
     Eigenvalues --     0.00000 121.02436 121.02436
           X            1.00000  -0.00000   0.00000
           Y            0.00000   1.00000   0.00000
           Z            0.00000   0.00000   1.00000
 This molecule is a prolate symmetric top.
 Rotational symmetry number  1.
 Rotational temperature (Kelvin)      0.71567
 Rotational constant (GHZ):          14.912214
    1 imaginary frequencies ignored.
 Zero-point vibrational energy       5003.7 (Joules/Mol)
                                    1.19590 (Kcal/Mol)
 Warning -- explicit consideration of   3 degrees of freedom as
           vibrations may cause significant error
 Vibrational temperatures:    102.01   550.80   550.80
          (Kelvin)

 Zero-point correction=                           0.001906 (Hartree/Particle)
 Thermal correction to Energy=                    0.005711
 Thermal correction to Enthalpy=                  0.006655
 Thermal correction to Gibbs Free Energy=        -0.020239
 Sum of electronic and zero-point Energies=           -100.776422
 Sum of electronic and thermal Energies=              -100.772617
 Sum of electronic and thermal Enthalpies=            -100.771673
 Sum of electronic and thermal Free Energies=         -100.798567

                     E (Thermal)             CV                S
                      KCal/Mol        Cal/Mol-Kelvin    Cal/Mol-Kelvin
 Total                    3.584              9.950             56.604
 Electronic               0.000              0.000              1.377
 Translational            0.889              2.981             35.068
 Rotational               0.592              1.987             13.974
 Vibrational              2.102              4.982              6.184
 Vibration     1          0.598              1.968              4.128
 Vibration     2          0.752              1.507              1.028
 Vibration     3          0.752              1.507              1.028

 Normal termination of Gaussian 16 at Fri Aug 22 17:09:07 2025.
