 Gaussian 16, Revision C.01,
 Gaussian 16:  ES64L-G16RevC.01  3-Jul-2019

 -----------------------------------------
 # sp b3lyp/6-311g** Force nosymm scf=(qc)
 -----------------------------------------

 -------------------
 Title Card Required
 -------------------
 Symbolic Z-matrix:
 Charge =  0 Multiplicity = 2

                          Input orientation:
 ---------------------------------------------------------------------
 Center     Atomic      Atomic             Coordinates (Angstroms)
 Number     Number       Type             X           Y           Z
 ---------------------------------------------------------------------
      1          1           0        0.000000    0.000000    0.000000
      2          1           0       -0.600000    0.000000    0.000000
      3          9           0        3.700000    0.000000    0.000000
 ---------------------------------------------------------------------

 SCF Done:  E(UB3LYP) =  -100.914600944     a.u. after  251 cycles

 Alpha  occ. eigenvalues --  -24.76256  -1.22127  -0.55330  -0.46676  -0.46484
 Alpha  occ. eigenvalues --   -0.46422
 Alpha virt. eigenvalues --    0.08429   0.18886   0.51739   0.86064   0.90940
 Alpha virt. eigenvalues --    0.92545   1.01647   1.10210   1.10213   1.60546
 Alpha virt. eigenvalues --    1.81828   1.92754   1.92757   2.36988   3.64895

  Beta  occ. eigenvalues --  -24.73099  -1.13050  -0.46593  -0.43338  -0.43319
  Beta virt. eigenvalues --   -0.25972   0.08444   0.18894   0.51794   0.92440
  Beta virt. eigenvalues --    0.94050   0.95528   1.05716   1.10210   1.10213
  Beta virt. eigenvalues --    1.60552   1.81847   1.92753   1.92757   2.36989

 Mulliken charges and spin densities:
               1          2
     1  H   -0.001451  -0.000401
     2  H   -0.001524   0.000070
     3  F    0.002976   1.000332
 Sum of Mulliken charges =   0.00000   1.00000

 Dipole moment (field-independent basis, Debye):
    X=              0.0359    Y=              0.0000    Z=              0.0000  Tot=              0.0359
 Quadrupole moment (field-independent basis, Debye-Ang):
   XX=             -6.1859   YY=             -6.7379   ZZ=             -5.8737
   XY=              0.0000   XZ=              0.0000   YZ=             -0.0063

  Exact polarizability:       6.373      -0.000       1.867       0.000      -0.003       2.332
 Approx polarizability:       6.947      -0.000       1.949       0.000      -0.004       2.531

 ******    3 imaginary frequencies (negative Signs) ******

                      1                      2                      3
                      A                      A                      A
 Frequencies --  -2765.1633             -2764.7096               -48.7687
 Red. masses --      1.0084                 1.0084                 1.1085
 Frc consts  --      4.5428                 4.5413                 0.0016
 IR Inten    --      0.0016                 0.0014                 0.0927

                      4
                      A
 Frequencies --   7042.4768
 Red. masses --      1.0078
 Frc consts  --     29.4501
 IR Inten    --      0.0316

 - Thermochemistry -
 -------------------
 Temperature   298.150 Kelvin.  Pressure   1.00000 Atm.
 Atom     1 has atomic number  1 and mass   1.00783

 Molecular mass:    21.01405 amu.
 Principal axes and moments of inertia in atomic units:
                           1         2         3
     Eigenvalues --     0.00000 104.76925 104.76925
           X            1.00000  -0.00000   0.00000
           Y            0.00000   1.00000   0.00000
           Z            0.00000   0.00000   1.00000
 This molecule is a prolate symmetric top.
 Rotational symmetry number  1.
 Rotational temperature (Kelvin)      0.82671
 Rotational constant (GHZ):          17.225867
    3 imaginary frequencies ignored.
 Zero-point vibrational energy      42123.4 (Joules/Mol)
                                   10.06773 (Kcal/Mol)
 Vibrational temperatures:  10132.55
          (Kelvin)

 Zero-point correction=                           0.016044 (Hartree/Particle)
 Thermal correction to Energy=                    0.018404
 Thermal correction to Enthalpy=                  0.019349
 Thermal correction to Gibbs Free Energy=        -0.004471
 Sum of electronic and zero-point Energies=           -100.898557
 Sum of electronic and thermal Energies=              -100.896197
 Sum of electronic and thermal Enthalpies=            -100.895252
 Sum of electronic and thermal Free Energies=         -100.919072

                     E (Thermal)             CV                S
                      KCal/Mol        Cal/Mol-Kelvin    Cal/Mol-Kelvin
 Total                   11.549              4.968             50.133
 Electronic               0.000              0.000              1.377
 Translational            0.889              2.981             35.068
 Rotational               0.592              1.987             13.688
 Vibrational             10.068              0.000              0.000

 Normal termination of Gaussian 16 at Fri Aug 22 23:40:41 2025.
