 Gaussian 16, Revision C.01,
 Gaussian 16:  ES64L-G16RevC.01  3-Jul-2019

 -----------------------------------------
 # sp b3lyp/6-311g** Force nosymm scf=(qc)
 -----------------------------------------

 -------------------
 Title Card Required
 -------------------
 Symbolic Z-matrix:
 Charge =  0 Multiplicity = 2

                          Input orientation:
 ---------------------------------------------------------------------
 Center     Atomic      Atomic             Coordinates (Angstroms)
 Number     Number       Type             X           Y           Z
 ---------------------------------------------------------------------
      1          1           0        0.000000    0.000000    0.000000
      2          1           0       -2.100000    0.000000    0.000000
      3          9           0        3.550000    0.000000    0.000000
 ---------------------------------------------------------------------

 SCF Done:  E(UB3LYP) =  -100.770739416     a.u. after   34 cycles

 Alpha  occ. eigenvalues --  -24.75617  -1.21563  -0.54740  -0.45964  -0.45964
 Alpha  occ. eigenvalues --   -0.32972
 Alpha virt. eigenvalues --   -0.10748   0.25912   0.32826   0.87439   0.91326
 Alpha virt. eigenvalues --    0.91326   1.01611   1.20698   1.24953   1.24953
 Alpha virt. eigenvalues --    1.38550   1.38550   1.47762   2.13425   2.35779

  Beta  occ. eigenvalues --  -24.72492  -1.12582  -0.42832  -0.42832  -0.33085
  Beta virt. eigenvalues --   -0.25639  -0.10471   0.25781   0.33285   0.92818
  Beta virt. eigenvalues --    0.92818   0.96646   1.05675   1.20622   1.24811
  Beta virt. eigenvalues --    1.24811   1.38946   1.38946   1.48062   2.13946

 Mulliken charges and spin densities:
               1          2
     1  H    0.003358  -0.887561
     2  H    0.004669   0.896828
     3  F   -0.008028   0.990734
 Sum of Mulliken charges =   0.00000   1.00000

 Dipole moment (field-independent basis, Debye):
    X=             -0.1926    Y=              0.0000    Z=              0.0000  Tot=              0.1926
 Quadrupole moment (field-independent basis, Debye-Ang):
   XX=             -6.6819   YY=             -7.7122   ZZ=             -7.7122
   XY=              0.0000   XZ=              0.0000   YZ=              0.0000

  Exact polarizability:      39.967      -0.000       2.003      -0.000       0.000       2.003
 Approx polarizability:      32.932       0.000       1.933       0.000      -0.000       1.933

 ******    2 imaginary frequencies (negative Signs) ******

                      1                      2                      3
                      A                      A                      A
 Frequencies --  -1180.9225              -129.8644               467.1745
 Red. masses --      1.0078                 1.1085                 1.0128
 Frc consts  --      0.8281                 0.0110                 0.1302
 IR Inten    --      6.6542                 5.6158                 0.0025

                      4
                      A
 Frequencies --    467.1745
 Red. masses --      1.0128
 Frc consts  --      0.1302
 IR Inten    --      0.0025

 - Thermochemistry -
 -------------------
 Temperature   298.150 Kelvin.  Pressure   1.00000 Atm.
 Atom     1 has atomic number  1 and mass   1.00783

 Molecular mass:    21.01405 amu.
 Principal axes and moments of inertia in atomic units:
                           1         2         3
     Eigenvalues --     0.00000 145.63641 145.63641
           X            1.00000  -0.00000   0.00000
           Y            0.00000   1.00000   0.00000
           Z            0.00000   0.00000   1.00000
 This molecule is a prolate symmetric top.
 Rotational symmetry number  1.
 Rotational temperature (Kelvin)      0.59473
 Rotational constant (GHZ):          12.392102
    2 imaginary frequencies ignored.
 Zero-point vibrational energy       5588.6 (Joules/Mol)
                                    1.33572 (Kcal/Mol)
 Warning -- explicit consideration of   2 degrees of freedom as
           vibrations may cause significant error
 Vibrational temperatures:    672.16   672.16
          (Kelvin)

 Zero-point correction=                           0.002129 (Hartree/Particle)
 Thermal correction to Energy=                    0.004988
 Thermal correction to Enthalpy=                  0.005932
 Thermal correction to Gibbs Free Energy=        -0.018907
 Sum of electronic and zero-point Energies=           -100.768611
 Sum of electronic and thermal Energies=              -100.765751
 Sum of electronic and thermal Enthalpies=            -100.764807
 Sum of electronic and thermal Free Energies=         -100.789646

                     E (Thermal)             CV                S
                      KCal/Mol        Cal/Mol-Kelvin    Cal/Mol-Kelvin
 Total                    3.130              7.614             52.279
 Electronic               0.000              0.000              1.377
 Translational            0.889              2.981             35.068
 Rotational               0.592              1.987             14.342
 Vibrational              1.649              2.646              1.491
 Vibration     1          0.824              1.323              0.746
 Vibration     2          0.824              1.323              0.746

 Normal termination of Gaussian 16 at Fri Aug 22 22:39:09 2025.
