 Gaussian 16, Revision C.01,
 Gaussian 16:  ES64L-G16RevC.01  3-Jul-2019

 -----------------------------------------
 # sp b3lyp/6-311g** Force nosymm scf=(qc)
 -----------------------------------------

 -------------------
 Title Card Required
 -------------------
 Symbolic Z-matrix:
 Charge =  0 Multiplicity = 2

                          Input orientation:
 ---------------------------------------------------------------------
 Center     Atomic      Atomic             Coordinates (Angstroms)
 Number     Number       Type             X           Y           Z
 ---------------------------------------------------------------------
      1          1           0        0.000000    0.000000    0.000000
      2          1           0       -3.250000    0.000000    0.000000
      3          9           0        3.700000    0.000000    0.000000
 ---------------------------------------------------------------------

 SCF Done:  E(UB3LYP) =  -100.759155629     a.u. after   30 cycles

 Alpha  occ. eigenvalues --  -24.75663  -1.21606  -0.54787  -0.46000  -0.46000
 Alpha  occ. eigenvalues --   -0.32333
 Alpha virt. eigenvalues --   -0.07273   0.24630   0.36920   0.87064   0.91307
 Alpha virt. eigenvalues --    0.91307   1.01402   1.25182   1.25182   1.25529
 Alpha virt. eigenvalues --    1.44780   1.44987   1.44987   2.15424   2.40408

  Beta  occ. eigenvalues --  -24.72532  -1.12604  -0.42861  -0.42861  -0.32647
  Beta virt. eigenvalues --   -0.25626  -0.06913   0.24428   0.37494   0.92802
  Beta virt. eigenvalues --    0.92802   0.96323   1.05477   1.24828   1.24828
  Beta virt. eigenvalues --    1.25153   1.45345   1.45556   1.45556   2.15543

 Mulliken charges and spin densities:
               1          2
     1  H    0.006167  -0.988922
     2  H    0.000232   0.996009
     3  F   -0.006399   0.992913
 Sum of Mulliken charges =   0.00000   1.00000

 Dipole moment (field-independent basis, Debye):
    X=             -0.1256    Y=             -0.0000    Z=             -0.0000  Tot=              0.1256
 Quadrupole moment (field-independent basis, Debye-Ang):
   XX=             -7.1120   YY=             -7.6280   ZZ=             -7.6280
   XY=             -0.0000   XZ=             -0.0000   YZ=              0.0000

  Exact polarizability:      19.061       0.000       2.027       0.000      -0.000       2.027
 Approx polarizability:      14.217      -0.000       1.934      -0.000      -0.000       1.934

 ******    2 imaginary frequencies (negative Signs) ******

                      1                      2                      3
                      A                      A                      A
 Frequencies --   -265.6020              -100.4918                91.7776
 Red. masses --      1.0118                 1.1038                 1.0164
 Frc consts  --      0.0421                 0.0066                 0.0050
 IR Inten    --      3.5650                 1.7091                 0.0367

                      4
                      A
 Frequencies --     91.7776
 Red. masses --      1.0164
 Frc consts  --      0.0050
 IR Inten    --      0.0367

 - Thermochemistry -
 -------------------
 Temperature   298.150 Kelvin.  Pressure   1.00000 Atm.
 Atom     1 has atomic number  1 and mass   1.00783

 Molecular mass:    21.01405 amu.
 Principal axes and moments of inertia in atomic units:
                           1         2         3
     Eigenvalues --     0.00000 203.53403 203.53403
           X            1.00000  -0.00000   0.00000
           Y            0.00000   1.00000   0.00000
           Z            0.00000   0.00000   1.00000
 This molecule is a prolate symmetric top.
 Rotational symmetry number  1.
 Rotational temperature (Kelvin)      0.42555
 Rotational constant (GHZ):           8.867024
    2 imaginary frequencies ignored.
 Zero-point vibrational energy       1097.9 (Joules/Mol)
                                    0.26241 (Kcal/Mol)
 Warning -- explicit consideration of   2 degrees of freedom as
           vibrations may cause significant error
 Vibrational temperatures:    132.05   132.05
          (Kelvin)

 Zero-point correction=                           0.000418 (Hartree/Particle)
 Thermal correction to Energy=                    0.004280
 Thermal correction to Enthalpy=                  0.005224
 Thermal correction to Gibbs Free Energy=        -0.022665
 Sum of electronic and zero-point Energies=           -100.758737
 Sum of electronic and thermal Energies=              -100.754876
 Sum of electronic and thermal Enthalpies=            -100.753932
 Sum of electronic and thermal Free Energies=         -100.781820

                     E (Thermal)             CV                S
                      KCal/Mol        Cal/Mol-Kelvin    Cal/Mol-Kelvin
 Total                    2.685              8.878             58.696
 Electronic               0.000              0.000              1.377
 Translational            0.889              2.981             35.068
 Rotational               0.592              1.987             15.007
 Vibrational              1.204              3.910              7.244
 Vibration     1          0.602              1.955              3.622
 Vibration     2          0.602              1.955              3.622

 Normal termination of Gaussian 16 at Sat Aug 23 00:04:31 2025.
