 Gaussian 16, Revision C.01,
 Gaussian 16:  ES64L-G16RevC.01  3-Jul-2019

 -----------------------------------------
 # sp b3lyp/6-311g** Force nosymm scf=(qc)
 -----------------------------------------

 -------------------
 Title Card Required
 -------------------
 Symbolic Z-matrix:
 Charge =  0 Multiplicity = 2

                          Input orientation:
 ---------------------------------------------------------------------
 Center     Atomic      Atomic             Coordinates (Angstroms)
 Number     Number       Type             X           Y           Z
 ---------------------------------------------------------------------
      1          1           0        0.000000    0.000000    0.000000
      2          1           0       -0.700000    0.000000    0.000000
      3          9           0        2.500000    0.000000    0.000000
 ---------------------------------------------------------------------

 SCF Done:  E(UB3LYP) =  -100.933033309     a.u. after   89 cycles

 Alpha  occ. eigenvalues --  -24.76917  -1.22693  -0.55866  -0.47491  -0.47012
 Alpha  occ. eigenvalues --   -0.43511
 Alpha virt. eigenvalues --    0.07898   0.20280   0.49750   0.85606   0.90466
 Alpha virt. eigenvalues --    0.93426   1.09297   1.09322   1.12274   1.58041
 Alpha virt. eigenvalues --    1.86196   1.86218   1.91047   2.40089   3.57059

  Beta  occ. eigenvalues --  -24.73752  -1.13599  -0.45097  -0.43839  -0.42728
  Beta virt. eigenvalues --   -0.26475   0.07994   0.20344   0.49856   0.91959
  Beta virt. eigenvalues --    0.95036   0.95323   1.09315   1.09322   1.15832
  Beta virt. eigenvalues --    1.58049   1.86196   1.86216   1.91055   2.40101

 Mulliken charges and spin densities:
               1          2
     1  H   -0.008705  -0.002070
     2  H   -0.007028  -0.000312
     3  F    0.015734   1.002383
 Sum of Mulliken charges =   0.00000   1.00000

 Dipole moment (field-independent basis, Debye):
    X=              0.1550    Y=              0.0000    Z=             -0.0000  Tot=              0.1550
 Quadrupole moment (field-independent basis, Debye-Ang):
   XX=             -6.0150   YY=             -6.7485   ZZ=             -6.1766
   XY=             -0.0000   XZ=              0.0000   YZ=             -0.3232

  Exact polarizability:       8.251       0.000       2.037       0.000      -0.165       2.329
 Approx polarizability:       9.135      -0.000       2.139       0.000      -0.210       2.511

 ******    2 imaginary frequencies (negative Signs) ******

                      1                      2                      3
                      A                      A                      A
 Frequencies --  -1178.0916             -1155.0070               207.0626
 Red. masses --      1.0093                 1.0093                 1.1085
 Frc consts  --      0.8254                 0.7933                 0.0280
 IR Inten    --      0.0280                 0.0347                 0.6409

                      4
                      A
 Frequencies --   5089.1281
 Red. masses --      1.0078
 Frc consts  --     15.3788
 IR Inten    --      3.2816

 - Thermochemistry -
 -------------------
 Temperature   298.150 Kelvin.  Pressure   1.00000 Atm.
 Atom     1 has atomic number  1 and mass   1.00783

 Molecular mass:    21.01405 amu.
 Principal axes and moments of inertia in atomic units:
                           1         2         3
     Eigenvalues --     0.00000  53.73965  53.73965
           X            1.00000  -0.00000   0.00000
           Y            0.00000   1.00000   0.00000
           Z            0.00000   0.00000   1.00000
 This molecule is a prolate symmetric top.
 Rotational symmetry number  1.
 Rotational temperature (Kelvin)      1.61173
 Rotational constant (GHZ):          33.583046
    2 imaginary frequencies ignored.
 Zero-point vibrational energy      31678.3 (Joules/Mol)
                                    7.57128 (Kcal/Mol)
 Warning -- explicit consideration of   1 degrees of freedom as
           vibrations may cause significant error
 Vibrational temperatures:    297.92  7322.12
          (Kelvin)

 Zero-point correction=                           0.012066 (Hartree/Particle)
 Thermal correction to Energy=                    0.014976
 Thermal correction to Enthalpy=                  0.015920
 Thermal correction to Gibbs Free Energy=        -0.008253
 Sum of electronic and zero-point Energies=           -100.920968
 Sum of electronic and thermal Energies=              -100.918057
 Sum of electronic and thermal Enthalpies=            -100.917113
 Sum of electronic and thermal Free Energies=         -100.941286

                     E (Thermal)             CV                S
                      KCal/Mol        Cal/Mol-Kelvin    Cal/Mol-Kelvin
 Total                    9.397              6.798             50.876
 Electronic               0.000              0.000              1.377
 Translational            0.889              2.981             35.068
 Rotational               0.592              1.987             12.361
 Vibrational              7.916              1.830              2.069
 Vibration     1          0.641              1.830              2.069

 Normal termination of Gaussian 16 at Fri Aug 22 17:41:47 2025.
