 Gaussian 16, Revision C.01,
 Gaussian 16:  ES64L-G16RevC.01  3-Jul-2019

 -----------------------------------------
 # sp b3lyp/6-311g** Force nosymm scf=(qc)
 -----------------------------------------

 -------------------
 Title Card Required
 -------------------
 Symbolic Z-matrix:
 Charge =  0 Multiplicity = 2

                          Input orientation:
 ---------------------------------------------------------------------
 Center     Atomic      Atomic             Coordinates (Angstroms)
 Number     Number       Type             X           Y           Z
 ---------------------------------------------------------------------
      1          1           0        0.000000    0.000000    0.000000
      2          1           0       -1.000000    0.000000    0.000000
      3          9           0        2.300000    0.000000    0.000000
 ---------------------------------------------------------------------

 SCF Done:  E(UB3LYP) =  -100.908199353     a.u. after    9 cycles

 Alpha  occ. eigenvalues --  -24.75098  -1.21101  -0.54432  -0.45554  -0.45554
 Alpha  occ. eigenvalues --   -0.40213
 Alpha virt. eigenvalues --    0.00365   0.21356   0.39203   0.89257   0.91334
 Alpha virt. eigenvalues --    0.91334   1.07883   1.07883   1.10956   1.40155
 Alpha virt. eigenvalues --    1.64530   1.64530   2.21319   2.35503   2.58517

  Beta  occ. eigenvalues --  -24.72047  -1.12368  -0.42503  -0.42503  -0.40058
  Beta virt. eigenvalues --   -0.25858   0.01083   0.21763   0.39604   0.92764
  Beta virt. eigenvalues --    0.92764   0.97422   1.08304   1.08304   1.14596
  Beta virt. eigenvalues --    1.41315   1.64833   1.64833   2.21911   2.35904

 Mulliken charges and spin densities:
               1          2
     1  H   -0.002761  -0.028980
     2  H    0.028165   0.066473
     3  F   -0.025404   0.962507
 Sum of Mulliken charges =   0.00000   1.00000

 Dipole moment (field-independent basis, Debye):
    X=             -0.4240    Y=              0.0000    Z=              0.0000  Tot=              0.4240
 Quadrupole moment (field-independent basis, Debye-Ang):
   XX=             -6.0313   YY=             -7.2438   ZZ=             -7.2438
   XY=              0.0000   XZ=              0.0000   YZ=             -0.0000

  Exact polarizability:      26.347      -0.000       2.178       0.000      -0.000       2.178
 Approx polarizability:      31.045      -0.000       2.146       0.000      -0.000       2.146

 ******    1 imaginary frequencies (negative Signs) ******

                      1                      2                      3
                      A                      A                      A
 Frequencies --   -270.0435              1396.5251              1396.5251
 Red. masses --      1.1081                 1.0110                 1.0110
 Frc consts  --      0.0476                 1.1617                 1.1617
 IR Inten    --     34.5421                 0.2105                 0.2105

                      4
                      A
 Frequencies --   1673.5959
 Red. masses --      1.0082
 Frc consts  --      1.6638
 IR Inten    --    233.9491

 - Thermochemistry -
 -------------------
 Temperature   298.150 Kelvin.  Pressure   1.00000 Atm.
 Atom     1 has atomic number  1 and mass   1.00783

 Molecular mass:    21.01405 amu.
 Principal axes and moments of inertia in atomic units:
                           1         2         3
     Eigenvalues --     0.00000  52.81901  52.81901
           X            1.00000  -0.00000   0.00000
           Y            0.00000   1.00000   0.00000
           Z            0.00000   0.00000   1.00000
 This molecule is a prolate symmetric top.
 Rotational symmetry number  1.
 Rotational temperature (Kelvin)      1.63982
 Rotational constant (GHZ):          34.168406
    1 imaginary frequencies ignored.
 Zero-point vibrational energy      26716.5 (Joules/Mol)
                                    6.38539 (Kcal/Mol)
 Vibrational temperatures:   2009.29  2009.29  2407.93
          (Kelvin)

 Zero-point correction=                           0.010176 (Hartree/Particle)
 Thermal correction to Energy=                    0.012554
 Thermal correction to Enthalpy=                  0.013498
 Thermal correction to Gibbs Free Energy=        -0.009695
 Sum of electronic and zero-point Energies=           -100.898024
 Sum of electronic and thermal Energies=              -100.895646
 Sum of electronic and thermal Enthalpies=            -100.894701
 Sum of electronic and thermal Free Energies=         -100.917895

                     E (Thermal)             CV                S
                      KCal/Mol        Cal/Mol-Kelvin    Cal/Mol-Kelvin
 Total                    7.878              5.222             48.814
 Electronic               0.000              0.000              1.377
 Translational            0.889              2.981             35.068
 Rotational               0.592              1.987             12.327
 Vibrational              6.396              0.254              0.042

 Normal termination of Gaussian 16 at Fri Aug 22 17:20:51 2025.
