 Gaussian 16, Revision C.01,
 Gaussian 16:  ES64L-G16RevC.01  3-Jul-2019

 -----------------------------------------
 # sp b3lyp/6-311g** Force nosymm scf=(qc)
 -----------------------------------------

 -------------------
 Title Card Required
 -------------------
 Symbolic Z-matrix:
 Charge =  0 Multiplicity = 2

                          Input orientation:
 ---------------------------------------------------------------------
 Center     Atomic      Atomic             Coordinates (Angstroms)
 Number     Number       Type             X           Y           Z
 ---------------------------------------------------------------------
      1          1           0        0.000000    0.000000    0.000000
      2          1           0       -1.850000    0.000000    0.000000
      3          9           0        3.800000    0.000000    0.000000
 ---------------------------------------------------------------------

 SCF Done:  E(UB3LYP) =  -100.782492556     a.u. after  317 cycles

 Alpha  occ. eigenvalues --  -24.76182  -1.22083  -0.55287  -0.46459  -0.46444
 Alpha  occ. eigenvalues --   -0.32853
 Alpha virt. eigenvalues --   -0.10656   0.26030   0.31880   0.86077   0.90955
 Alpha virt. eigenvalues --    0.91456   1.00971   1.11836   1.24976   1.24976
 Alpha virt. eigenvalues --    1.37846   1.37849   1.58692   2.14405   2.38644

  Beta  occ. eigenvalues --  -24.73028  -1.13011  -0.43301  -0.43281  -0.32834
  Beta virt. eigenvalues --   -0.25938  -0.10705   0.26013   0.31918   0.92457
  Beta virt. eigenvalues --    0.92915   0.95546   1.05100   1.11820   1.24980
  Beta virt. eigenvalues --    1.24983   1.37822   1.37823   1.58700   2.14618

 Mulliken charges and spin densities:
               1          2
     1  H    0.000541  -0.763183
     2  H   -0.001551   0.763213
     3  F    0.001010   0.999971
 Sum of Mulliken charges =   0.00000   1.00000

 Dipole moment (field-independent basis, Debye):
    X=              0.0252    Y=             -0.0000    Z=             -0.0000  Tot=              0.0252
 Quadrupole moment (field-independent basis, Debye-Ang):
   XX=             -6.8119   YY=             -7.7532   ZZ=             -6.8885
   XY=             -0.0000   XZ=             -0.0000   YZ=              0.0019

  Exact polarizability:      23.201       0.000       2.012      -0.000       0.001       2.477
 Approx polarizability:      31.233       0.000       1.954      -0.000       0.001       2.537

 ******    2 imaginary frequencies (negative Signs) ******

                      1                      2                      3
                      A                      A                      A
 Frequencies --  -1632.3926               -40.4536               713.4813
 Red. masses --      1.0078                 1.1085                 1.0116
 Frc consts  --      1.5823                 0.0011                 0.3034
 IR Inten    --      0.0048                 0.0493                 0.0011

                      4
                      A
 Frequencies --    713.9426
 Red. masses --      1.0116
 Frc consts  --      0.3038
 IR Inten    --      0.0007

 - Thermochemistry -
 -------------------
 Temperature   298.150 Kelvin.  Pressure   1.00000 Atm.
 Atom     1 has atomic number  1 and mass   1.00783

 Molecular mass:    21.01405 amu.
 Principal axes and moments of inertia in atomic units:
                           1         2         3
     Eigenvalues --     0.00000 151.44480 151.44480
           X            1.00000  -0.00000   0.00000
           Y            0.00000   1.00000   0.00000
           Z            0.00000   0.00000   1.00000
 This molecule is a prolate symmetric top.
 Rotational symmetry number  1.
 Rotational temperature (Kelvin)      0.57192
 Rotational constant (GHZ):          11.916825
    2 imaginary frequencies ignored.
 Zero-point vibrational energy       8537.9 (Joules/Mol)
                                    2.04060 (Kcal/Mol)
 Vibrational temperatures:   1026.54  1027.20
          (Kelvin)

 Zero-point correction=                           0.003252 (Hartree/Particle)
 Thermal correction to Energy=                    0.005827
 Thermal correction to Enthalpy=                  0.006771
 Thermal correction to Gibbs Free Energy=        -0.017672
 Sum of electronic and zero-point Energies=           -100.779241
 Sum of electronic and thermal Energies=              -100.776666
 Sum of electronic and thermal Enthalpies=            -100.775721
 Sum of electronic and thermal Free Energies=         -100.800165

                     E (Thermal)             CV                S
                      KCal/Mol        Cal/Mol-Kelvin    Cal/Mol-Kelvin
 Total                    3.656              6.574             51.446
 Electronic               0.000              0.000              1.377
 Translational            0.889              2.981             35.068
 Rotational               0.592              1.987             14.420
 Vibrational              2.175              1.606              0.580

 Normal termination of Gaussian 16 at Sat Aug 23 00:46:26 2025.
