 Gaussian 16, Revision C.01,
 Gaussian 16:  ES64L-G16RevC.01  3-Jul-2019

 -----------------------------------------
 # sp b3lyp/6-311g** Force nosymm scf=(qc)
 -----------------------------------------

 -------------------
 Title Card Required
 -------------------
 Symbolic Z-matrix:
 Charge =  0 Multiplicity = 2

                          Input orientation:
 ---------------------------------------------------------------------
 Center     Atomic      Atomic             Coordinates (Angstroms)
 Number     Number       Type             X           Y           Z
 ---------------------------------------------------------------------
      1          1           0        0.000000    0.000000    0.000000
      2          1           0       -1.200000    0.000000    0.000000
      3          9           0        2.900000    0.000000    0.000000
 ---------------------------------------------------------------------

 SCF Done:  E(UB3LYP) =  -100.872324609     a.u. after  102 cycles

 Alpha  occ. eigenvalues --  -24.76770  -1.22580  -0.55766  -0.47039  -0.46915
 Alpha  occ. eigenvalues --   -0.36134
 Alpha virt. eigenvalues --   -0.03778   0.23080   0.34789   0.85704   0.90576
 Alpha virt. eigenvalues --    0.93414   1.04851   1.13069   1.13077   1.22357
 Alpha virt. eigenvalues --    1.54572   1.54580   2.08628   2.32403   2.55612

  Beta  occ. eigenvalues --  -24.73608  -1.13493  -0.43884  -0.43745  -0.36115
  Beta virt. eigenvalues --   -0.26387  -0.03756   0.23104   0.34875   0.92075
  Beta virt. eigenvalues --    0.95159   0.95160   1.08649   1.13069   1.13076
  Beta virt. eigenvalues --    1.22359   1.54570   1.54578   2.08636   2.32406

 Mulliken charges and spin densities:
               1          2
     1  H   -0.001669  -0.000245
     2  H   -0.007508  -0.001006
     3  F    0.009177   1.001251
 Sum of Mulliken charges =   0.00000   1.00000

 Dipole moment (field-independent basis, Debye):
    X=              0.1222    Y=             -0.0000    Z=             -0.0000  Tot=              0.1222
 Quadrupole moment (field-independent basis, Debye-Ang):
   XX=             -6.1306   YY=             -7.3130   ZZ=             -6.8300
   XY=              0.0000   XZ=              0.0000   YZ=              0.3579

  Exact polarizability:      16.641      -0.000       2.185       0.000       0.190       2.442
 Approx polarizability:      24.629       0.000       2.240       0.000       0.240       2.563

 ******    1 imaginary frequencies (negative Signs) ******

                      1                      2                      3
                      A                      A                      A
 Frequencies --   -453.8228                47.2587              1466.4250
 Red. masses --      1.0078                 1.1085                 1.0107
 Frc consts  --      0.1223                 0.0015                 1.2806
 IR Inten    --      1.4968                 0.7273                 0.0040

                      4
                      A
 Frequencies --   1469.0144
 Red. masses --      1.0107
 Frc consts  --      1.2851
 IR Inten    --      0.0032

 - Thermochemistry -
 -------------------
 Temperature   298.150 Kelvin.  Pressure   1.00000 Atm.
 Atom     1 has atomic number  1 and mass   1.00783

 Molecular mass:    21.01405 amu.
 Principal axes and moments of inertia in atomic units:
                           1         2         3
     Eigenvalues --     0.00000  82.30926  82.30926
           X            1.00000  -0.00000   0.00000
           Y            0.00000   1.00000   0.00000
           Z            0.00000   0.00000   1.00000
 This molecule is a prolate symmetric top.
 Rotational symmetry number  1.
 Rotational temperature (Kelvin)      1.05230
 Rotational constant (GHZ):          21.926346
    1 imaginary frequencies ignored.
 Zero-point vibrational energy      17840.5 (Joules/Mol)
                                    4.26398 (Kcal/Mol)
 Warning -- explicit consideration of   1 degrees of freedom as
           vibrations may cause significant error
 Vibrational temperatures:     67.99  2109.86  2113.58
          (Kelvin)

 Zero-point correction=                           0.006795 (Hartree/Particle)
 Thermal correction to Energy=                    0.010007
 Thermal correction to Enthalpy=                  0.010952
 Thermal correction to Gibbs Free Energy=        -0.014995
 Sum of electronic and zero-point Energies=           -100.865530
 Sum of electronic and thermal Energies=              -100.862317
 Sum of electronic and thermal Enthalpies=            -100.861373
 Sum of electronic and thermal Free Energies=         -100.887320

                     E (Thermal)             CV                S
                      KCal/Mol        Cal/Mol-Kelvin    Cal/Mol-Kelvin
 Total                    6.280              7.114             54.610
 Electronic               0.000              0.000              1.377
 Translational            0.889              2.981             35.068
 Rotational               0.592              1.987             13.208
 Vibrational              4.799              2.146              4.956
 Vibration     1          0.595              1.979              4.929

 Normal termination of Gaussian 16 at Fri Aug 22 19:00:11 2025.
