 Gaussian 16, Revision C.01,
 Gaussian 16:  ES64L-G16RevC.01  3-Jul-2019

 -----------------------------------------
 # sp b3lyp/6-311g** Force nosymm scf=(qc)
 -----------------------------------------

 -------------------
 Title Card Required
 -------------------
 Symbolic Z-matrix:
 Charge =  0 Multiplicity = 2

                          Input orientation:
 ---------------------------------------------------------------------
 Center     Atomic      Atomic             Coordinates (Angstroms)
 Number     Number       Type             X           Y           Z
 ---------------------------------------------------------------------
      1          1           0        0.000000    0.000000    0.000000
      2          1           0       -0.700000    0.000000    0.000000
      3          9           0        0.850000    0.000000    0.000000
 ---------------------------------------------------------------------

 SCF Done:  E(UB3LYP) =  -100.880114631     a.u. after    6 cycles

 Alpha  occ. eigenvalues --  -24.66844  -1.25888  -0.66397  -0.43058  -0.43058
 Alpha  occ. eigenvalues --   -0.32699
 Alpha virt. eigenvalues --    0.15683   0.17866   0.68604   0.86715   0.86715
 Alpha virt. eigenvalues --    0.93806   1.10109   1.10109   1.44056   1.74236
 Alpha virt. eigenvalues --    1.80618   1.80618   2.01361   2.56720   3.77874

  Beta  occ. eigenvalues --  -24.65639  -1.22702  -0.60272  -0.41997  -0.41997
  Beta virt. eigenvalues --   -0.14666   0.17459   0.20351   0.73772   0.88789
  Beta virt. eigenvalues --    0.88789   0.96268   1.14808   1.14808   1.46111
  Beta virt. eigenvalues --    1.82053   1.85582   1.85582   2.04453   2.63857

 Mulliken charges and spin densities:
               1          2
     1  H    0.272729  -0.024139
     2  H   -0.064077   0.763090
     3  F   -0.208652   0.261049
 Sum of Mulliken charges =   0.00000   1.00000

 Dipole moment (field-independent basis, Debye):
    X=             -1.2087    Y=             -0.0000    Z=              0.0000  Tot=              1.2087
 Quadrupole moment (field-independent basis, Debye-Ang):
   XX=             -7.4887   YY=             -6.4699   ZZ=             -6.4699
   XY=             -0.0000   XZ=              0.0000   YZ=             -0.0000

  Exact polarizability:      10.738       0.000       2.533       0.000       0.000       2.533
 Approx polarizability:      11.766       0.000       2.608      -0.000       0.000       2.608

 ******    2 imaginary frequencies (negative Signs) ******

                      1                      2                      3
                      A                      A                      A
 Frequencies --  -2972.4332             -2972.4332              3290.8986
 Red. masses --      1.0158                 1.0158                 1.0927
 Frc consts  --      5.2877                 5.2877                 6.9726
 IR Inten    --     64.5016                64.5016               156.9345

                      4
                      A
 Frequencies --   5881.4095
 Red. masses --      1.0212
 Frc consts  --     20.8130
 IR Inten    --      0.1165

 - Thermochemistry -
 -------------------
 Temperature   298.150 Kelvin.  Pressure   1.00000 Atm.
 Atom     1 has atomic number  1 and mass   1.00783

 Molecular mass:    21.01405 amu.
 Principal axes and moments of inertia in atomic units:
                           1         2         3
     Eigenvalues --     0.00000  10.25269  10.25269
           X            1.00000  -0.00000   0.00000
           Y            0.00000   1.00000   0.00000
           Z            0.00000   0.00000   1.00000
 This molecule is a prolate symmetric top.
 Rotational symmetry number  1.
 Rotational temperature (Kelvin)      8.44793
 Rotational constant (GHZ):         176.026188
    2 imaginary frequencies ignored.
 Zero-point vibrational energy      54862.6 (Joules/Mol)
                                   13.11247 (Kcal/Mol)
 Vibrational temperatures:   4734.87  8462.04
          (Kelvin)

 Zero-point correction=                           0.020896 (Hartree/Particle)
 Thermal correction to Energy=                    0.023257
 Thermal correction to Enthalpy=                  0.024201
 Thermal correction to Gibbs Free Energy=         0.002575
 Sum of electronic and zero-point Energies=           -100.859219
 Sum of electronic and thermal Energies=              -100.856858
 Sum of electronic and thermal Enthalpies=            -100.855914
 Sum of electronic and thermal Free Energies=         -100.877539

                     E (Thermal)             CV                S
                      KCal/Mol        Cal/Mol-Kelvin    Cal/Mol-Kelvin
 Total                   14.594              4.968             45.514
 Electronic               0.000              0.000              1.377
 Translational            0.889              2.981             35.068
 Rotational               0.592              1.987              9.069
 Vibrational             13.112              0.000              0.000

 Normal termination of Gaussian 16 at Fri Aug 22 15:52:33 2025.
