 Gaussian 16, Revision C.01,
 Gaussian 16:  ES64L-G16RevC.01  3-Jul-2019

 -----------------------------------------
 # sp b3lyp/6-311g** Force nosymm scf=(qc)
 -----------------------------------------

 -------------------
 Title Card Required
 -------------------
 Symbolic Z-matrix:
 Charge =  0 Multiplicity = 2

                          Input orientation:
 ---------------------------------------------------------------------
 Center     Atomic      Atomic             Coordinates (Angstroms)
 Number     Number       Type             X           Y           Z
 ---------------------------------------------------------------------
      1          1           0        0.000000    0.000000    0.000000
      2          1           0       -0.550000    0.000000    0.000000
      3          9           0        2.400000    0.000000    0.000000
 ---------------------------------------------------------------------

 SCF Done:  E(UB3LYP) =  -100.894381131     a.u. after  101 cycles

 Alpha  occ. eigenvalues --  -24.76857  -1.22644  -0.55815  -0.48621  -0.46963
 Alpha  occ. eigenvalues --   -0.45910
 Alpha virt. eigenvalues --    0.10762   0.19693   0.54742   0.85609   0.90462
 Alpha virt. eigenvalues --    0.93886   1.11522   1.11557   1.14214   1.61966
 Alpha virt. eigenvalues --    1.82917   1.96654   1.96685   2.40005   3.64445

  Beta  occ. eigenvalues --  -24.73693  -1.13551  -0.47936  -0.43789  -0.43418
  Beta virt. eigenvalues --   -0.26427   0.10881   0.19788   0.54838   0.91953
  Beta virt. eigenvalues --    0.95025   0.95737   1.11551   1.11559   1.17781
  Beta virt. eigenvalues --    1.61979   1.82926   1.96657   1.96684   2.40033

 Mulliken charges and spin densities:
               1          2
     1  H   -0.012290  -0.002767
     2  H   -0.004542   0.000144
     3  F    0.016831   1.002623
 Sum of Mulliken charges =   0.00000   1.00000

 Dipole moment (field-independent basis, Debye):
    X=              0.1521    Y=             -0.0000    Z=             -0.0000  Tot=              0.1521
 Quadrupole moment (field-independent basis, Debye-Ang):
   XX=             -5.9715   YY=             -6.5248   ZZ=             -5.9616
   XY=              0.0000   XZ=             -0.0000   YZ=             -0.3270

  Exact polarizability:       6.496      -0.000       1.963      -0.000      -0.163       2.243
 Approx polarizability:       6.835       0.000       2.068      -0.000      -0.208       2.427

 ******    2 imaginary frequencies (negative Signs) ******

                      1                      2                      3
                      A                      A                      A
 Frequencies --  -3706.5213             -3678.1159               270.5501
 Red. masses --      1.0089                 1.0089                 1.1085
 Frc consts  --      8.1663                 8.0416                 0.0478
 IR Inten    --      0.1894                 0.1575                 0.4500

                      4
                      A
 Frequencies --   8344.0551
 Red. masses --      1.0078
 Frc consts  --     41.3418
 IR Inten    --      3.3364

 - Thermochemistry -
 -------------------
 Temperature   298.150 Kelvin.  Pressure   1.00000 Atm.
 Atom     1 has atomic number  1 and mass   1.00783

 Molecular mass:    21.01405 amu.
 Principal axes and moments of inertia in atomic units:
                           1         2         3
     Eigenvalues --     0.00000  47.11022  47.11022
           X            1.00000  -0.00000   0.00000
           Y            0.00000   1.00000   0.00000
           Z            0.00000   0.00000   1.00000
 This molecule is a prolate symmetric top.
 Rotational symmetry number  1.
 Rotational temperature (Kelvin)      1.83854
 Rotational constant (GHZ):          38.308911
    2 imaginary frequencies ignored.
 Zero-point vibrational energy      51526.8 (Joules/Mol)
                                   12.31520 (Kcal/Mol)
 Warning -- explicit consideration of   1 degrees of freedom as
           vibrations may cause significant error
 Vibrational temperatures:    389.26 12005.23
          (Kelvin)

 Zero-point correction=                           0.019626 (Hartree/Particle)
 Thermal correction to Energy=                    0.022444
 Thermal correction to Enthalpy=                  0.023388
 Thermal correction to Gibbs Free Energy=        -0.000433
 Sum of electronic and zero-point Energies=           -100.874756
 Sum of electronic and thermal Energies=              -100.871937
 Sum of electronic and thermal Enthalpies=            -100.870993
 Sum of electronic and thermal Free Energies=         -100.894815

                     E (Thermal)             CV                S
                      KCal/Mol        Cal/Mol-Kelvin    Cal/Mol-Kelvin
 Total                   14.084              6.695             50.137
 Electronic               0.000              0.000              1.377
 Translational            0.889              2.981             35.068
 Rotational               0.592              1.987             12.099
 Vibrational             12.603              1.727              1.593
 Vibration     1          0.674              1.727              1.593

 Normal termination of Gaussian 16 at Fri Aug 22 17:29:09 2025.
