 Gaussian 16, Revision C.01,
 Gaussian 16:  ES64L-G16RevC.01  3-Jul-2019

 -----------------------------------------
 # sp b3lyp/6-311g** Force nosymm scf=(qc)
 -----------------------------------------

 -------------------
 Title Card Required
 -------------------
 Symbolic Z-matrix:
 Charge =  0 Multiplicity = 2

                          Input orientation:
 ---------------------------------------------------------------------
 Center     Atomic      Atomic             Coordinates (Angstroms)
 Number     Number       Type             X           Y           Z
 ---------------------------------------------------------------------
      1          1           0        0.000000    0.000000    0.000000
      2          1           0       -3.650000    0.000000    0.000000
      3          9           0        2.650000    0.000000    0.000000
 ---------------------------------------------------------------------

 SCF Done:  E(UB3LYP) =  -100.764655986     a.u. after   17 cycles

 Alpha  occ. eigenvalues --  -24.72558  -1.18724  -0.51669  -0.43396  -0.43396
 Alpha  occ. eigenvalues --   -0.32725
 Alpha virt. eigenvalues --   -0.09410   0.23615   0.35694   0.89924   0.93167
 Alpha virt. eigenvalues --    0.93167   1.05796   1.24779   1.24779   1.24870
 Alpha virt. eigenvalues --    1.41864   1.41864   1.44013   2.14420   2.38334

  Beta  occ. eigenvalues --  -24.69645  -1.10412  -0.40488  -0.40488  -0.34782
  Beta virt. eigenvalues --   -0.23862  -0.06442   0.23875   0.38019   0.94580
  Beta virt. eigenvalues --    0.94580   0.97434   1.08669   1.22561   1.22561
  Beta virt. eigenvalues --    1.26299   1.46035   1.46282   1.46282   2.13406

 Mulliken charges and spin densities:
               1          2
     1  H    0.070159  -0.919985
     2  H    0.000501   0.998581
     3  F   -0.070660   0.921404
 Sum of Mulliken charges =  -0.00000   1.00000

 Dipole moment (field-independent basis, Debye):
    X=             -0.9656    Y=             -0.0000    Z=             -0.0000  Tot=              0.9656
 Quadrupole moment (field-independent basis, Debye-Ang):
   XX=             -9.0368   YY=             -7.5846   ZZ=             -7.5846
   XY=             -0.0000   XZ=             -0.0000   YZ=             -0.0000

  Exact polarizability:      31.381      -0.000       2.024      -0.000      -0.000       2.024
 Approx polarizability:      37.700      -0.000       1.921      -0.000       0.000       1.921

 ******    2 imaginary frequencies (negative Signs) ******

                      1                      2                      3
                      A                      A                      A
 Frequencies --   -527.2626              -102.1863               198.7314
 Red. masses --      1.0542                 1.0573                 1.0223
 Frc consts  --      0.1727                 0.0065                 0.0238
 IR Inten    --     67.3693                 0.1833                 4.7327

                      4
                      A
 Frequencies --    198.7314
 Red. masses --      1.0223
 Frc consts  --      0.0238
 IR Inten    --      4.7327

 - Thermochemistry -
 -------------------
 Temperature   298.150 Kelvin.  Pressure   1.00000 Atm.
 Atom     1 has atomic number  1 and mass   1.00783

 Molecular mass:    21.01405 amu.
 Principal axes and moments of inertia in atomic units:
                           1         2         3
     Eigenvalues --     0.00000 154.29244 154.29244
           X            1.00000  -0.00000   0.00000
           Y            0.00000   1.00000   0.00000
           Z            0.00000   0.00000   1.00000
 This molecule is a prolate symmetric top.
 Rotational symmetry number  1.
 Rotational temperature (Kelvin)      0.56136
 Rotational constant (GHZ):          11.696887
    2 imaginary frequencies ignored.
 Zero-point vibrational energy       2377.4 (Joules/Mol)
                                    0.56820 (Kcal/Mol)
 Warning -- explicit consideration of   2 degrees of freedom as
           vibrations may cause significant error
 Vibrational temperatures:    285.93   285.93
          (Kelvin)

 Zero-point correction=                           0.000905 (Hartree/Particle)
 Thermal correction to Energy=                    0.004391
 Thermal correction to Enthalpy=                  0.005336
 Thermal correction to Gibbs Free Energy=        -0.020888
 Sum of electronic and zero-point Energies=           -100.763750
 Sum of electronic and thermal Energies=              -100.760265
 Sum of electronic and thermal Enthalpies=            -100.759320
 Sum of electronic and thermal Free Energies=         -100.785544

                     E (Thermal)             CV                S
                      KCal/Mol        Cal/Mol-Kelvin    Cal/Mol-Kelvin
 Total                    2.756              8.651             55.192
 Electronic               0.000              0.000              1.377
 Translational            0.889              2.981             35.068
 Rotational               0.592              1.987             14.457
 Vibrational              1.274              3.683              4.290
 Vibration     1          0.637              1.842              2.145
 Vibration     2          0.637              1.842              2.145

 Normal termination of Gaussian 16 at Fri Aug 22 18:15:59 2025.
