 Gaussian 16, Revision C.01,
 Gaussian 16:  ES64L-G16RevC.01  3-Jul-2019

 -----------------------------------------
 # sp b3lyp/6-311g** Force nosymm scf=(qc)
 -----------------------------------------

 -------------------
 Title Card Required
 -------------------
 Symbolic Z-matrix:
 Charge =  0 Multiplicity = 2

                          Input orientation:
 ---------------------------------------------------------------------
 Center     Atomic      Atomic             Coordinates (Angstroms)
 Number     Number       Type             X           Y           Z
 ---------------------------------------------------------------------
      1          1           0        0.000000    0.000000    0.000000
      2          1           0       -1.750000    0.000000    0.000000
      3          9           0        0.750000    0.000000    0.000000
 ---------------------------------------------------------------------

 SCF Done:  E(UB3LYP) =  -100.920589039     a.u. after    6 cycles

 Alpha  occ. eigenvalues --  -24.63265  -1.25385  -0.57663  -0.41044  -0.41044
 Alpha  occ. eigenvalues --   -0.35910
 Alpha virt. eigenvalues --    0.11101   0.23005   0.46924   0.93998   0.93998
 Alpha virt. eigenvalues --    0.96871   1.20509   1.20509   1.21425   1.42857
 Alpha virt. eigenvalues --    1.42857   1.55862   2.02324   2.16531   2.76614

  Beta  occ. eigenvalues --  -24.63191  -1.25182  -0.57244  -0.40987  -0.40987
  Beta virt. eigenvalues --   -0.11839   0.12671   0.32239   0.49181   0.94030
  Beta virt. eigenvalues --    0.94030   0.97053   1.30063   1.36359   1.36359
  Beta virt. eigenvalues --    1.46062   1.46062   1.63069   2.06458   2.35396

 Mulliken charges and spin densities:
               1          2
     1  H    0.250100   0.011921
     2  H    0.014364   0.973899
     3  F   -0.264463   0.014180
 Sum of Mulliken charges =   0.00000   1.00000

 Dipole moment (field-independent basis, Debye):
    X=             -1.7741    Y=             -0.0000    Z=             -0.0000  Tot=              1.7741
 Quadrupole moment (field-independent basis, Debye-Ang):
   XX=             -7.1364   YY=             -6.6555   ZZ=             -6.6555
   XY=             -0.0000   XZ=             -0.0000   YZ=              0.0000

  Exact polarizability:       7.523      -0.000       2.519      -0.000      -0.000       2.519
 Approx polarizability:       7.455      -0.000       2.518       0.000      -0.000       2.518

 ******    2 imaginary frequencies (negative Signs) ******

                      1                      2                      3
                      A                      A                      A
 Frequencies --  -2651.6494             -2651.6494               498.3805
 Red. masses --      1.0306                 1.0306                 1.0533
 Frc consts  --      4.2693                 4.2693                 0.1541
 IR Inten    --    157.0751               157.0751                 0.0040

                      4
                      A
 Frequencies --   7569.9945
 Red. masses --      1.0583
 Frc consts  --     35.7300
 IR Inten    --    162.9140

 - Thermochemistry -
 -------------------
 Temperature   298.150 Kelvin.  Pressure   1.00000 Atm.
 Atom     1 has atomic number  1 and mass   1.00783

 Molecular mass:    21.01405 amu.
 Principal axes and moments of inertia in atomic units:
                           1         2         3
     Eigenvalues --     0.00000  22.69509  22.69509
           X            1.00000  -0.00000   0.00000
           Y            0.00000   1.00000   0.00000
           Z            0.00000   0.00000   1.00000
 This molecule is a prolate symmetric top.
 Rotational symmetry number  1.
 Rotational temperature (Kelvin)      3.81642
 Rotational constant (GHZ):          79.521235
    2 imaginary frequencies ignored.
 Zero-point vibrational energy      48259.6 (Joules/Mol)
                                   11.53432 (Kcal/Mol)
 Warning -- explicit consideration of   1 degrees of freedom as
           vibrations may cause significant error
 Vibrational temperatures:    717.06 10891.53
          (Kelvin)

 Zero-point correction=                           0.018381 (Hartree/Particle)
 Thermal correction to Energy=                    0.020967
 Thermal correction to Enthalpy=                  0.021911
 Thermal correction to Gibbs Free Energy=        -0.000779
 Sum of electronic and zero-point Energies=           -100.902208
 Sum of electronic and thermal Energies=              -100.899622
 Sum of electronic and thermal Enthalpies=            -100.898678
 Sum of electronic and thermal Free Energies=         -100.921368

                     E (Thermal)             CV                S
                      KCal/Mol        Cal/Mol-Kelvin    Cal/Mol-Kelvin
 Total                   13.157              6.222             47.756
 Electronic               0.000              0.000              1.377
 Translational            0.889              2.981             35.068
 Rotational               0.592              1.987             10.648
 Vibrational             11.676              1.254              0.662
 Vibration     1          0.854              1.254              0.662

 Normal termination of Gaussian 16 at Fri Aug 22 15:48:35 2025.
