 Gaussian 16, Revision C.01,
 Gaussian 16:  ES64L-G16RevC.01  3-Jul-2019

 -----------------------------------------
 # sp b3lyp/6-311g** Force nosymm scf=(qc)
 -----------------------------------------

 -------------------
 Title Card Required
 -------------------
 Symbolic Z-matrix:
 Charge =  0 Multiplicity = 2

                          Input orientation:
 ---------------------------------------------------------------------
 Center     Atomic      Atomic             Coordinates (Angstroms)
 Number     Number       Type             X           Y           Z
 ---------------------------------------------------------------------
      1          1           0        0.000000    0.000000    0.000000
      2          1           0       -2.400000    0.000000    0.000000
      3          9           0        2.750000    0.000000    0.000000
 ---------------------------------------------------------------------

 SCF Done:  E(UB3LYP) =  -100.768293825     a.u. after   21 cycles

 Alpha  occ. eigenvalues --  -24.73115  -1.19237  -0.52226  -0.43855  -0.43855
 Alpha  occ. eigenvalues --   -0.33528
 Alpha virt. eigenvalues --   -0.11401   0.25196   0.33140   0.90248   0.92859
 Alpha virt. eigenvalues --    0.92859   1.05528   1.24172   1.24172   1.26363
 Alpha virt. eigenvalues --    1.38385   1.38385   1.41564   2.14582   2.34976

  Beta  occ. eigenvalues --  -24.70160  -1.10790  -0.40902  -0.40902  -0.34449
  Beta virt. eigenvalues --   -0.24233  -0.09817   0.25859   0.34337   0.94292
  Beta virt. eigenvalues --    0.94292   0.98527   1.09226   1.23105   1.23105
  Beta virt. eigenvalues --    1.25908   1.40966   1.40966   1.43520   2.15306

 Mulliken charges and spin densities:
               1          2
     1  H    0.047314  -0.896097
     2  H    0.010141   0.960702
     3  F   -0.057454   0.935395
 Sum of Mulliken charges =   0.00000   1.00000

 Dipole moment (field-independent basis, Debye):
    X=             -0.9250    Y=              0.0000    Z=             -0.0000  Tot=              0.9250
 Quadrupole moment (field-independent basis, Debye-Ang):
   XX=             -8.3032   YY=             -7.6452   ZZ=             -7.6452
   XY=              0.0000   XZ=             -0.0000   YZ=              0.0000

  Exact polarizability:      47.772       0.000       2.011      -0.000       0.000       2.011
 Approx polarizability:      46.548       0.000       1.919      -0.000      -0.000       1.919

 ******    2 imaginary frequencies (negative Signs) ******

                      1                      2                      3
                      A                      A                      A
 Frequencies --   -830.3237              -299.1784               318.5379
 Red. masses --      1.0113                 1.1043                 1.0164
 Frc consts  --      0.4108                 0.0582                 0.0608
 IR Inten    --     33.6332                28.7530                 1.6987

                      4
                      A
 Frequencies --    318.5379
 Red. masses --      1.0164
 Frc consts  --      0.0608
 IR Inten    --      1.6987

 - Thermochemistry -
 -------------------
 Temperature   298.150 Kelvin.  Pressure   1.00000 Atm.
 Atom     1 has atomic number  1 and mass   1.00783

 Molecular mass:    21.01405 amu.
 Principal axes and moments of inertia in atomic units:
                           1         2         3
     Eigenvalues --     0.00000 111.89981 111.89981
           X            1.00000  -0.00000   0.00000
           Y            0.00000   1.00000   0.00000
           Z            0.00000   0.00000   1.00000
 This molecule is a prolate symmetric top.
 Rotational symmetry number  1.
 Rotational temperature (Kelvin)      0.77403
 Rotational constant (GHZ):          16.128188
    2 imaginary frequencies ignored.
 Zero-point vibrational energy       3810.6 (Joules/Mol)
                                    0.91075 (Kcal/Mol)
 Warning -- explicit consideration of   2 degrees of freedom as
           vibrations may cause significant error
 Vibrational temperatures:    458.31   458.31
          (Kelvin)

 Zero-point correction=                           0.001451 (Hartree/Particle)
 Thermal correction to Energy=                    0.004607
 Thermal correction to Enthalpy=                  0.005551
 Thermal correction to Gibbs Free Energy=        -0.019583
 Sum of electronic and zero-point Energies=           -100.766842
 Sum of electronic and thermal Energies=              -100.763687
 Sum of electronic and thermal Enthalpies=            -100.762743
 Sum of electronic and thermal Free Energies=         -100.787877

                     E (Thermal)             CV                S
                      KCal/Mol        Cal/Mol-Kelvin    Cal/Mol-Kelvin
 Total                    2.891              8.244             52.899
 Electronic               0.000              0.000              1.377
 Translational            0.889              2.981             35.068
 Rotational               0.592              1.987             13.819
 Vibrational              1.410              3.276              2.635
 Vibration     1          0.705              1.638              1.318
 Vibration     2          0.705              1.638              1.318

 Normal termination of Gaussian 16 at Fri Aug 22 18:34:03 2025.
