 Gaussian 16, Revision C.01,
 Gaussian 16:  ES64L-G16RevC.01  3-Jul-2019

 -----------------------------------------
 # sp b3lyp/6-311g** Force nosymm scf=(qc)
 -----------------------------------------

 -------------------
 Title Card Required
 -------------------
 Symbolic Z-matrix:
 Charge =  0 Multiplicity = 2

                          Input orientation:
 ---------------------------------------------------------------------
 Center     Atomic      Atomic             Coordinates (Angstroms)
 Number     Number       Type             X           Y           Z
 ---------------------------------------------------------------------
      1          1           0        0.000000    0.000000    0.000000
      2          1           0       -1.500000    0.000000    0.000000
      3          9           0        3.500000    0.000000    0.000000
 ---------------------------------------------------------------------

 SCF Done:  E(UB3LYP) =  -100.820277125     a.u. after  100 cycles

 Alpha  occ. eigenvalues --  -24.76388  -1.22265  -0.55464  -0.46658  -0.46619
 Alpha  occ. eigenvalues --   -0.33562
 Alpha virt. eigenvalues --   -0.09787   0.24960   0.30390   0.85931   0.90807
 Alpha virt. eigenvalues --    0.91982   1.01254   1.07593   1.20377   1.20380
 Alpha virt. eigenvalues --    1.41491   1.41494   1.81985   2.22355   2.46518

  Beta  occ. eigenvalues --  -24.73232  -1.13189  -0.43496  -0.43454  -0.33559
  Beta virt. eigenvalues --   -0.26107  -0.09793   0.24963   0.30433   0.92308
  Beta virt. eigenvalues --    0.93471   0.95396   1.05343   1.07610   1.20373
  Beta virt. eigenvalues --    1.20376   1.41488   1.41491   1.82007   2.22408

 Mulliken charges and spin densities:
               1          2
     1  H    0.000600  -0.120053
     2  H   -0.003267   0.119788
     3  F    0.002667   1.000264
 Sum of Mulliken charges =   0.00000   1.00000

 Dipole moment (field-independent basis, Debye):
    X=              0.0503    Y=              0.0000    Z=             -0.0000  Tot=              0.0503
 Quadrupole moment (field-independent basis, Debye-Ang):
   XX=             -6.2583   YY=             -7.3302   ZZ=             -7.3276
   XY=              0.0000   XZ=             -0.0000   YZ=             -0.4322

  Exact polarizability:      22.784       0.000       2.272       0.000      -0.233       2.273
 Approx polarizability:      43.239       0.000       2.326      -0.000      -0.291       2.328

 ******    2 imaginary frequencies (negative Signs) ******

                      1                      2                      3
                      A                      A                      A
 Frequencies --  -2206.2553               -43.8176              1219.5200
 Red. masses --      1.0078                 1.1085                 1.0109
 Frc consts  --      2.8903                 0.0013                 0.8858
 IR Inten    --      0.0636                 0.1892                 0.0026

                      4
                      A
 Frequencies --   1219.5663
 Red. masses --      1.0109
 Frc consts  --      0.8859
 IR Inten    --      0.0023

 - Thermochemistry -
 -------------------
 Temperature   298.150 Kelvin.  Pressure   1.00000 Atm.
 Atom     1 has atomic number  1 and mass   1.00783

 Molecular mass:    21.01405 amu.
 Principal axes and moments of inertia in atomic units:
                           1         2         3
     Eigenvalues --     0.00000 121.59222 121.59222
           X            1.00000  -0.00000   0.00000
           Y            0.00000   1.00000   0.00000
           Z            0.00000   0.00000   1.00000
 This molecule is a prolate symmetric top.
 Rotational symmetry number  1.
 Rotational temperature (Kelvin)      0.71233
 Rotational constant (GHZ):          14.842572
    2 imaginary frequencies ignored.
 Zero-point vibrational energy      14589.0 (Joules/Mol)
                                    3.48685 (Kcal/Mol)
 Vibrational temperatures:   1754.62  1754.68
          (Kelvin)

 Zero-point correction=                           0.005557 (Hartree/Particle)
 Thermal correction to Energy=                    0.007948
 Thermal correction to Enthalpy=                  0.008892
 Thermal correction to Gibbs Free Energy=        -0.015104
 Sum of electronic and zero-point Energies=           -100.814720
 Sum of electronic and thermal Energies=              -100.812329
 Sum of electronic and thermal Enthalpies=            -100.811385
 Sum of electronic and thermal Free Energies=         -100.835382

                     E (Thermal)             CV                S
                      KCal/Mol        Cal/Mol-Kelvin    Cal/Mol-Kelvin
 Total                    4.988              5.353             50.505
 Electronic               0.000              0.000              1.377
 Translational            0.889              2.981             35.068
 Rotational               0.592              1.987             13.984
 Vibrational              3.506              0.385              0.076

 Normal termination of Gaussian 16 at Fri Aug 22 22:04:26 2025.
