 Gaussian 16, Revision C.01,
 Gaussian 16:  ES64L-G16RevC.01  3-Jul-2019

 -----------------------------------------
 # sp b3lyp/6-311g** Force nosymm scf=(qc)
 -----------------------------------------

 -------------------
 Title Card Required
 -------------------
 Symbolic Z-matrix:
 Charge =  0 Multiplicity = 2

                          Input orientation:
 ---------------------------------------------------------------------
 Center     Atomic      Atomic             Coordinates (Angstroms)
 Number     Number       Type             X           Y           Z
 ---------------------------------------------------------------------
      1          1           0        0.000000    0.000000    0.000000
      2          1           0       -3.800000    0.000000    0.000000
      3          9           0        2.600000    0.000000    0.000000
 ---------------------------------------------------------------------

 SCF Done:  E(UB3LYP) =  -100.765391309     a.u. after   20 cycles

 Alpha  occ. eigenvalues --  -24.72293  -1.18476  -0.51402  -0.43175  -0.43175
 Alpha  occ. eigenvalues --   -0.32716
 Alpha virt. eigenvalues --   -0.09599   0.23537   0.35559   0.89845   0.93315
 Alpha virt. eigenvalues --    0.93315   1.05955   1.24785   1.24785   1.24828
 Alpha virt. eigenvalues --    1.41369   1.41369   1.44293   2.14244   2.38223

  Beta  occ. eigenvalues --  -24.69402  -1.10234  -0.40290  -0.40290  -0.34963
  Beta virt. eigenvalues --   -0.23695  -0.06243   0.23790   0.38092   0.94714
  Beta virt. eigenvalues --    0.94714   0.96991   1.08618   1.22401   1.22401
  Beta virt. eigenvalues --    1.27227   1.46289   1.46494   1.46494   2.12945

 Mulliken charges and spin densities:
               1          2
     1  H    0.076565  -0.913142
     2  H    0.000363   0.999018
     3  F   -0.076928   0.914124
 Sum of Mulliken charges =  -0.00000   1.00000

 Dipole moment (field-independent basis, Debye):
    X=             -1.0271    Y=             -0.0000    Z=              0.0000  Tot=              1.0271
 Quadrupole moment (field-independent basis, Debye-Ang):
   XX=             -9.1520   YY=             -7.5785   ZZ=             -7.5785
   XY=             -0.0000   XZ=              0.0000   YZ=              0.0000

  Exact polarizability:      30.765      -0.000       2.025       0.000       0.000       2.025
 Approx polarizability:      37.879      -0.000       1.921       0.000      -0.000       1.921

 ******    2 imaginary frequencies (negative Signs) ******

                      1                      2                      3
                      A                      A                      A
 Frequencies --   -551.8729               -86.0156               211.1223
 Red. masses --      1.0557                 1.0558                 1.0231
 Frc consts  --      0.1894                 0.0046                 0.0269
 IR Inten    --     71.8292                 0.0852                 5.6908

                      4
                      A
 Frequencies --    211.1223
 Red. masses --      1.0231
 Frc consts  --      0.0269
 IR Inten    --      5.6908

 - Thermochemistry -
 -------------------
 Temperature   298.150 Kelvin.  Pressure   1.00000 Atm.
 Atom     1 has atomic number  1 and mass   1.00783

 Molecular mass:    21.01405 amu.
 Principal axes and moments of inertia in atomic units:
                           1         2         3
     Eigenvalues --     0.00000 157.76353 157.76353
           X            1.00000  -0.00000   0.00000
           Y            0.00000   1.00000   0.00000
           Z            0.00000   0.00000   1.00000
 This molecule is a prolate symmetric top.
 Rotational symmetry number  1.
 Rotational temperature (Kelvin)      0.54901
 Rotational constant (GHZ):          11.439534
    2 imaginary frequencies ignored.
 Zero-point vibrational energy       2525.6 (Joules/Mol)
                                    0.60363 (Kcal/Mol)
 Warning -- explicit consideration of   2 degrees of freedom as
           vibrations may cause significant error
 Vibrational temperatures:    303.76   303.76
          (Kelvin)

 Zero-point correction=                           0.000962 (Hartree/Particle)
 Thermal correction to Energy=                    0.004409
 Thermal correction to Enthalpy=                  0.005354
 Thermal correction to Gibbs Free Energy=        -0.020786
 Sum of electronic and zero-point Energies=           -100.764429
 Sum of electronic and thermal Energies=              -100.760982
 Sum of electronic and thermal Enthalpies=            -100.760038
 Sum of electronic and thermal Free Energies=         -100.786177

                     E (Thermal)             CV                S
                      KCal/Mol        Cal/Mol-Kelvin    Cal/Mol-Kelvin
 Total                    2.767              8.616             55.014
 Electronic               0.000              0.000              1.377
 Translational            0.889              2.981             35.068
 Rotational               0.592              1.987             14.501
 Vibrational              1.286              3.648              4.068
 Vibration     1          0.643              1.824              2.034
 Vibration     2          0.643              1.824              2.034

 Normal termination of Gaussian 16 at Fri Aug 22 18:05:29 2025.
