 Gaussian 16, Revision C.01,
 Gaussian 16:  ES64L-G16RevC.01  3-Jul-2019

 -----------------------------------------
 # sp b3lyp/6-311g** Force nosymm scf=(qc)
 -----------------------------------------

 -------------------
 Title Card Required
 -------------------
 Symbolic Z-matrix:
 Charge =  0 Multiplicity = 2

                          Input orientation:
 ---------------------------------------------------------------------
 Center     Atomic      Atomic             Coordinates (Angstroms)
 Number     Number       Type             X           Y           Z
 ---------------------------------------------------------------------
      1          1           0        0.000000    0.000000    0.000000
      2          1           0       -2.700000    0.000000    0.000000
      3          9           0        1.300000    0.000000    0.000000
 ---------------------------------------------------------------------

 SCF Done:  E(UB3LYP) =  -100.901794889     a.u. after    7 cycles

 Alpha  occ. eigenvalues --  -24.64214  -1.11007  -0.46015  -0.36938  -0.36938
 Alpha  occ. eigenvalues --   -0.35021
 Alpha virt. eigenvalues --   -0.08427   0.23417   0.27535   0.93137   0.93137
 Alpha virt. eigenvalues --    1.02146   1.20691   1.22506   1.22506   1.25804
 Alpha virt. eigenvalues --    1.33979   1.33979   1.71714   2.13698   2.25535

  Beta  occ. eigenvalues --  -24.64171  -1.10895  -0.45856  -0.36898  -0.36898
  Beta virt. eigenvalues --   -0.11819  -0.05165   0.26454   0.36754   0.93131
  Beta virt. eigenvalues --    0.93131   1.02252   1.22725   1.33860   1.33860
  Beta virt. eigenvalues --    1.44158   1.44158   1.44466   1.72018   2.25336

 Mulliken charges and spin densities:
               1          2
     1  H    0.352351  -0.003605
     2  H    0.008524   0.989978
     3  F   -0.360875   0.013627
 Sum of Mulliken charges =  -0.00000   1.00000

 Dipole moment (field-independent basis, Debye):
    X=             -2.5087    Y=             -0.0000    Z=             -0.0000  Tot=              2.5087
 Quadrupole moment (field-independent basis, Debye-Ang):
   XX=             -8.9229   YY=             -7.1989   ZZ=             -7.1989
   XY=             -0.0000   XZ=             -0.0000   YZ=             -0.0000

  Exact polarizability:      14.130       0.000       2.293       0.000       0.000       2.293
 Approx polarizability:      19.992      -0.000       2.240      -0.000       0.000       2.240

 ******    2 imaginary frequencies (negative Signs) ******

                      1                      2                      3
                      A                      A                      A
 Frequencies --   -683.2512              -141.1536              1142.8260
 Red. masses --      1.0460                 1.0657                 1.0287
 Frc consts  --      0.2877                 0.0125                 0.7916
 IR Inten    --    102.6500                 0.0413               125.0016

                      4
                      A
 Frequencies --   1142.8260
 Red. masses --      1.0287
 Frc consts  --      0.7916
 IR Inten    --    125.0016

 - Thermochemistry -
 -------------------
 Temperature   298.150 Kelvin.  Pressure   1.00000 Atm.
 Atom     1 has atomic number  1 and mass   1.00783

 Molecular mass:    21.01405 amu.
 Principal axes and moments of inertia in atomic units:
                           1         2         3
     Eigenvalues --     0.00000  58.81793  58.81793
           X            1.00000  -0.00000   0.00000
           Y            0.00000   1.00000   0.00000
           Z            0.00000   0.00000   1.00000
 This molecule is a prolate symmetric top.
 Rotational symmetry number  1.
 Rotational temperature (Kelvin)      1.47258
 Rotational constant (GHZ):          30.683520
    2 imaginary frequencies ignored.
 Zero-point vibrational energy      13671.2 (Joules/Mol)
                                    3.26750 (Kcal/Mol)
 Vibrational temperatures:   1644.27  1644.27
          (Kelvin)

 Zero-point correction=                           0.005207 (Hartree/Particle)
 Thermal correction to Energy=                    0.007610
 Thermal correction to Enthalpy=                  0.008554
 Thermal correction to Gibbs Free Energy=        -0.014771
 Sum of electronic and zero-point Energies=           -100.896588
 Sum of electronic and thermal Energies=              -100.894185
 Sum of electronic and thermal Enthalpies=            -100.893241
 Sum of electronic and thermal Free Energies=         -100.916566

                     E (Thermal)             CV                S
                      KCal/Mol        Cal/Mol-Kelvin    Cal/Mol-Kelvin
 Total                    4.775              5.459             49.090
 Electronic               0.000              0.000              1.377
 Translational            0.889              2.981             35.068
 Rotational               0.592              1.987             12.540
 Vibrational              3.294              0.491              0.105

 Normal termination of Gaussian 16 at Fri Aug 22 16:15:32 2025.
