 Gaussian 16, Revision C.01,
 Gaussian 16:  ES64L-G16RevC.01  3-Jul-2019

 -----------------------------------------
 # sp b3lyp/6-311g** Force nosymm scf=(qc)
 -----------------------------------------

 -------------------
 Title Card Required
 -------------------
 Symbolic Z-matrix:
 Charge =  0 Multiplicity = 2

                          Input orientation:
 ---------------------------------------------------------------------
 Center     Atomic      Atomic             Coordinates (Angstroms)
 Number     Number       Type             X           Y           Z
 ---------------------------------------------------------------------
      1          1           0        0.000000    0.000000    0.000000
      2          1           0       -1.200000    0.000000    0.000000
      3          9           0        3.500000    0.000000    0.000000
 ---------------------------------------------------------------------

 SCF Done:  E(UB3LYP) =  -100.871828216     a.u. after  191 cycles

 Alpha  occ. eigenvalues --  -24.76378  -1.22249  -0.55448  -0.46643  -0.46602
 Alpha  occ. eigenvalues --   -0.36298
 Alpha virt. eigenvalues --   -0.04038   0.22858   0.34236   0.85952   0.90828
 Alpha virt. eigenvalues --    0.92205   1.01423   1.12939   1.12942   1.22239
 Alpha virt. eigenvalues --    1.54440   1.54443   2.07685   2.31818   2.54663

  Beta  occ. eigenvalues --  -24.73221  -1.13172  -0.43480  -0.43437  -0.36295
  Beta virt. eigenvalues --   -0.26090  -0.04033   0.22866   0.34270   0.92327
  Beta virt. eigenvalues --    0.93712   0.95416   1.05522   1.12939   1.12942
  Beta virt. eigenvalues --    1.22247   1.54440   1.54443   2.07692   2.31820

 Mulliken charges and spin densities:
               1          2
     1  H    0.000120  -0.000168
     2  H   -0.003166  -0.000189
     3  F    0.003046   1.000357
 Sum of Mulliken charges =  -0.00000   1.00000

 Dipole moment (field-independent basis, Debye):
    X=              0.0482    Y=             -0.0000    Z=             -0.0000  Tot=              0.0482
 Quadrupole moment (field-independent basis, Debye-Ang):
   XX=             -6.2577   YY=             -7.4963   ZZ=             -6.6322
   XY=              0.0000   XZ=             -0.0000   YZ=             -0.0091

  Exact polarizability:      16.051       0.000       2.078      -0.000      -0.005       2.543
 Approx polarizability:      24.124       0.000       2.105      -0.000      -0.006       2.687

 ******    2 imaginary frequencies (negative Signs) ******

                      1                      2                      3
                      A                      A                      A
 Frequencies --   -453.0791               -43.7573              1470.9148
 Red. masses --      1.0078                 1.1085                 1.0099
 Frc consts  --      0.1219                 0.0013                 1.2874
 IR Inten    --      0.1948                 0.1705                 0.0010

                      4
                      A
 Frequencies --   1471.6317
 Red. masses --      1.0099
 Frc consts  --      1.2887
 IR Inten    --      0.0010

 - Thermochemistry -
 -------------------
 Temperature   298.150 Kelvin.  Pressure   1.00000 Atm.
 Atom     1 has atomic number  1 and mass   1.00783

 Molecular mass:    21.01405 amu.
 Principal axes and moments of inertia in atomic units:
                           1         2         3
     Eigenvalues --     0.00000 111.98386 111.98386
           X            1.00000  -0.00000   0.00000
           Y            0.00000   1.00000   0.00000
           Z            0.00000   0.00000   1.00000
 This molecule is a prolate symmetric top.
 Rotational symmetry number  1.
 Rotational temperature (Kelvin)      0.77345
 Rotational constant (GHZ):          16.116083
    2 imaginary frequencies ignored.
 Zero-point vibrational energy      17600.3 (Joules/Mol)
                                    4.20658 (Kcal/Mol)
 Vibrational temperatures:   2116.32  2117.35
          (Kelvin)

 Zero-point correction=                           0.006704 (Hartree/Particle)
 Thermal correction to Energy=                    0.009075
 Thermal correction to Enthalpy=                  0.010019
 Thermal correction to Gibbs Free Energy=        -0.013876
 Sum of electronic and zero-point Energies=           -100.865125
 Sum of electronic and thermal Energies=              -100.862753
 Sum of electronic and thermal Enthalpies=            -100.861809
 Sum of electronic and thermal Free Energies=         -100.885704

                     E (Thermal)             CV                S
                      KCal/Mol        Cal/Mol-Kelvin    Cal/Mol-Kelvin
 Total                    5.695              5.134             50.292
 Electronic               0.000              0.000              1.377
 Translational            0.889              2.981             35.068
 Rotational               0.592              1.987             13.820
 Vibrational              4.214              0.166              0.027

 Normal termination of Gaussian 16 at Fri Aug 22 21:56:51 2025.
