 Gaussian 16, Revision C.01,
 Gaussian 16:  ES64L-G16RevC.01  3-Jul-2019

 -----------------------------------------
 # sp b3lyp/6-311g** Force nosymm scf=(qc)
 -----------------------------------------

 -------------------
 Title Card Required
 -------------------
 Symbolic Z-matrix:
 Charge =  0 Multiplicity = 2

                          Input orientation:
 ---------------------------------------------------------------------
 Center     Atomic      Atomic             Coordinates (Angstroms)
 Number     Number       Type             X           Y           Z
 ---------------------------------------------------------------------
      1          1           0        0.000000    0.000000    0.000000
      2          1           0       -3.600000    0.000000    0.000000
      3          9           0        2.950000    0.000000    0.000000
 ---------------------------------------------------------------------

 SCF Done:  E(UB3LYP) =  -100.761360367     a.u. after   21 cycles

 Alpha  occ. eigenvalues --  -24.73895  -1.19970  -0.53015  -0.44516  -0.44516
 Alpha  occ. eigenvalues --   -0.32547
 Alpha virt. eigenvalues --   -0.08227   0.23916   0.36089   0.89523   0.92389
 Alpha virt. eigenvalues --    0.92389   1.04178   1.24957   1.24957   1.25066
 Alpha virt. eigenvalues --    1.43864   1.43864   1.44244   2.14662   2.39946

  Beta  occ. eigenvalues --  -24.70881  -1.11336  -0.41500  -0.41500  -0.33858
  Beta virt. eigenvalues --   -0.24665  -0.06425   0.23893   0.37980   0.93846
  Beta virt. eigenvalues --    0.93846   0.98124   1.07842   1.23465   1.23465
  Beta virt. eigenvalues --    1.24070   1.46006   1.46248   1.46248   2.14701

 Mulliken charges and spin densities:
               1          2
     1  H    0.040686  -0.953307
     2  H    0.000375   0.998390
     3  F   -0.041061   0.954917
 Sum of Mulliken charges =  -0.00000   1.00000

 Dipole moment (field-independent basis, Debye):
    X=             -0.6283    Y=              0.0000    Z=              0.0000  Tot=              0.6283
 Quadrupole moment (field-independent basis, Debye-Ang):
   XX=             -8.4197   YY=             -7.6058   ZZ=             -7.6058
   XY=             -0.0000   XZ=             -0.0000   YZ=              0.0000

  Exact polarizability:      31.795      -0.000       2.026      -0.000      -0.000       2.026
 Approx polarizability:      33.289      -0.000       1.926      -0.000       0.000       1.926

 ******    2 imaginary frequencies (negative Signs) ******

                      1                      2                      3
                      A                      A                      A
 Frequencies --   -392.2636              -106.6850               138.9269
 Red. masses --      1.0497                 1.0619                 1.0205
 Frc consts  --      0.0952                 0.0071                 0.0116
 IR Inten    --     42.9975                 0.3841                 1.5658

                      4
                      A
 Frequencies --    138.9269
 Red. masses --      1.0205
 Frc consts  --      0.0116
 IR Inten    --      1.5658

 - Thermochemistry -
 -------------------
 Temperature   298.150 Kelvin.  Pressure   1.00000 Atm.
 Atom     1 has atomic number  1 and mass   1.00783

 Molecular mass:    21.01405 amu.
 Principal axes and moments of inertia in atomic units:
                           1         2         3
     Eigenvalues --     0.00000 170.14906 170.14906
           X            1.00000  -0.00000   0.00000
           Y            0.00000   1.00000   0.00000
           Z            0.00000   0.00000   1.00000
 This molecule is a prolate symmetric top.
 Rotational symmetry number  1.
 Rotational temperature (Kelvin)      0.50905
 Rotational constant (GHZ):          10.606824
    2 imaginary frequencies ignored.
 Zero-point vibrational energy       1661.9 (Joules/Mol)
                                    0.39721 (Kcal/Mol)
 Warning -- explicit consideration of   2 degrees of freedom as
           vibrations may cause significant error
 Vibrational temperatures:    199.88   199.88
          (Kelvin)

 Zero-point correction=                           0.000633 (Hartree/Particle)
 Thermal correction to Energy=                    0.004319
 Thermal correction to Enthalpy=                  0.005263
 Thermal correction to Gibbs Free Energy=        -0.021693
 Sum of electronic and zero-point Energies=           -100.760727
 Sum of electronic and thermal Energies=              -100.757041
 Sum of electronic and thermal Enthalpies=            -100.756097
 Sum of electronic and thermal Free Energies=         -100.783053

                     E (Thermal)             CV                S
                      KCal/Mol        Cal/Mol-Kelvin    Cal/Mol-Kelvin
 Total                    2.710              8.797             56.734
 Electronic               0.000              0.000              1.377
 Translational            0.889              2.981             35.068
 Rotational               0.592              1.987             14.651
 Vibrational              1.229              3.829              5.637
 Vibration     1          0.615              1.914              2.819
 Vibration     2          0.615              1.914              2.819

 Normal termination of Gaussian 16 at Fri Aug 22 19:19:05 2025.
