 Gaussian 16, Revision C.01,
 Gaussian 16:  ES64L-G16RevC.01  3-Jul-2019

 -----------------------------------------
 # sp b3lyp/6-311g** Force nosymm scf=(qc)
 -----------------------------------------

 -------------------
 Title Card Required
 -------------------
 Symbolic Z-matrix:
 Charge =  0 Multiplicity = 2

                          Input orientation:
 ---------------------------------------------------------------------
 Center     Atomic      Atomic             Coordinates (Angstroms)
 Number     Number       Type             X           Y           Z
 ---------------------------------------------------------------------
      1          1           0        0.000000    0.000000    0.000000
      2          1           0       -1.500000    0.000000    0.000000
      3          9           0        3.200000    0.000000    0.000000
 ---------------------------------------------------------------------

 SCF Done:  E(UB3LYP) =  -100.820508324     a.u. after   26 cycles

 Alpha  occ. eigenvalues --  -24.76562  -1.22411  -0.55605  -0.46825  -0.46757
 Alpha  occ. eigenvalues --   -0.33502
 Alpha virt. eigenvalues --   -0.09729   0.25018   0.30490   0.85821   0.90695
 Alpha virt. eigenvalues --    0.92694   1.02152   1.07637   1.20426   1.20430
 Alpha virt. eigenvalues --    1.41523   1.41528   1.82298   2.22570   2.47066

  Beta  occ. eigenvalues --  -24.73404  -1.13332  -0.43665  -0.43591  -0.33494
  Beta virt. eigenvalues --   -0.26240  -0.09734   0.25048   0.30543   0.92196
  Beta virt. eigenvalues --    0.94239   0.95283   1.06157   1.07641   1.20419
  Beta virt. eigenvalues --    1.20424   1.41520   1.41524   1.82334   2.22653

 Mulliken charges and spin densities:
               1          2
     1  H    0.000012  -0.107472
     2  H   -0.005069   0.106940
     3  F    0.005057   1.000532
 Sum of Mulliken charges =   0.00000   1.00000

 Dipole moment (field-independent basis, Debye):
    X=              0.0835    Y=             -0.0000    Z=              0.0000  Tot=              0.0835
 Quadrupole moment (field-independent basis, Debye-Ang):
   XX=             -6.1977   YY=             -7.7336   ZZ=             -6.9326
   XY=             -0.0000   XZ=              0.0000   YZ=             -0.1620

  Exact polarizability:      23.120       0.000       2.058      -0.000      -0.090       2.501
 Approx polarizability:      43.648      -0.000       2.059       0.000      -0.109       2.598

 ******    1 imaginary frequencies (negative Signs) ******

                      1                      2                      3
                      A                      A                      A
 Frequencies --  -2266.8811                31.4447              1207.7419
 Red. masses --      1.0078                 1.1085                 1.0113
 Frc consts  --      3.0514                 0.0006                 0.8692
 IR Inten    --      0.1082                 0.4350                 0.0323

                      4
                      A
 Frequencies --   1219.0103
 Red. masses --      1.0113
 Frc consts  --      0.8855
 IR Inten    --      0.0044

 - Thermochemistry -
 -------------------
 Temperature   298.150 Kelvin.  Pressure   1.00000 Atm.
 Atom     1 has atomic number  1 and mass   1.00783

 Molecular mass:    21.01405 amu.
 Principal axes and moments of inertia in atomic units:
                           1         2         3
     Eigenvalues --     0.00000 105.58355 105.58355
           X            1.00000  -0.00000   0.00000
           Y            0.00000   1.00000   0.00000
           Z            0.00000   0.00000   1.00000
 This molecule is a prolate symmetric top.
 Rotational symmetry number  1.
 Rotational temperature (Kelvin)      0.82034
 Rotational constant (GHZ):          17.093015
    1 imaginary frequencies ignored.
 Zero-point vibrational energy      14703.3 (Joules/Mol)
                                    3.51417 (Kcal/Mol)
 Warning -- explicit consideration of   1 degrees of freedom as
           vibrations may cause significant error
 Vibrational temperatures:     45.24  1737.67  1753.88
          (Kelvin)

 Zero-point correction=                           0.005600 (Hartree/Particle)
 Thermal correction to Energy=                    0.008867
 Thermal correction to Enthalpy=                  0.009811
 Thermal correction to Gibbs Free Energy=        -0.016779
 Sum of electronic and zero-point Energies=           -100.814908
 Sum of electronic and thermal Energies=              -100.811642
 Sum of electronic and thermal Enthalpies=            -100.810697
 Sum of electronic and thermal Free Energies=         -100.837287

                     E (Thermal)             CV                S
                      KCal/Mol        Cal/Mol-Kelvin    Cal/Mol-Kelvin
 Total                    5.564              7.344             55.963
 Electronic               0.000              0.000              1.377
 Translational            0.889              2.981             35.068
 Rotational               0.592              1.987             13.703
 Vibrational              4.083              2.376              5.814
 Vibration     1          0.594              1.983              5.736

 Normal termination of Gaussian 16 at Fri Aug 22 20:21:36 2025.
