 Gaussian 16, Revision C.01,
 Gaussian 16:  ES64L-G16RevC.01  3-Jul-2019

 -----------------------------------------
 # sp b3lyp/6-311g** Force nosymm scf=(qc)
 -----------------------------------------

 -------------------
 Title Card Required
 -------------------
 Symbolic Z-matrix:
 Charge =  0 Multiplicity = 2

                          Input orientation:
 ---------------------------------------------------------------------
 Center     Atomic      Atomic             Coordinates (Angstroms)
 Number     Number       Type             X           Y           Z
 ---------------------------------------------------------------------
      1          1           0        0.000000    0.000000    0.000000
      2          1           0       -2.500000    0.000000    0.000000
      3          9           0        2.150000    0.000000    0.000000
 ---------------------------------------------------------------------

 SCF Done:  E(UB3LYP) =  -100.782337348     a.u. after   17 cycles

 Alpha  occ. eigenvalues --  -24.69327  -1.15638  -0.48371  -0.40674  -0.40674
 Alpha  occ. eigenvalues --   -0.34511
 Alpha virt. eigenvalues --   -0.13257   0.24242   0.31909   0.88967   0.94687
 Alpha virt. eigenvalues --    0.94687   1.06385   1.23140   1.23140   1.26225
 Alpha virt. eigenvalues --    1.35960   1.35960   1.53044   2.14022   2.30174

  Beta  occ. eigenvalues --  -24.66756  -1.08398  -0.38129  -0.38129  -0.36882
  Beta virt. eigenvalues --   -0.21734  -0.09844   0.25311   0.34640   0.92363
  Beta virt. eigenvalues --    0.95695   0.95695   1.08823   1.21880   1.21880
  Beta virt. eigenvalues --    1.41300   1.41300   1.42351   1.45697   2.13173

 Mulliken charges and spin densities:
               1          2
     1  H    0.138467  -0.779557
     2  H    0.015733   0.970125
     3  F   -0.154200   0.809431
 Sum of Mulliken charges =   0.00000   1.00000

 Dipole moment (field-independent basis, Debye):
    X=             -1.8451    Y=             -0.0000    Z=              0.0000  Tot=              1.8451
 Quadrupole moment (field-independent basis, Debye-Ang):
   XX=             -9.2861   YY=             -7.5555   ZZ=             -7.5555
   XY=             -0.0000   XZ=              0.0000   YZ=              0.0000

  Exact polarizability:      39.772      -0.000       2.038       0.000       0.000       2.038
 Approx polarizability:      46.659       0.000       1.933      -0.000      -0.000       1.933

 ******    2 imaginary frequencies (negative Signs) ******

                      1                      2                      3
                      A                      A                      A
 Frequencies --  -1039.8285              -388.4280               431.9477
 Red. masses --      1.0366                 1.0757                 1.0199
 Frc consts  --      0.6604                 0.0956                 0.1121
 IR Inten    --     83.1397                18.3987                15.8054

                      4
                      A
 Frequencies --    431.9477
 Red. masses --      1.0199
 Frc consts  --      0.1121
 IR Inten    --     15.8054

 - Thermochemistry -
 -------------------
 Temperature   298.150 Kelvin.  Pressure   1.00000 Atm.
 Atom     1 has atomic number  1 and mass   1.00783

 Molecular mass:    21.01405 amu.
 Principal axes and moments of inertia in atomic units:
                           1         2         3
     Eigenvalues --     0.00000  86.47464  86.47464
           X            1.00000  -0.00000   0.00000
           Y            0.00000   1.00000   0.00000
           Z            0.00000   0.00000   1.00000
 This molecule is a prolate symmetric top.
 Rotational symmetry number  1.
 Rotational temperature (Kelvin)      1.00161
 Rotational constant (GHZ):          20.870180
    2 imaginary frequencies ignored.
 Zero-point vibrational energy       5167.2 (Joules/Mol)
                                    1.23500 (Kcal/Mol)
 Warning -- explicit consideration of   2 degrees of freedom as
           vibrations may cause significant error
 Vibrational temperatures:    621.48   621.48
          (Kelvin)

 Zero-point correction=                           0.001968 (Hartree/Particle)
 Thermal correction to Energy=                    0.004888
 Thermal correction to Enthalpy=                  0.005832
 Thermal correction to Gibbs Free Energy=        -0.018617
 Sum of electronic and zero-point Energies=           -100.780369
 Sum of electronic and thermal Energies=              -100.777450
 Sum of electronic and thermal Enthalpies=            -100.776505
 Sum of electronic and thermal Free Energies=         -100.800954

                     E (Thermal)             CV                S
                      KCal/Mol        Cal/Mol-Kelvin    Cal/Mol-Kelvin
 Total                    3.067              7.769             51.456
 Electronic               0.000              0.000              1.377
 Translational            0.889              2.981             35.068
 Rotational               0.592              1.987             13.306
 Vibrational              1.586              2.801              1.705
 Vibration     1          0.793              1.401              0.852
 Vibration     2          0.793              1.401              0.852

 Normal termination of Gaussian 16 at Fri Aug 22 17:08:07 2025.
