 Gaussian 16, Revision C.01,
 Gaussian 16:  ES64L-G16RevC.01  3-Jul-2019

 -----------------------------------------
 # sp b3lyp/6-311g** Force nosymm scf=(qc)
 -----------------------------------------

 -------------------
 Title Card Required
 -------------------
 Symbolic Z-matrix:
 Charge =  0 Multiplicity = 2

                          Input orientation:
 ---------------------------------------------------------------------
 Center     Atomic      Atomic             Coordinates (Angstroms)
 Number     Number       Type             X           Y           Z
 ---------------------------------------------------------------------
      1          1           0        0.000000    0.000000    0.000000
      2          1           0       -1.900000    0.000000    0.000000
      3          9           0        2.000000    0.000000    0.000000
 ---------------------------------------------------------------------

 SCF Done:  E(UB3LYP) =  -100.804336835     a.u. after   13 cycles

 Alpha  occ. eigenvalues --  -24.68255  -1.14595  -0.47393  -0.39765  -0.39765
 Alpha  occ. eigenvalues --   -0.36746
 Alpha virt. eigenvalues --   -0.13235   0.23690   0.30780   0.87283   0.94890
 Alpha virt. eigenvalues --    0.94890   1.04254   1.21068   1.21068   1.27988
 Alpha virt. eigenvalues --    1.33957   1.33957   1.62296   2.11617   2.33077

  Beta  occ. eigenvalues --  -24.65845  -1.07850  -0.37388  -0.37388  -0.37344
  Beta virt. eigenvalues --   -0.21706  -0.11539   0.26100   0.31094   0.90177
  Beta virt. eigenvalues --    0.95658   0.95658   1.08020   1.23033   1.23033
  Beta virt. eigenvalues --    1.35531   1.35531   1.36416   1.60855   2.12552

 Mulliken charges and spin densities:
               1          2
     1  H    0.133479  -0.605326
     2  H    0.050097   0.847889
     3  F   -0.183575   0.757437
 Sum of Mulliken charges =  -0.00000   1.00000

 Dipole moment (field-independent basis, Debye):
    X=             -2.2809    Y=              0.0000    Z=             -0.0000  Tot=              2.2809
 Quadrupole moment (field-independent basis, Debye-Ang):
   XX=             -8.5536   YY=             -7.5521   ZZ=             -7.5521
   XY=              0.0000   XZ=             -0.0000   YZ=              0.0000

  Exact polarizability:      51.388       0.000       2.067      -0.000      -0.000       2.067
 Approx polarizability:      63.860       0.000       1.979      -0.000       0.000       1.979

 ******    2 imaginary frequencies (negative Signs) ******

                      1                      2                      3
                      A                      A                      A
 Frequencies --  -1704.2729              -580.8473               706.7009
 Red. masses --      1.0164                 1.0983                 1.0173
 Frc consts  --      1.7394                 0.2183                 0.2994
 IR Inten    --    161.5672                34.3719                10.0509

                      4
                      A
 Frequencies --    706.7009
 Red. masses --      1.0173
 Frc consts  --      0.2994
 IR Inten    --     10.0509

 - Thermochemistry -
 -------------------
 Temperature   298.150 Kelvin.  Pressure   1.00000 Atm.
 Atom     1 has atomic number  1 and mass   1.00783

 Molecular mass:    21.01405 amu.
 Principal axes and moments of inertia in atomic units:
                           1         2         3
     Eigenvalues --     0.00000  63.12851  63.12851
           X            1.00000  -0.00000   0.00000
           Y            0.00000   1.00000   0.00000
           Z            0.00000   0.00000   1.00000
 This molecule is a prolate symmetric top.
 Rotational symmetry number  1.
 Rotational temperature (Kelvin)      1.37203
 Rotational constant (GHZ):          28.588371
    2 imaginary frequencies ignored.
 Zero-point vibrational energy       8454.0 (Joules/Mol)
                                    2.02056 (Kcal/Mol)
 Vibrational temperatures:   1016.79  1016.79
          (Kelvin)

 Zero-point correction=                           0.003220 (Hartree/Particle)
 Thermal correction to Energy=                    0.005800
 Thermal correction to Enthalpy=                  0.006745
 Thermal correction to Gibbs Free Energy=        -0.016880
 Sum of electronic and zero-point Energies=           -100.801117
 Sum of electronic and thermal Energies=              -100.798536
 Sum of electronic and thermal Enthalpies=            -100.797592
 Sum of electronic and thermal Free Energies=         -100.821217

                     E (Thermal)             CV                S
                      KCal/Mol        Cal/Mol-Kelvin    Cal/Mol-Kelvin
 Total                    3.640              6.601             49.723
 Electronic               0.000              0.000              1.377
 Translational            0.889              2.981             35.068
 Rotational               0.592              1.987             12.681
 Vibrational              2.159              1.633              0.596

 Normal termination of Gaussian 16 at Fri Aug 22 16:56:24 2025.
