 Gaussian 16, Revision C.01,
 Gaussian 16:  ES64L-G16RevC.01  3-Jul-2019

 -----------------------------------------
 # sp b3lyp/6-311g** Force nosymm scf=(qc)
 -----------------------------------------

 -------------------
 Title Card Required
 -------------------
 Symbolic Z-matrix:
 Charge =  0 Multiplicity = 2

                          Input orientation:
 ---------------------------------------------------------------------
 Center     Atomic      Atomic             Coordinates (Angstroms)
 Number     Number       Type             X           Y           Z
 ---------------------------------------------------------------------
      1          1           0        0.000000    0.000000    0.000000
      2          1           0       -2.000000    0.000000    0.000000
      3          9           0        2.550000    0.000000    0.000000
 ---------------------------------------------------------------------

 SCF Done:  E(UB3LYP) =  -100.781139600     a.u. after   19 cycles

 Alpha  occ. eigenvalues --  -24.72197  -1.18374  -0.51307  -0.43080  -0.43080
 Alpha  occ. eigenvalues --   -0.34694
 Alpha virt. eigenvalues --   -0.12642   0.24902   0.31974   0.90099   0.93385
 Alpha virt. eigenvalues --    0.93385   1.05789   1.19981   1.23245   1.23245
 Alpha virt. eigenvalues --    1.35358   1.35358   1.49260   2.11418   2.35139

  Beta  occ. eigenvalues --  -24.69319  -1.10169  -0.40208  -0.40208  -0.35001
  Beta virt. eigenvalues --   -0.23786  -0.11557   0.26515   0.32021   0.94774
  Beta virt. eigenvalues --    0.94774   0.97328   1.08813   1.22309   1.23002
  Beta virt. eigenvalues --    1.23002   1.37097   1.37097   1.50042   2.12230

 Mulliken charges and spin densities:
               1          2
     1  H    0.050419  -0.777695
     2  H    0.027409   0.867621
     3  F   -0.077828   0.910074
 Sum of Mulliken charges =  -0.00000   1.00000

 Dipole moment (field-independent basis, Debye):
    X=             -1.2744    Y=              0.0000    Z=             -0.0000  Tot=              1.2744
 Quadrupole moment (field-independent basis, Debye-Ang):
   XX=             -8.0814   YY=             -7.6676   ZZ=             -7.6676
   XY=              0.0000   XZ=             -0.0000   YZ=             -0.0000

  Exact polarizability:      59.622       0.000       2.008      -0.000       0.000       2.008
 Approx polarizability:      62.985       0.000       1.929      -0.000      -0.000       1.929

 ******    2 imaginary frequencies (negative Signs) ******

                      1                      2                      3
                      A                      A                      A
 Frequencies --  -1391.2945              -374.0930               561.9696
 Red. masses --      1.0090                 1.1071                 1.0153
 Frc consts  --      1.1507                 0.0913                 0.1889
 IR Inten    --     72.2701                48.9661                 1.3234

                      4
                      A
 Frequencies --    561.9696
 Red. masses --      1.0153
 Frc consts  --      0.1889
 IR Inten    --      1.3234

 - Thermochemistry -
 -------------------
 Temperature   298.150 Kelvin.  Pressure   1.00000 Atm.
 Atom     1 has atomic number  1 and mass   1.00783

 Molecular mass:    21.01405 amu.
 Principal axes and moments of inertia in atomic units:
                           1         2         3
     Eigenvalues --     0.00000  89.20991  89.20991
           X            1.00000  -0.00000   0.00000
           Y            0.00000   1.00000   0.00000
           Z            0.00000   0.00000   1.00000
 This molecule is a prolate symmetric top.
 Rotational symmetry number  1.
 Rotational temperature (Kelvin)      0.97090
 Rotational constant (GHZ):          20.230277
    2 imaginary frequencies ignored.
 Zero-point vibrational energy       6722.6 (Joules/Mol)
                                    1.60675 (Kcal/Mol)
 Warning -- explicit consideration of   2 degrees of freedom as
           vibrations may cause significant error
 Vibrational temperatures:    808.55   808.55
          (Kelvin)

 Zero-point correction=                           0.002561 (Hartree/Particle)
 Thermal correction to Energy=                    0.005285
 Thermal correction to Enthalpy=                  0.006229
 Thermal correction to Gibbs Free Energy=        -0.017933
 Sum of electronic and zero-point Energies=           -100.778579
 Sum of electronic and thermal Energies=              -100.775854
 Sum of electronic and thermal Enthalpies=            -100.774910
 Sum of electronic and thermal Free Energies=         -100.799072

                     E (Thermal)             CV                S
                      KCal/Mol        Cal/Mol-Kelvin    Cal/Mol-Kelvin
 Total                    3.317              7.195             50.853
 Electronic               0.000              0.000              1.377
 Translational            0.889              2.981             35.068
 Rotational               0.592              1.987             13.368
 Vibrational              1.835              2.227              1.040
 Vibration     1          0.918              1.114              0.520
 Vibration     2          0.918              1.114              0.520

 Normal termination of Gaussian 16 at Fri Aug 22 17:53:49 2025.
