 Gaussian 16, Revision C.01,
 Gaussian 16:  ES64L-G16RevC.01  3-Jul-2019

 -----------------------------------------
 # sp b3lyp/6-311g** Force nosymm scf=(qc)
 -----------------------------------------

 -------------------
 Title Card Required
 -------------------
 Symbolic Z-matrix:
 Charge =  0 Multiplicity = 2

                          Input orientation:
 ---------------------------------------------------------------------
 Center     Atomic      Atomic             Coordinates (Angstroms)
 Number     Number       Type             X           Y           Z
 ---------------------------------------------------------------------
      1          1           0        0.000000    0.000000    0.000000
      2          1           0       -0.500000    0.000000    0.000000
      3          9           0        3.800000    0.000000    0.000000
 ---------------------------------------------------------------------

 SCF Done:  E(UB3LYP) =  -100.861530839     a.u. after  107 cycles

 Alpha  occ. eigenvalues --  -24.76214  -1.22090  -0.55294  -0.49305  -0.46467
 Alpha  occ. eigenvalues --   -0.46449
 Alpha virt. eigenvalues --    0.09935   0.18297   0.55753   0.86093   0.90970
 Alpha virt. eigenvalues --    0.92485   1.01579   1.12031   1.12033   1.61039
 Alpha virt. eigenvalues --    1.84504   1.99559   1.99562   2.36086   3.64930

  Beta  occ. eigenvalues --  -24.73057  -1.13014  -0.49304  -0.43302  -0.43284
  Beta virt. eigenvalues --   -0.25938   0.09950   0.18303   0.55811   0.92470
  Beta virt. eigenvalues --    0.93982   0.95558   1.05659   1.12031   1.12033
  Beta virt. eigenvalues --    1.61044   1.84518   1.99559   1.99562   2.36087

 Mulliken charges and spin densities:
               1          2
     1  H   -0.001406  -0.000386
     2  H   -0.001153   0.000105
     3  F    0.002559   1.000280
 Sum of Mulliken charges =   0.00000   1.00000

 Dipole moment (field-independent basis, Debye):
    X=              0.0309    Y=             -0.0000    Z=              0.0000  Tot=              0.0309
 Quadrupole moment (field-independent basis, Debye-Ang):
   XX=             -6.1618   YY=             -6.5868   ZZ=             -5.7232
   XY=             -0.0000   XZ=              0.0000   YZ=             -0.0189

  Exact polarizability:       5.338       0.000       1.799       0.000      -0.010       2.264
 Approx polarizability:       5.657      -0.000       1.880       0.000      -0.013       2.462

 ******    3 imaginary frequencies (negative Signs) ******

                      1                      2                      3
                      A                      A                      A
 Frequencies --  -4834.2602             -4833.9237               -49.3773
 Red. masses --      1.0082                 1.0082                 1.1085
 Frc consts  --     13.8823                13.8804                 0.0016
 IR Inten    --      0.0021                 0.0019                 0.0818

                      4
                      A
 Frequencies --   9960.6127
 Red. masses --      1.0078
 Frc consts  --     58.9125
 IR Inten    --      0.0351

 - Thermochemistry -
 -------------------
 Temperature   298.150 Kelvin.  Pressure   1.00000 Atm.
 Atom     1 has atomic number  1 and mass   1.00783

 Molecular mass:    21.01405 amu.
 Principal axes and moments of inertia in atomic units:
                           1         2         3
     Eigenvalues --     0.00000 107.19061 107.19061
           X            1.00000  -0.00000   0.00000
           Y            0.00000   1.00000   0.00000
           Z            0.00000   0.00000   1.00000
 This molecule is a prolate symmetric top.
 Rotational symmetry number  1.
 Rotational temperature (Kelvin)      0.80804
 Rotational constant (GHZ):          16.836747
    3 imaginary frequencies ignored.
 Zero-point vibrational energy      59577.7 (Joules/Mol)
                                   14.23941 (Kcal/Mol)
 Vibrational temperatures:  14331.10
          (Kelvin)

 Zero-point correction=                           0.022692 (Hartree/Particle)
 Thermal correction to Energy=                    0.025052
 Thermal correction to Enthalpy=                  0.025997
 Thermal correction to Gibbs Free Energy=         0.002155
 Sum of electronic and zero-point Energies=           -100.838839
 Sum of electronic and thermal Energies=              -100.836478
 Sum of electronic and thermal Enthalpies=            -100.835534
 Sum of electronic and thermal Free Energies=         -100.859376

                     E (Thermal)             CV                S
                      KCal/Mol        Cal/Mol-Kelvin    Cal/Mol-Kelvin
 Total                   15.721              4.968             50.178
 Electronic               0.000              0.000              1.377
 Translational            0.889              2.981             35.068
 Rotational               0.592              1.987             13.733
 Vibrational             14.239              0.000              0.000

 Normal termination of Gaussian 16 at Sat Aug 23 00:29:02 2025.
