 Gaussian 16, Revision C.01,
 Gaussian 16:  ES64L-G16RevC.01  3-Jul-2019

 -----------------------------------------
 # sp b3lyp/6-311g** Force nosymm scf=(qc)
 -----------------------------------------

 -------------------
 Title Card Required
 -------------------
 Symbolic Z-matrix:
 Charge =  0 Multiplicity = 2

                          Input orientation:
 ---------------------------------------------------------------------
 Center     Atomic      Atomic             Coordinates (Angstroms)
 Number     Number       Type             X           Y           Z
 ---------------------------------------------------------------------
      1          1           0        0.000000    0.000000    0.000000
      2          1           0       -1.950000    0.000000    0.000000
      3          9           0        3.000000    0.000000    0.000000
 ---------------------------------------------------------------------

 SCF Done:  E(UB3LYP) =  -100.778565373     a.u. after   25 cycles

 Alpha  occ. eigenvalues --  -24.74393  -1.20426  -0.53512  -0.44931  -0.44931
 Alpha  occ. eigenvalues --   -0.33780
 Alpha virt. eigenvalues --   -0.11772   0.25453   0.31595   0.89621   0.92084
 Alpha virt. eigenvalues --    0.92084   1.03950   1.14931   1.24171   1.24171
 Alpha virt. eigenvalues --    1.36610   1.36610   1.52477   2.12540   2.37230

  Beta  occ. eigenvalues --  -24.71351  -1.11704  -0.41886  -0.41886  -0.33868
  Beta virt. eigenvalues --   -0.25029  -0.11234   0.25942   0.32040   0.93549
  Beta virt. eigenvalues --    0.93549   0.98343   1.07840   1.15041   1.24030
  Beta virt. eigenvalues --    1.24030   1.37408   1.37408   1.53105   2.13681

 Mulliken charges and spin densities:
               1          2
     1  H    0.015793  -0.800668
     2  H    0.015851   0.836821
     3  F   -0.031644   0.963847
 Sum of Mulliken charges =  -0.00000   1.00000

 Dipole moment (field-independent basis, Debye):
    X=             -0.6338    Y=             -0.0000    Z=             -0.0000  Tot=              0.6338
 Quadrupole moment (field-independent basis, Debye-Ang):
   XX=             -7.2403   YY=             -7.7171   ZZ=             -7.7171
   XY=             -0.0000   XZ=             -0.0000   YZ=             -0.0000

  Exact polarizability:      59.397      -0.000       2.005      -0.000      -0.000       2.005
 Approx polarizability:      56.119      -0.000       1.936      -0.000       0.000       1.936

 ******    2 imaginary frequencies (negative Signs) ******

                      1                      2                      3
                      A                      A                      A
 Frequencies --  -1457.7570              -238.3626               598.3637
 Red. masses --      1.0080                 1.1083                 1.0136
 Frc consts  --      1.2620                 0.0371                 0.2138
 IR Inten    --     46.3202                28.3559                 0.0749

                      4
                      A
 Frequencies --    598.3637
 Red. masses --      1.0136
 Frc consts  --      0.2138
 IR Inten    --      0.0749

 - Thermochemistry -
 -------------------
 Temperature   298.150 Kelvin.  Pressure   1.00000 Atm.
 Atom     1 has atomic number  1 and mass   1.00783

 Molecular mass:    21.01405 amu.
 Principal axes and moments of inertia in atomic units:
                           1         2         3
     Eigenvalues --     0.00000 109.66660 109.66660
           X            1.00000  -0.00000   0.00000
           Y            0.00000   1.00000   0.00000
           Z            0.00000   0.00000   1.00000
 This molecule is a prolate symmetric top.
 Rotational symmetry number  1.
 Rotational temperature (Kelvin)      0.78979
 Rotational constant (GHZ):          16.456617
    2 imaginary frequencies ignored.
 Zero-point vibrational energy       7158.0 (Joules/Mol)
                                    1.71081 (Kcal/Mol)
 Warning -- explicit consideration of   2 degrees of freedom as
           vibrations may cause significant error
 Vibrational temperatures:    860.91   860.91
          (Kelvin)

 Zero-point correction=                           0.002726 (Hartree/Particle)
 Thermal correction to Energy=                    0.005409
 Thermal correction to Enthalpy=                  0.006353
 Thermal correction to Gibbs Free Energy=        -0.017940
 Sum of electronic and zero-point Energies=           -100.775839
 Sum of electronic and thermal Energies=              -100.773157
 Sum of electronic and thermal Enthalpies=            -100.772213
 Sum of electronic and thermal Free Energies=         -100.796506

                     E (Thermal)             CV                S
                      KCal/Mol        Cal/Mol-Kelvin    Cal/Mol-Kelvin
 Total                    3.394              7.039             51.129
 Electronic               0.000              0.000              1.377
 Translational            0.889              2.981             35.068
 Rotational               0.592              1.987             13.778
 Vibrational              1.913              2.071              0.905
 Vibration     1          0.956              1.035              0.452
 Vibration     2          0.956              1.035              0.452

 Normal termination of Gaussian 16 at Fri Aug 22 19:31:23 2025.
