 Gaussian 16, Revision C.01,
 Gaussian 16:  ES64L-G16RevC.01  3-Jul-2019

 -----------------------------------------
 # sp b3lyp/6-311g** Force nosymm scf=(qc)
 -----------------------------------------

 -------------------
 Title Card Required
 -------------------
 Symbolic Z-matrix:
 Charge =  0 Multiplicity = 2

                          Input orientation:
 ---------------------------------------------------------------------
 Center     Atomic      Atomic             Coordinates (Angstroms)
 Number     Number       Type             X           Y           Z
 ---------------------------------------------------------------------
      1          1           0        0.000000    0.000000    0.000000
      2          1           0       -3.200000    0.000000    0.000000
      3          9           0        3.800000    0.000000    0.000000
 ---------------------------------------------------------------------

 SCF Done:  E(UB3LYP) =  -100.759150729     a.u. after   31 cycles

 Alpha  occ. eigenvalues --  -24.75759  -1.21695  -0.54883  -0.46081  -0.46081
 Alpha  occ. eigenvalues --   -0.32324
 Alpha virt. eigenvalues --   -0.07305   0.24723   0.36939   0.86858   0.91247
 Alpha virt. eigenvalues --    0.91247   1.01261   1.25194   1.25194   1.25597
 Alpha virt. eigenvalues --    1.44768   1.44960   1.44960   2.15514   2.40253

  Beta  occ. eigenvalues --  -24.72621  -1.12674  -0.42935  -0.42935  -0.32580
  Beta virt. eigenvalues --   -0.25674  -0.07009   0.24539   0.37381   0.92743
  Beta virt. eigenvalues --    0.92743   0.96165   1.05359   1.24909   1.24909
  Beta virt. eigenvalues --    1.25292   1.45228   1.45417   1.45417   2.15586

 Mulliken charges and spin densities:
               1          2
     1  H    0.004439  -0.990277
     2  H    0.000216   0.995451
     3  F   -0.004655   0.994826
 Sum of Mulliken charges =  -0.00000   1.00000

 Dipole moment (field-independent basis, Debye):
    X=             -0.0946    Y=             -0.0000    Z=              0.0000  Tot=              0.0946
 Quadrupole moment (field-independent basis, Debye-Ang):
   XX=             -7.0078   YY=             -7.6297   ZZ=             -7.6297
   XY=             -0.0000   XZ=              0.0000   YZ=             -0.0000

  Exact polarizability:      16.576       0.000       2.030       0.000       0.000       2.030
 Approx polarizability:      12.267      -0.000       1.935       0.000       0.000       1.935

 ******    2 imaginary frequencies (negative Signs) ******

                      1                      2                      3
                      A                      A                      A
 Frequencies --   -272.1047               -91.2341                93.8341
 Red. masses --      1.0097                 1.1062                 1.0160
 Frc consts  --      0.0440                 0.0054                 0.0053
 IR Inten    --      2.0589                 1.2972                 0.0181

                      4
                      A
 Frequencies --     93.8341
 Red. masses --      1.0160
 Frc consts  --      0.0053
 IR Inten    --      0.0181

 - Thermochemistry -
 -------------------
 Temperature   298.150 Kelvin.  Pressure   1.00000 Atm.
 Atom     1 has atomic number  1 and mass   1.00783

 Molecular mass:    21.01405 amu.
 Principal axes and moments of inertia in atomic units:
                           1         2         3
     Eigenvalues --     0.00000 208.18823 208.18823
           X            1.00000  -0.00000   0.00000
           Y            0.00000   1.00000   0.00000
           Z            0.00000   0.00000   1.00000
 This molecule is a prolate symmetric top.
 Rotational symmetry number  1.
 Rotational temperature (Kelvin)      0.41604
 Rotational constant (GHZ):           8.668796
    2 imaginary frequencies ignored.
 Zero-point vibrational energy       1122.5 (Joules/Mol)
                                    0.26829 (Kcal/Mol)
 Warning -- explicit consideration of   2 degrees of freedom as
           vibrations may cause significant error
 Vibrational temperatures:    135.01   135.01
          (Kelvin)

 Zero-point correction=                           0.000428 (Hartree/Particle)
 Thermal correction to Energy=                    0.004281
 Thermal correction to Enthalpy=                  0.005225
 Thermal correction to Gibbs Free Energy=        -0.022644
 Sum of electronic and zero-point Energies=           -100.758723
 Sum of electronic and thermal Energies=              -100.754870
 Sum of electronic and thermal Enthalpies=            -100.753926
 Sum of electronic and thermal Free Energies=         -100.781794

                     E (Thermal)             CV                S
                      KCal/Mol        Cal/Mol-Kelvin    Cal/Mol-Kelvin
 Total                    2.686              8.875             58.655
 Electronic               0.000              0.000              1.377
 Translational            0.889              2.981             35.068
 Rotational               0.592              1.987             15.052
 Vibrational              1.205              3.907              7.157
 Vibration     1          0.603              1.954              3.579
 Vibration     2          0.603              1.954              3.579

 Normal termination of Gaussian 16 at Sat Aug 23 00:51:40 2025.
