 Gaussian 16, Revision C.01,
 Gaussian 16:  ES64L-G16RevC.01  3-Jul-2019

 -----------------------------------------
 # sp b3lyp/6-311g** Force nosymm scf=(qc)
 -----------------------------------------

 -------------------
 Title Card Required
 -------------------
 Symbolic Z-matrix:
 Charge =  0 Multiplicity = 2

                          Input orientation:
 ---------------------------------------------------------------------
 Center     Atomic      Atomic             Coordinates (Angstroms)
 Number     Number       Type             X           Y           Z
 ---------------------------------------------------------------------
      1          1           0        0.000000    0.000000    0.000000
      2          1           0       -3.900000    0.000000    0.000000
      3          9           0        2.100000    0.000000    0.000000
 ---------------------------------------------------------------------

 SCF Done:  E(UB3LYP) =  -100.781130585     a.u. after   17 cycles

 Alpha  occ. eigenvalues --  -24.69027  -1.15351  -0.48054  -0.40440  -0.40440
 Alpha  occ. eigenvalues --   -0.33098
 Alpha virt. eigenvalues --   -0.13017   0.22712   0.32404   0.88264   0.94709
 Alpha virt. eigenvalues --    0.94709   1.05723   1.24406   1.24406   1.24406
 Alpha virt. eigenvalues --    1.36499   1.36499   1.55842   2.13746   2.31065

  Beta  occ. eigenvalues --  -24.66512  -1.08284  -0.37953  -0.37953  -0.37336
  Beta virt. eigenvalues --   -0.21382  -0.06302   0.22757   0.38064   0.90287
  Beta virt. eigenvalues --    0.95599   0.95599   1.08098   1.21590   1.21590
  Beta virt. eigenvalues --    1.46156   1.46535   1.46535   1.47614   2.11356

 Mulliken charges and spin densities:
               1          2
     1  H    0.166961  -0.790630
     2  H    0.000519   0.999174
     3  F   -0.167480   0.791456
 Sum of Mulliken charges =  -0.00000   1.00000

 Dipole moment (field-independent basis, Debye):
    X=             -1.7593    Y=              0.0000    Z=             -0.0000  Tot=              1.7593
 Quadrupole moment (field-independent basis, Debye-Ang):
   XX=             -9.9842   YY=             -7.5063   ZZ=             -7.5063
   XY=              0.0000   XZ=             -0.0000   YZ=              0.0000

  Exact polarizability:      26.031       0.000       2.050       0.000       0.000       2.050
 Approx polarizability:      37.269       0.000       1.936      -0.000       0.000       1.936

 ******    2 imaginary frequencies (negative Signs) ******

                      1                      2                      3
                      A                      A                      A
 Frequencies --   -981.5022               -74.9124               416.2887
 Red. masses --      1.0577                 1.0539                 1.0269
 Frc consts  --      0.6003                 0.0035                 0.1048
 IR Inten    --    114.4284                 0.0438                26.8009

                      4
                      A
 Frequencies --    416.2887
 Red. masses --      1.0269
 Frc consts  --      0.1048
 IR Inten    --     26.8009

 - Thermochemistry -
 -------------------
 Temperature   298.150 Kelvin.  Pressure   1.00000 Atm.
 Atom     1 has atomic number  1 and mass   1.00783

 Molecular mass:    21.01405 amu.
 Principal axes and moments of inertia in atomic units:
                           1         2         3
     Eigenvalues --     0.00000 134.11120 134.11120
           X            1.00000  -0.00000   0.00000
           Y            0.00000   1.00000   0.00000
           Z            0.00000   0.00000   1.00000
 This molecule is a prolate symmetric top.
 Rotational symmetry number  1.
 Rotational temperature (Kelvin)      0.64584
 Rotational constant (GHZ):          13.457051
    2 imaginary frequencies ignored.
 Zero-point vibrational energy       4979.9 (Joules/Mol)
                                    1.19023 (Kcal/Mol)
 Warning -- explicit consideration of   2 degrees of freedom as
           vibrations may cause significant error
 Vibrational temperatures:    598.95   598.95
          (Kelvin)

 Zero-point correction=                           0.001897 (Hartree/Particle)
 Thermal correction to Energy=                    0.004845
 Thermal correction to Enthalpy=                  0.005789
 Thermal correction to Gibbs Free Energy=        -0.019124
 Sum of electronic and zero-point Energies=           -100.779234
 Sum of electronic and thermal Energies=              -100.776286
 Sum of electronic and thermal Enthalpies=            -100.775341
 Sum of electronic and thermal Free Energies=         -100.800254

                     E (Thermal)             CV                S
                      KCal/Mol        Cal/Mol-Kelvin    Cal/Mol-Kelvin
 Total                    3.040              7.838             52.433
 Electronic               0.000              0.000              1.377
 Translational            0.889              2.981             35.068
 Rotational               0.592              1.987             14.178
 Vibrational              1.559              2.870              1.809
 Vibration     1          0.780              1.435              0.905
 Vibration     2          0.780              1.435              0.905

 Normal termination of Gaussian 16 at Fri Aug 22 17:05:38 2025.
