 Gaussian 16, Revision C.01,
 Gaussian 16:  ES64L-G16RevC.01  3-Jul-2019

 -----------------------------------------
 # sp b3lyp/6-311g** Force nosymm scf=(qc)
 -----------------------------------------

 -------------------
 Title Card Required
 -------------------
 Symbolic Z-matrix:
 Charge =  0 Multiplicity = 2

                          Input orientation:
 ---------------------------------------------------------------------
 Center     Atomic      Atomic             Coordinates (Angstroms)
 Number     Number       Type             X           Y           Z
 ---------------------------------------------------------------------
      1          1           0        0.000000    0.000000    0.000000
      2          1           0       -3.400000    0.000000    0.000000
      3          9           0        1.050000    0.000000    0.000000
 ---------------------------------------------------------------------

 SCF Done:  E(UB3LYP) =  -100.958294547     a.u. after    6 cycles

 Alpha  occ. eigenvalues --  -24.64242  -1.14872  -0.50608  -0.38430  -0.38430
 Alpha  occ. eigenvalues --   -0.33827
 Alpha virt. eigenvalues --   -0.00869   0.23715   0.32709   0.93813   0.93813
 Alpha virt. eigenvalues --    0.99065   1.23575   1.23690   1.23690   1.29492
 Alpha virt. eigenvalues --    1.35533   1.35533   1.84628   2.14154   2.33035

  Beta  occ. eigenvalues --  -24.64239  -1.14864  -0.50599  -0.38427  -0.38427
  Beta virt. eigenvalues --   -0.06494  -0.00036   0.31445   0.39112   0.93813
  Beta virt. eigenvalues --    0.93813   0.99069   1.29277   1.35529   1.35529
  Beta virt. eigenvalues --    1.49338   1.49338   1.49435   1.84658   2.32876

 Mulliken charges and spin densities:
               1          2
     1  H    0.330598   0.000568
     2  H    0.001296   0.998479
     3  F   -0.331893   0.000953
 Sum of Mulliken charges =   0.00000   1.00000

 Dipole moment (field-independent basis, Debye):
    X=             -2.1101    Y=             -0.0000    Z=              0.0000  Tot=              2.1101
 Quadrupole moment (field-independent basis, Debye-Ang):
   XX=             -8.3640   YY=             -7.0061   ZZ=             -7.0061
   XY=             -0.0000   XZ=              0.0000   YZ=              0.0000

  Exact polarizability:       7.474      -0.000       2.383       0.000      -0.000       2.383
 Approx polarizability:       9.399       0.000       2.352       0.000       0.000       2.352

 ******    1 imaginary frequencies (negative Signs) ******

                      1                      2                      3
                      A                      A                      A
 Frequencies --    -58.1277              1119.8731              1119.8731
 Red. masses --      1.0532                 1.0358                 1.0358
 Frc consts  --      0.0021                 0.7653                 0.7653
 IR Inten    --      0.0878               162.0703               162.0703

                      4
                      A
 Frequencies --   2451.7237
 Red. masses --      1.0584
 Frc consts  --      3.7484
 IR Inten    --     85.6135

 - Thermochemistry -
 -------------------
 Temperature   298.150 Kelvin.  Pressure   1.00000 Atm.
 Atom     1 has atomic number  1 and mass   1.00783

 Molecular mass:    21.01405 amu.
 Principal axes and moments of inertia in atomic units:
                           1         2         3
     Eigenvalues --     0.00000  70.01591  70.01591
           X            1.00000  -0.00000   0.00000
           Y            0.00000   1.00000   0.00000
           Z            0.00000   0.00000   1.00000
 This molecule is a prolate symmetric top.
 Rotational symmetry number  1.
 Rotational temperature (Kelvin)      1.23706
 Rotational constant (GHZ):          25.776157
    1 imaginary frequencies ignored.
 Zero-point vibrational energy      28061.2 (Joules/Mol)
                                    6.70679 (Kcal/Mol)
 Vibrational temperatures:   1611.25  1611.25  3527.48
          (Kelvin)

 Zero-point correction=                           0.010688 (Hartree/Particle)
 Thermal correction to Energy=                    0.013095
 Thermal correction to Enthalpy=                  0.014039
 Thermal correction to Gibbs Free Energy=        -0.009455
 Sum of electronic and zero-point Energies=           -100.947607
 Sum of electronic and thermal Energies=              -100.945200
 Sum of electronic and thermal Enthalpies=            -100.944256
 Sum of electronic and thermal Free Energies=         -100.967750

                     E (Thermal)             CV                S
                      KCal/Mol        Cal/Mol-Kelvin    Cal/Mol-Kelvin
 Total                    8.217              5.497             49.447
 Electronic               0.000              0.000              1.377
 Translational            0.889              2.981             35.068
 Rotational               0.592              1.987             12.887
 Vibrational              6.736              0.529              0.115

 Normal termination of Gaussian 16 at Fri Aug 22 16:03:52 2025.
