 Gaussian 16, Revision C.01,
 Gaussian 16:  ES64L-G16RevC.01  3-Jul-2019

 -----------------------------------------
 # sp b3lyp/6-311g** Force nosymm scf=(qc)
 -----------------------------------------

 -------------------
 Title Card Required
 -------------------
 Symbolic Z-matrix:
 Charge =  0 Multiplicity = 2

                          Input orientation:
 ---------------------------------------------------------------------
 Center     Atomic      Atomic             Coordinates (Angstroms)
 Number     Number       Type             X           Y           Z
 ---------------------------------------------------------------------
      1          1           0        0.000000    0.000000    0.000000
      2          1           0       -2.550000    0.000000    0.000000
      3          9           0        3.150000    0.000000    0.000000
 ---------------------------------------------------------------------

 SCF Done:  E(UB3LYP) =  -100.763519498     a.u. after   26 cycles

 Alpha  occ. eigenvalues --  -24.74644  -1.20661  -0.53763  -0.45142  -0.45142
 Alpha  occ. eigenvalues --   -0.32882
 Alpha virt. eigenvalues --   -0.09954   0.25429   0.33911   0.88936   0.91937
 Alpha virt. eigenvalues --    0.91937   1.03112   1.24751   1.24751   1.26488
 Alpha virt. eigenvalues --    1.40757   1.40757   1.42124   2.15634   2.37045

  Beta  occ. eigenvalues --  -24.71581  -1.11870  -0.42073  -0.42073  -0.33481
  Beta virt. eigenvalues --   -0.25101  -0.08996   0.25396   0.35096   0.93411
  Beta virt. eigenvalues --    0.93411   0.97855   1.07047   1.24026   1.24026
  Beta virt. eigenvalues --    1.25594   1.42295   1.42295   1.43629   2.16520

 Mulliken charges and spin densities:
               1          2
     1  H    0.022041  -0.945528
     2  H    0.003899   0.974381
     3  F   -0.025941   0.971146
 Sum of Mulliken charges =  -0.00000   1.00000

 Dipole moment (field-independent basis, Debye):
    X=             -0.4669    Y=             -0.0000    Z=              0.0000  Tot=              0.4669
 Quadrupole moment (field-independent basis, Debye-Ang):
   XX=             -7.6943   YY=             -7.6537   ZZ=             -7.6537
   XY=             -0.0000   XZ=              0.0000   YZ=             -0.0000

  Exact polarizability:      40.739      -0.000       2.017       0.000       0.000       2.017
 Approx polarizability:      34.620      -0.000       1.925       0.000      -0.000       1.925

 ******    2 imaginary frequencies (negative Signs) ******

                      1                      2                      3
                      A                      A                      A
 Frequencies --   -646.7261              -200.7254               239.4869
 Red. masses --      1.0092                 1.1068                 1.0156
 Frc consts  --      0.2487                 0.0263                 0.0343
 IR Inten    --     17.0237                14.4886                 0.3747

                      4
                      A
 Frequencies --    239.4869
 Red. masses --      1.0156
 Frc consts  --      0.0343
 IR Inten    --      0.3747

 - Thermochemistry -
 -------------------
 Temperature   298.150 Kelvin.  Pressure   1.00000 Atm.
 Atom     1 has atomic number  1 and mass   1.00783

 Molecular mass:    21.01405 amu.
 Principal axes and moments of inertia in atomic units:
                           1         2         3
     Eigenvalues --     0.00000 139.12394 139.12394
           X            1.00000  -0.00000   0.00000
           Y            0.00000   1.00000   0.00000
           Z            0.00000   0.00000   1.00000
 This molecule is a prolate symmetric top.
 Rotational symmetry number  1.
 Rotational temperature (Kelvin)      0.62257
 Rotational constant (GHZ):          12.972183
    2 imaginary frequencies ignored.
 Zero-point vibrational energy       2864.9 (Joules/Mol)
                                    0.68473 (Kcal/Mol)
 Warning -- explicit consideration of   2 degrees of freedom as
           vibrations may cause significant error
 Vibrational temperatures:    344.57   344.57
          (Kelvin)

 Zero-point correction=                           0.001091 (Hartree/Particle)
 Thermal correction to Energy=                    0.004454
 Thermal correction to Enthalpy=                  0.005399
 Thermal correction to Gibbs Free Energy=        -0.020406
 Sum of electronic and zero-point Energies=           -100.762428
 Sum of electronic and thermal Energies=              -100.759065
 Sum of electronic and thermal Enthalpies=            -100.758121
 Sum of electronic and thermal Free Energies=         -100.783925

                     E (Thermal)             CV                S
                      KCal/Mol        Cal/Mol-Kelvin    Cal/Mol-Kelvin
 Total                    2.795              8.528             54.310
 Electronic               0.000              0.000              1.377
 Translational            0.889              2.981             35.068
 Rotational               0.592              1.987             14.251
 Vibrational              1.314              3.560              3.613
 Vibration     1          0.657              1.780              1.807
 Vibration     2          0.657              1.780              1.807

 Normal termination of Gaussian 16 at Fri Aug 22 20:10:40 2025.
