 Gaussian 16, Revision C.01,
 Gaussian 16:  ES64L-G16RevC.01  3-Jul-2019

 -----------------------------------------
 # sp b3lyp/6-311g** Force nosymm scf=(qc)
 -----------------------------------------

 -------------------
 Title Card Required
 -------------------
 Symbolic Z-matrix:
 Charge =  0 Multiplicity = 2

                          Input orientation:
 ---------------------------------------------------------------------
 Center     Atomic      Atomic             Coordinates (Angstroms)
 Number     Number       Type             X           Y           Z
 ---------------------------------------------------------------------
      1          1           0        0.000000    0.000000    0.000000
      2          1           0       -2.600000    0.000000    0.000000
      3          9           0        3.550000    0.000000    0.000000
 ---------------------------------------------------------------------

 SCF Done:  E(UB3LYP) =  -100.761944578     a.u. after   27 cycles

 Alpha  occ. eigenvalues --  -24.75514  -1.21467  -0.54636  -0.45874  -0.45874
 Alpha  occ. eigenvalues --   -0.32593
 Alpha virt. eigenvalues --   -0.09155   0.25583   0.34696   0.87452   0.91399
 Alpha virt. eigenvalues --    0.91399   1.01665   1.25022   1.25022   1.26563
 Alpha virt. eigenvalues --    1.42000   1.42000   1.43031   2.15949   2.37499

  Beta  occ. eigenvalues --  -24.72393  -1.12498  -0.42746  -0.42746  -0.32898
  Beta virt. eigenvalues --   -0.25559  -0.08694   0.25379   0.35377   0.92890
  Beta virt. eigenvalues --    0.92890   0.96651   1.05717   1.24664   1.24664
  Beta virt. eigenvalues --    1.26141   1.42712   1.42712   1.43744   2.16360

 Mulliken charges and spin densities:
               1          2
     1  H    0.007725  -0.966967
     2  H    0.001636   0.977447
     3  F   -0.009362   0.989521
 Sum of Mulliken charges =  -0.00000   1.00000

 Dipole moment (field-independent basis, Debye):
    X=             -0.1910    Y=             -0.0000    Z=             -0.0000  Tot=              0.1910
 Quadrupole moment (field-independent basis, Debye-Ang):
   XX=             -7.0994   YY=             -7.6573   ZZ=             -7.6573
   XY=             -0.0000   XZ=             -0.0000   YZ=              0.0000

  Exact polarizability:      29.742       0.000       2.032      -0.000      -0.000       2.032
 Approx polarizability:      22.263      -0.000       1.930      -0.000      -0.000       1.930

 ******    2 imaginary frequencies (negative Signs) ******

                      1                      2                      3
                      A                      A                      A
 Frequencies --   -583.2908              -132.6005               210.1181
 Red. masses --      1.0081                 1.1081                 1.0146
 Frc consts  --      0.2021                 0.0115                 0.0264
 IR Inten    --      5.1001                 4.9127                 0.0380

                      4
                      A
 Frequencies --    210.1181
 Red. masses --      1.0146
 Frc consts  --      0.0264
 IR Inten    --      0.0380

 - Thermochemistry -
 -------------------
 Temperature   298.150 Kelvin.  Pressure   1.00000 Atm.
 Atom     1 has atomic number  1 and mass   1.00783

 Molecular mass:    21.01405 amu.
 Principal axes and moments of inertia in atomic units:
                           1         2         3
     Eigenvalues --     0.00000 165.23942 165.23942
           X            1.00000  -0.00000   0.00000
           Y            0.00000   1.00000   0.00000
           Z            0.00000   0.00000   1.00000
 This molecule is a prolate symmetric top.
 Rotational symmetry number  1.
 Rotational temperature (Kelvin)      0.52417
 Rotational constant (GHZ):          10.921977
    2 imaginary frequencies ignored.
 Zero-point vibrational energy       2513.6 (Joules/Mol)
                                    0.60076 (Kcal/Mol)
 Warning -- explicit consideration of   2 degrees of freedom as
           vibrations may cause significant error
 Vibrational temperatures:    302.31   302.31
          (Kelvin)

 Zero-point correction=                           0.000957 (Hartree/Particle)
 Thermal correction to Energy=                    0.004408
 Thermal correction to Enthalpy=                  0.005352
 Thermal correction to Gibbs Free Energy=        -0.020839
 Sum of electronic and zero-point Energies=           -100.760987
 Sum of electronic and thermal Energies=              -100.757537
 Sum of electronic and thermal Enthalpies=            -100.756592
 Sum of electronic and thermal Free Energies=         -100.782784

                     E (Thermal)             CV                S
                      KCal/Mol        Cal/Mol-Kelvin    Cal/Mol-Kelvin
 Total                    2.766              8.619             55.124
 Electronic               0.000              0.000              1.377
 Translational            0.889              2.981             35.068
 Rotational               0.592              1.987             14.593
 Vibrational              1.285              3.651              4.085
 Vibration     1          0.642              1.825              2.043
 Vibration     2          0.642              1.825              2.043

 Normal termination of Gaussian 16 at Fri Aug 22 22:39:57 2025.
