 Gaussian 16, Revision C.01,
 Gaussian 16:  ES64L-G16RevC.01  3-Jul-2019

 -----------------------------------------
 # sp b3lyp/6-311g** Force nosymm scf=(qc)
 -----------------------------------------

 -------------------
 Title Card Required
 -------------------
 Symbolic Z-matrix:
 Charge =  0 Multiplicity = 2

                          Input orientation:
 ---------------------------------------------------------------------
 Center     Atomic      Atomic             Coordinates (Angstroms)
 Number     Number       Type             X           Y           Z
 ---------------------------------------------------------------------
      1          1           0        0.000000    0.000000    0.000000
      2          1           0       -2.900000    0.000000    0.000000
      3          9           0        0.700000    0.000000    0.000000
 ---------------------------------------------------------------------

 SCF Done:  E(UB3LYP) =  -100.874884166     a.u. after    6 cycles

 Alpha  occ. eigenvalues --  -24.63180  -1.28208  -0.58579  -0.41742  -0.41742
 Alpha  occ. eigenvalues --   -0.33952
 Alpha virt. eigenvalues --    0.06946   0.25521   0.52474   0.93503   0.93503
 Alpha virt. eigenvalues --    0.95775   1.21723   1.23580   1.23580   1.36133
 Alpha virt. eigenvalues --    1.44084   1.44084   1.98225   2.14801   2.86566

  Beta  occ. eigenvalues --  -24.63177  -1.28199  -0.58570  -0.41740  -0.41740
  Beta virt. eigenvalues --   -0.06583   0.08056   0.39071   0.52666   0.93502
  Beta virt. eigenvalues --    0.93502   0.95783   1.31388   1.44085   1.44085
  Beta virt. eigenvalues --    1.50348   1.50348   1.51956   1.98137   2.44285

 Mulliken charges and spin densities:
               1          2
     1  H    0.260450   0.001613
     2  H    0.002306   0.996813
     3  F   -0.262755   0.001574
 Sum of Mulliken charges =   0.00000   1.00000

 Dipole moment (field-independent basis, Debye):
    X=             -1.6137    Y=             -0.0000    Z=              0.0000  Tot=              1.6137
 Quadrupole moment (field-independent basis, Debye-Ang):
   XX=             -7.1956   YY=             -6.6616   ZZ=             -6.6616
   XY=             -0.0000   XZ=              0.0000   YZ=              0.0000

  Exact polarizability:       4.733      -0.000       2.460      -0.000      -0.000       2.460
 Approx polarizability:       4.982       0.000       2.443      -0.000      -0.000       2.443

 ******    3 imaginary frequencies (negative Signs) ******

                      1                      2                      3
                      A                      A                      A
 Frequencies --  -3544.7539             -3544.7539                -6.4965
 Red. masses --      1.0394                 1.0394                 1.0532
 Frc consts  --      7.6951                 7.6951                 0.0000
 IR Inten    --    207.9660               207.9660                 0.1259

                      4
                      A
 Frequencies --   9073.0510
 Red. masses --      1.0583
 Frc consts  --     51.3301
 IR Inten    --    112.7581

 - Thermochemistry -
 -------------------
 Temperature   298.150 Kelvin.  Pressure   1.00000 Atm.
 Atom     1 has atomic number  1 and mass   1.00783

 Molecular mass:    21.01405 amu.
 Principal axes and moments of inertia in atomic units:
                           1         2         3
     Eigenvalues --     0.00000  45.21516  45.21516
           X            1.00000  -0.00000   0.00000
           Y            0.00000   1.00000   0.00000
           Z            0.00000   0.00000   1.00000
 This molecule is a prolate symmetric top.
 Rotational symmetry number  1.
 Rotational temperature (Kelvin)      1.91559
 Rotational constant (GHZ):          39.914513
    3 imaginary frequencies ignored.
 Zero-point vibrational energy      54268.9 (Joules/Mol)
                                   12.97058 (Kcal/Mol)
 Vibrational temperatures:  13054.10
          (Kelvin)

 Zero-point correction=                           0.020670 (Hartree/Particle)
 Thermal correction to Energy=                    0.023030
 Thermal correction to Enthalpy=                  0.023975
 Thermal correction to Gibbs Free Energy=         0.000948
 Sum of electronic and zero-point Energies=           -100.854214
 Sum of electronic and thermal Energies=              -100.851854
 Sum of electronic and thermal Enthalpies=            -100.850910
 Sum of electronic and thermal Free Energies=         -100.873936

                     E (Thermal)             CV                S
                      KCal/Mol        Cal/Mol-Kelvin    Cal/Mol-Kelvin
 Total                   14.452              4.968             48.463
 Electronic               0.000              0.000              1.377
 Translational            0.889              2.981             35.068
 Rotational               0.592              1.987             12.018
 Vibrational             12.971              0.000              0.000

 Normal termination of Gaussian 16 at Fri Aug 22 15:47:00 2025.
