 Gaussian 16, Revision C.01,
 Gaussian 16:  ES64L-G16RevC.01  3-Jul-2019

 -----------------------------------------
 # sp b3lyp/6-311g** Force nosymm scf=(qc)
 -----------------------------------------

 -------------------
 Title Card Required
 -------------------
 Symbolic Z-matrix:
 Charge =  0 Multiplicity = 2

                          Input orientation:
 ---------------------------------------------------------------------
 Center     Atomic      Atomic             Coordinates (Angstroms)
 Number     Number       Type             X           Y           Z
 ---------------------------------------------------------------------
      1          1           0        0.000000    0.000000    0.000000
      2          1           0       -1.950000    0.000000    0.000000
      3          9           0        1.500000    0.000000    0.000000
 ---------------------------------------------------------------------

 SCF Done:  E(UB3LYP) =  -100.861347239     a.u. after   11 cycles

 Alpha  occ. eigenvalues --  -24.63882  -1.09996  -0.44387  -0.37351  -0.36147
 Alpha  occ. eigenvalues --   -0.36147
 Alpha virt. eigenvalues --   -0.11076   0.22974   0.27576   0.94223   0.94223
 Alpha virt. eigenvalues --    1.00566   1.05117   1.19692   1.19692   1.33935
 Alpha virt. eigenvalues --    1.33935   1.35044   1.73088   2.10282   2.27904

  Beta  occ. eigenvalues --  -24.63113  -1.07959  -0.41736  -0.35416  -0.35416
  Beta virt. eigenvalues --   -0.18593  -0.07059   0.25911   0.31980   0.94049
  Beta virt. eigenvalues --    0.94049   1.03795   1.07514   1.30036   1.30036
  Beta virt. eigenvalues --    1.37434   1.37434   1.46471   1.73399   2.16121

 Mulliken charges and spin densities:
               1          2
     1  H    0.299767  -0.164363
     2  H    0.049133   0.924097
     3  F   -0.348900   0.240266
 Sum of Mulliken charges =   0.00000   1.00000

 Dipole moment (field-independent basis, Debye):
    X=             -3.0379    Y=             -0.0000    Z=              0.0000  Tot=              3.0379
 Quadrupole moment (field-independent basis, Debye-Ang):
   XX=             -8.7755   YY=             -7.2958   ZZ=             -7.2958
   XY=             -0.0000   XZ=              0.0000   YZ=              0.0000

  Exact polarizability:      29.373      -0.000       2.233       0.000      -0.000       2.233
 Approx polarizability:      41.240      -0.000       2.164       0.000       0.000       2.164

 ******    2 imaginary frequencies (negative Signs) ******

                      1                      2                      3
                      A                      A                      A
 Frequencies --  -1945.9132              -414.0730               983.2553
 Red. masses --      1.0348                 1.0776                 1.0214
 Frc consts  --      2.3086                 0.1089                 0.5818
 IR Inten    --     14.0048                 0.3434                64.7463

                      4
                      A
 Frequencies --    983.2553
 Red. masses --      1.0214
 Frc consts  --      0.5818
 IR Inten    --     64.7463

 - Thermochemistry -
 -------------------
 Temperature   298.150 Kelvin.  Pressure   1.00000 Atm.
 Atom     1 has atomic number  1 and mass   1.00783

 Molecular mass:    21.01405 amu.
 Principal axes and moments of inertia in atomic units:
                           1         2         3
     Eigenvalues --     0.00000  46.70567  46.70567
           X            1.00000  -0.00000   0.00000
           Y            0.00000   1.00000   0.00000
           Z            0.00000   0.00000   1.00000
 This molecule is a prolate symmetric top.
 Rotational symmetry number  1.
 Rotational temperature (Kelvin)      1.85446
 Rotational constant (GHZ):          38.640733
    2 imaginary frequencies ignored.
 Zero-point vibrational energy      11762.3 (Joules/Mol)
                                    2.81127 (Kcal/Mol)
 Vibrational temperatures:   1414.69  1414.69
          (Kelvin)

 Zero-point correction=                           0.004480 (Hartree/Particle)
 Thermal correction to Energy=                    0.006919
 Thermal correction to Enthalpy=                  0.007863
 Thermal correction to Gibbs Free Energy=        -0.015289
 Sum of electronic and zero-point Energies=           -100.856867
 Sum of electronic and thermal Energies=              -100.854428
 Sum of electronic and thermal Enthalpies=            -100.853484
 Sum of electronic and thermal Free Energies=         -100.876636

                     E (Thermal)             CV                S
                      KCal/Mol        Cal/Mol-Kelvin    Cal/Mol-Kelvin
 Total                    4.342              5.760             48.728
 Electronic               0.000              0.000              1.377
 Translational            0.889              2.981             35.068
 Rotational               0.592              1.987             12.082
 Vibrational              2.861              0.792              0.200

 Normal termination of Gaussian 16 at Fri Aug 22 16:25:28 2025.
