 Gaussian 16, Revision C.01,
 Gaussian 16:  ES64L-G16RevC.01  3-Jul-2019

 -----------------------------------------
 # sp b3lyp/6-311g** Force nosymm scf=(qc)
 -----------------------------------------

 -------------------
 Title Card Required
 -------------------
 Symbolic Z-matrix:
 Charge =  0 Multiplicity = 2

                          Input orientation:
 ---------------------------------------------------------------------
 Center     Atomic      Atomic             Coordinates (Angstroms)
 Number     Number       Type             X           Y           Z
 ---------------------------------------------------------------------
      1          1           0        0.000000    0.000000    0.000000
      2          1           0       -0.900000    0.000000    0.000000
      3          9           0        1.750000    0.000000    0.000000
 ---------------------------------------------------------------------

 SCF Done:  E(UB3LYP) =  -100.927376802     a.u. after    6 cycles

 Alpha  occ. eigenvalues --  -24.72381  -1.18832  -0.53532  -0.43452  -0.43452
 Alpha  occ. eigenvalues --   -0.42439
 Alpha virt. eigenvalues --    0.04242   0.20521   0.38561   0.90324   0.90324
 Alpha virt. eigenvalues --    0.95047   1.06926   1.06926   1.14304   1.63510
 Alpha virt. eigenvalues --    1.70317   1.70317   2.16014   2.35509   2.74562

  Beta  occ. eigenvalues --  -24.69597  -1.11016  -0.43535  -0.40702  -0.40702
  Beta virt. eigenvalues --   -0.24633   0.05730   0.21432   0.39613   0.91501
  Beta virt. eigenvalues --    0.91501   1.02237   1.08530   1.08530   1.17273
  Beta virt. eigenvalues --    1.66171   1.71266   1.71266   2.17464   2.37225

 Mulliken charges and spin densities:
               1          2
     1  H    0.063270  -0.060428
     2  H    0.040798   0.196679
     3  F   -0.104068   0.863750
 Sum of Mulliken charges =  -0.00000   1.00000

 Dipole moment (field-independent basis, Debye):
    X=             -1.0427    Y=              0.0000    Z=             -0.0000  Tot=              1.0427
 Quadrupole moment (field-independent basis, Debye-Ang):
   XX=             -6.7283   YY=             -7.0320   ZZ=             -7.0320
   XY=              0.0000   XZ=             -0.0000   YZ=              0.0000

  Exact polarizability:      26.290       0.000       2.233      -0.000       0.000       2.233
 Approx polarizability:      34.356       0.000       2.259       0.000       0.000       2.259

 ******    1 imaginary frequencies (negative Signs) ******

                      1                      2                      3
                      A                      A                      A
 Frequencies --   -533.1768              1268.4796              1268.4796
 Red. masses --      1.1065                 1.0119                 1.0119
 Frc consts  --      0.1853                 0.9593                 0.9593
 IR Inten    --    149.7780                 0.0953                 0.0953

                      4
                      A
 Frequencies --   2305.3283
 Red. masses --      1.0095
 Frc consts  --      3.1611
 IR Inten    --    673.1575

 - Thermochemistry -
 -------------------
 Temperature   298.150 Kelvin.  Pressure   1.00000 Atm.
 Atom     1 has atomic number  1 and mass   1.00783

 Molecular mass:    21.01405 amu.
 Principal axes and moments of inertia in atomic units:
                           1         2         3
     Eigenvalues --     0.00000  32.95433  32.95433
           X            1.00000  -0.00000   0.00000
           Y            0.00000   1.00000   0.00000
           Z            0.00000   0.00000   1.00000
 This molecule is a prolate symmetric top.
 Rotational symmetry number  1.
 Rotational temperature (Kelvin)      2.62830
 Rotational constant (GHZ):          54.764917
    1 imaginary frequencies ignored.
 Zero-point vibrational energy      28963.3 (Joules/Mol)
                                    6.92240 (Kcal/Mol)
 Vibrational temperatures:   1825.06  1825.06  3316.85
          (Kelvin)

 Zero-point correction=                           0.011032 (Hartree/Particle)
 Thermal correction to Energy=                    0.013418
 Thermal correction to Enthalpy=                  0.014362
 Thermal correction to Gibbs Free Energy=        -0.008396
 Sum of electronic and zero-point Energies=           -100.916345
 Sum of electronic and thermal Energies=              -100.913959
 Sum of electronic and thermal Enthalpies=            -100.913015
 Sum of electronic and thermal Free Energies=         -100.935773

                     E (Thermal)             CV                S
                      KCal/Mol        Cal/Mol-Kelvin    Cal/Mol-Kelvin
 Total                    8.420              5.300             47.897
 Electronic               0.000              0.000              1.377
 Translational            0.889              2.981             35.068
 Rotational               0.592              1.987             11.389
 Vibrational              6.938              0.332              0.063

 Normal termination of Gaussian 16 at Fri Aug 22 16:39:26 2025.
