 Gaussian 16, Revision C.01,
 Gaussian 16:  ES64L-G16RevC.01  3-Jul-2019

 -----------------------------------------
 # sp b3lyp/6-311g** Force nosymm scf=(qc)
 -----------------------------------------

 -------------------
 Title Card Required
 -------------------
 Symbolic Z-matrix:
 Charge =  0 Multiplicity = 2

                          Input orientation:
 ---------------------------------------------------------------------
 Center     Atomic      Atomic             Coordinates (Angstroms)
 Number     Number       Type             X           Y           Z
 ---------------------------------------------------------------------
      1          1           0        0.000000    0.000000    0.000000
      2          1           0       -1.100000    0.000000    0.000000
      3          9           0        2.400000    0.000000    0.000000
 ---------------------------------------------------------------------

 SCF Done:  E(UB3LYP) =  -100.890927176     a.u. after   61 cycles

 Alpha  occ. eigenvalues --  -24.75084  -1.21082  -0.54347  -0.45538  -0.45538
 Alpha  occ. eigenvalues --   -0.38829
 Alpha virt. eigenvalues --   -0.02223   0.21901   0.36856   0.89261   0.91454
 Alpha virt. eigenvalues --    0.91454   1.09446   1.09446   1.09768   1.31233
 Alpha virt. eigenvalues --    1.58575   1.58575   2.15555   2.33303   2.55245

  Beta  occ. eigenvalues --  -24.72030  -1.12336  -0.42484  -0.42484  -0.38623
  Beta virt. eigenvalues --   -0.25843  -0.01566   0.22274   0.37313   0.92895
  Beta virt. eigenvalues --    0.92895   0.97430   1.09824   1.09824   1.13402
  Beta virt. eigenvalues --    1.32420   1.58872   1.58872   2.16061   2.33738

 Mulliken charges and spin densities:
               1          2
     1  H   -0.002493  -0.033973
     2  H    0.027341   0.069690
     3  F   -0.024848   0.964284
 Sum of Mulliken charges =  -0.00000   1.00000

 Dipole moment (field-independent basis, Debye):
    X=             -0.4424    Y=              0.0000    Z=             -0.0000  Tot=              0.4424
 Quadrupole moment (field-independent basis, Debye-Ang):
   XX=             -6.0576   YY=             -7.3589   ZZ=             -7.3589
   XY=              0.0000   XZ=             -0.0000   YZ=             -0.0000

  Exact polarizability:      30.844      -0.000       2.060       0.000       0.000       2.060
 Approx polarizability:      37.511       0.000       2.137      -0.000      -0.000       2.137

 ******    1 imaginary frequencies (negative Signs) ******

                      1                      2                      3
                      A                      A                      A
 Frequencies --   -312.6361               836.3488              1525.7021
 Red. masses --      1.1035                 1.0120                 1.0112
 Frc consts  --      0.0635                 0.4171                 1.3869
 IR Inten    --     68.5705               210.8146                 0.6517

                      4
                      A
 Frequencies --   1525.7023
 Red. masses --      1.0112
 Frc consts  --      1.3869
 IR Inten    --      0.6517

 - Thermochemistry -
 -------------------
 Temperature   298.150 Kelvin.  Pressure   1.00000 Atm.
 Atom     1 has atomic number  1 and mass   1.00783

 Molecular mass:    21.01405 amu.
 Principal axes and moments of inertia in atomic units:
                           1         2         3
     Eigenvalues --     0.00000  58.80970  58.80970
           X            1.00000  -0.00000   0.00000
           Y            0.00000   1.00000   0.00000
           Z            0.00000   0.00000   1.00000
 This molecule is a prolate symmetric top.
 Rotational symmetry number  1.
 Rotational temperature (Kelvin)      1.47278
 Rotational constant (GHZ):          30.687817
    1 imaginary frequencies ignored.
 Zero-point vibrational energy      23253.9 (Joules/Mol)
                                    5.55782 (Kcal/Mol)
 Vibrational temperatures:   1203.32  2195.15  2195.15
          (Kelvin)

 Zero-point correction=                           0.008857 (Hartree/Particle)
 Thermal correction to Energy=                    0.011295
 Thermal correction to Enthalpy=                  0.012239
 Thermal correction to Gibbs Free Energy=        -0.011131
 Sum of electronic and zero-point Energies=           -100.882070
 Sum of electronic and thermal Energies=              -100.879632
 Sum of electronic and thermal Enthalpies=            -100.878688
 Sum of electronic and thermal Free Energies=         -100.902058

                     E (Thermal)             CV                S
                      KCal/Mol        Cal/Mol-Kelvin    Cal/Mol-Kelvin
 Total                    7.088              5.698             49.186
 Electronic               0.000              0.000              1.377
 Translational            0.889              2.981             35.068
 Rotational               0.592              1.987             12.540
 Vibrational              5.606              0.730              0.201

 Normal termination of Gaussian 16 at Fri Aug 22 17:31:11 2025.
