 Gaussian 16, Revision C.01,
 Gaussian 16:  ES64L-G16RevC.01  3-Jul-2019

 -----------------------------------------
 # sp b3lyp/6-311g** Force nosymm scf=(qc)
 -----------------------------------------

 -------------------
 Title Card Required
 -------------------
 Symbolic Z-matrix:
 Charge =  0 Multiplicity = 2

                          Input orientation:
 ---------------------------------------------------------------------
 Center     Atomic      Atomic             Coordinates (Angstroms)
 Number     Number       Type             X           Y           Z
 ---------------------------------------------------------------------
      1          1           0        0.000000    0.000000    0.000000
      2          1           0       -3.050000    0.000000    0.000000
      3          9           0        3.600000    0.000000    0.000000
 ---------------------------------------------------------------------

 SCF Done:  E(UB3LYP) =  -100.759692881     a.u. after   33 cycles

 Alpha  occ. eigenvalues --  -24.75551  -1.21501  -0.54674  -0.45905  -0.45905
 Alpha  occ. eigenvalues --   -0.32401
 Alpha virt. eigenvalues --   -0.07814   0.24906   0.36239   0.87315   0.91378
 Alpha virt. eigenvalues --    0.91378   1.01579   1.25130   1.25130   1.25756
 Alpha virt. eigenvalues --    1.44138   1.44214   1.44214   2.15685   2.39713

  Beta  occ. eigenvalues --  -24.72426  -1.12522  -0.42773  -0.42773  -0.32760
  Beta virt. eigenvalues --   -0.25570  -0.07371   0.24691   0.36936   0.92870
  Beta virt. eigenvalues --    0.92870   0.96527   1.05631   1.24719   1.24719
  Beta virt. eigenvalues --    1.25312   1.44829   1.44917   1.44917   2.15906

 Mulliken charges and spin densities:
               1          2
     1  H    0.008044  -0.983912
     2  H    0.000477   0.993354
     3  F   -0.008521   0.990558
 Sum of Mulliken charges =  -0.00000   1.00000

 Dipole moment (field-independent basis, Debye):
    X=             -0.1649    Y=              0.0000    Z=              0.0000  Tot=              0.1649
 Quadrupole moment (field-independent basis, Debye-Ang):
   XX=             -7.1911   YY=             -7.6334   ZZ=             -7.6334
   XY=              0.0000   XZ=              0.0000   YZ=             -0.0000

  Exact polarizability:      23.055       0.000       2.044       0.000      -0.000       2.044
 Approx polarizability:      17.439       0.000       1.933       0.000       0.000       1.933

 ******    2 imaginary frequencies (negative Signs) ******

                      1                      2                      3
                      A                      A                      A
 Frequencies --   -334.3288              -117.7516               109.2735
 Red. masses --      1.0104                 1.1054                 1.0161
 Frc consts  --      0.0665                 0.0090                 0.0071
 IR Inten    --      5.1233                 2.9650                 0.0437

                      4
                      A
 Frequencies --    109.2735
 Red. masses --      1.0161
 Frc consts  --      0.0071
 IR Inten    --      0.0437

 - Thermochemistry -
 -------------------
 Temperature   298.150 Kelvin.  Pressure   1.00000 Atm.
 Atom     1 has atomic number  1 and mass   1.00783

 Molecular mass:    21.01405 amu.
 Principal axes and moments of inertia in atomic units:
                           1         2         3
     Eigenvalues --     0.00000 187.66579 187.66579
           X            1.00000  -0.00000   0.00000
           Y            0.00000   1.00000   0.00000
           Z            0.00000   0.00000   1.00000
 This molecule is a prolate symmetric top.
 Rotational symmetry number  1.
 Rotational temperature (Kelvin)      0.46153
 Rotational constant (GHZ):           9.616783
    2 imaginary frequencies ignored.
 Zero-point vibrational energy       1307.2 (Joules/Mol)
                                    0.31243 (Kcal/Mol)
 Warning -- explicit consideration of   2 degrees of freedom as
           vibrations may cause significant error
 Vibrational temperatures:    157.22   157.22
          (Kelvin)

 Zero-point correction=                           0.000498 (Hartree/Particle)
 Thermal correction to Energy=                    0.004292
 Thermal correction to Enthalpy=                  0.005237
 Thermal correction to Gibbs Free Energy=        -0.022252
 Sum of electronic and zero-point Energies=           -100.759195
 Sum of electronic and thermal Energies=              -100.755400
 Sum of electronic and thermal Enthalpies=            -100.754456
 Sum of electronic and thermal Free Energies=         -100.781945

                     E (Thermal)             CV                S
                      KCal/Mol        Cal/Mol-Kelvin    Cal/Mol-Kelvin
 Total                    2.694              8.852             57.855
 Electronic               0.000              0.000              1.377
 Translational            0.889              2.981             35.068
 Rotational               0.592              1.987             14.846
 Vibrational              1.212              3.884              6.564
 Vibration     1          0.606              1.942              3.282
 Vibration     2          0.606              1.942              3.282

 Normal termination of Gaussian 16 at Fri Aug 22 23:07:13 2025.
