 Gaussian 16, Revision C.01,
 Gaussian 16:  ES64L-G16RevC.01  3-Jul-2019

 -----------------------------------------
 # sp b3lyp/6-311g** Force nosymm scf=(qc)
 -----------------------------------------

 -------------------
 Title Card Required
 -------------------
 Symbolic Z-matrix:
 Charge =  0 Multiplicity = 2

                          Input orientation:
 ---------------------------------------------------------------------
 Center     Atomic      Atomic             Coordinates (Angstroms)
 Number     Number       Type             X           Y           Z
 ---------------------------------------------------------------------
      1          1           0        0.000000    0.000000    0.000000
      2          1           0       -0.900000    0.000000    0.000000
      3          9           0        2.150000    0.000000    0.000000
 ---------------------------------------------------------------------

 SCF Done:  E(UB3LYP) =  -100.923376356     a.u. after    8 cycles

 Alpha  occ. eigenvalues --  -24.74900  -1.20942  -0.54427  -0.45403  -0.45403
 Alpha  occ. eigenvalues --   -0.41878
 Alpha virt. eigenvalues --    0.03128   0.20878   0.41408   0.89820   0.91147
 Alpha virt. eigenvalues --    0.91147   1.06992   1.06992   1.12143   1.50467
 Alpha virt. eigenvalues --    1.70820   1.70820   2.16735   2.37017   2.73930

  Beta  occ. eigenvalues --  -24.71867  -1.12279  -0.42375  -0.42375  -0.41840
  Beta virt. eigenvalues --   -0.25756   0.03954   0.21367   0.41790   0.92546
  Beta virt. eigenvalues --    0.92546   0.97874   1.07543   1.07543   1.15642
  Beta virt. eigenvalues --    1.51814   1.71170   1.71170   2.17368   2.37564

 Mulliken charges and spin densities:
               1          2
     1  H    0.001057  -0.028849
     2  H    0.030395   0.074377
     3  F   -0.031452   0.954472
 Sum of Mulliken charges =   0.00000   1.00000

 Dipole moment (field-independent basis, Debye):
    X=             -0.4584    Y=              0.0000    Z=             -0.0000  Tot=              0.4584
 Quadrupole moment (field-independent basis, Debye-Ang):
   XX=             -6.0732   YY=             -7.1145   ZZ=             -7.1145
   XY=              0.0000   XZ=             -0.0000   YZ=             -0.0000

  Exact polarizability:      23.087       0.000       2.111      -0.000      -0.000       2.111
 Approx polarizability:      26.704      -0.000       2.155       0.000      -0.000       2.155

 ******    1 imaginary frequencies (negative Signs) ******

                      1                      2                      3
                      A                      A                      A
 Frequencies --   -269.4598              1366.7156              1366.7156
 Red. masses --      1.1084                 1.0108                 1.0108
 Frc consts  --      0.0474                 1.1124                 1.1124
 IR Inten    --     34.0836                 0.1159                 0.1159

                      4
                      A
 Frequencies --   2537.1324
 Red. masses --      1.0079
 Frc consts  --      3.8227
 IR Inten    --    271.8944

 - Thermochemistry -
 -------------------
 Temperature   298.150 Kelvin.  Pressure   1.00000 Atm.
 Atom     1 has atomic number  1 and mass   1.00783

 Molecular mass:    21.01405 amu.
 Principal axes and moments of inertia in atomic units:
                           1         2         3
     Eigenvalues --     0.00000  45.44890  45.44890
           X            1.00000  -0.00000   0.00000
           Y            0.00000   1.00000   0.00000
           Z            0.00000   0.00000   1.00000
 This molecule is a prolate symmetric top.
 Rotational symmetry number  1.
 Rotational temperature (Kelvin)      1.90574
 Rotational constant (GHZ):          39.709236
    1 imaginary frequencies ignored.
 Zero-point vibrational energy      31525.0 (Joules/Mol)
                                    7.53465 (Kcal/Mol)
 Vibrational temperatures:   1966.40  1966.40  3650.37
          (Kelvin)

 Zero-point correction=                           0.012007 (Hartree/Particle)
 Thermal correction to Energy=                    0.014385
 Thermal correction to Enthalpy=                  0.015329
 Thermal correction to Gibbs Free Energy=        -0.007722
 Sum of electronic and zero-point Energies=           -100.911369
 Sum of electronic and thermal Energies=              -100.908992
 Sum of electronic and thermal Enthalpies=            -100.908047
 Sum of electronic and thermal Free Energies=         -100.931098

                     E (Thermal)             CV                S
                      KCal/Mol        Cal/Mol-Kelvin    Cal/Mol-Kelvin
 Total                    9.027              5.206             48.515
 Electronic               0.000              0.000              1.377
 Translational            0.889              2.981             35.068
 Rotational               0.592              1.987             12.028
 Vibrational              7.545              0.238              0.041

 Normal termination of Gaussian 16 at Fri Aug 22 17:06:38 2025.
