 Gaussian 16, Revision C.01,
 Gaussian 16:  ES64L-G16RevC.01  3-Jul-2019

 -----------------------------------------
 # sp b3lyp/6-311g** Force nosymm scf=(qc)
 -----------------------------------------

 -------------------
 Title Card Required
 -------------------
 Symbolic Z-matrix:
 Charge =  0 Multiplicity = 2

                          Input orientation:
 ---------------------------------------------------------------------
 Center     Atomic      Atomic             Coordinates (Angstroms)
 Number     Number       Type             X           Y           Z
 ---------------------------------------------------------------------
      1          1           0        0.000000    0.000000    0.000000
      2          1           0       -2.000000    0.000000    0.000000
      3          9           0        3.100000    0.000000    0.000000
 ---------------------------------------------------------------------

 SCF Done:  E(UB3LYP) =  -100.775744858     a.u. after   27 cycles

 Alpha  occ. eigenvalues --  -24.74687  -1.20699  -0.53807  -0.45179  -0.45179
 Alpha  occ. eigenvalues --   -0.33550
 Alpha virt. eigenvalues --   -0.11547   0.25585   0.31882   0.89212   0.91904
 Alpha virt. eigenvalues --    0.91904   1.03369   1.16844   1.24416   1.24416
 Alpha virt. eigenvalues --    1.37086   1.37086   1.50556   2.12642   2.36703

  Beta  occ. eigenvalues --  -24.71625  -1.11913  -0.42112  -0.42112  -0.33676
  Beta virt. eigenvalues --   -0.25174  -0.11031   0.25861   0.32442   0.93376
  Beta virt. eigenvalues --    0.93376   0.98069   1.07319   1.16807   1.24228
  Beta virt. eigenvalues --    1.24228   1.37859   1.37859   1.51159   2.13733

 Mulliken charges and spin densities:
               1          2
     1  H    0.013121  -0.830950
     2  H    0.012626   0.860315
     3  F   -0.025747   0.970635
 Sum of Mulliken charges =   0.00000   1.00000

 Dipole moment (field-independent basis, Debye):
    X=             -0.5295    Y=              0.0000    Z=              0.0000  Tot=              0.5295
 Quadrupole moment (field-independent basis, Debye-Ang):
   XX=             -7.1614   YY=             -7.7153   ZZ=             -7.7153
   XY=             -0.0000   XZ=             -0.0000   YZ=             -0.0000

  Exact polarizability:      56.540      -0.000       2.007      -0.000      -0.000       2.007
 Approx polarizability:      50.827      -0.000       1.933      -0.000       0.000       1.933

 ******    2 imaginary frequencies (negative Signs) ******

                      1                      2                      3
                      A                      A                      A
 Frequencies --  -1364.0143              -214.9898               551.5014
 Red. masses --      1.0079                 1.1084                 1.0135
 Frc consts  --      1.1049                 0.0302                 0.1816
 IR Inten    --     32.5498                23.0528                 0.0550

                      4
                      A
 Frequencies --    551.5014
 Red. masses --      1.0135
 Frc consts  --      0.1816
 IR Inten    --      0.0550

 - Thermochemistry -
 -------------------
 Temperature   298.150 Kelvin.  Pressure   1.00000 Atm.
 Atom     1 has atomic number  1 and mass   1.00783

 Molecular mass:    21.01405 amu.
 Principal axes and moments of inertia in atomic units:
                           1         2         3
     Eigenvalues --     0.00000 116.59060 116.59060
           X            1.00000  -0.00000   0.00000
           Y            0.00000   1.00000   0.00000
           Z            0.00000   0.00000   1.00000
 This molecule is a prolate symmetric top.
 Rotational symmetry number  1.
 Rotational temperature (Kelvin)      0.74289
 Rotational constant (GHZ):          15.479303
    2 imaginary frequencies ignored.
 Zero-point vibrational energy       6597.4 (Joules/Mol)
                                    1.57682 (Kcal/Mol)
 Warning -- explicit consideration of   2 degrees of freedom as
           vibrations may cause significant error
 Vibrational temperatures:    793.49   793.49
          (Kelvin)

 Zero-point correction=                           0.002513 (Hartree/Particle)
 Thermal correction to Energy=                    0.005251
 Thermal correction to Enthalpy=                  0.006195
 Thermal correction to Gibbs Free Energy=        -0.018240
 Sum of electronic and zero-point Energies=           -100.773232
 Sum of electronic and thermal Energies=              -100.770494
 Sum of electronic and thermal Enthalpies=            -100.769550
 Sum of electronic and thermal Free Energies=         -100.793985

                     E (Thermal)             CV                S
                      KCal/Mol        Cal/Mol-Kelvin    Cal/Mol-Kelvin
 Total                    3.295              7.241             51.428
 Electronic               0.000              0.000              1.377
 Translational            0.889              2.981             35.068
 Rotational               0.592              1.987             13.900
 Vibrational              1.814              2.273              1.082
 Vibration     1          0.907              1.136              0.541
 Vibration     2          0.907              1.136              0.541

 Normal termination of Gaussian 16 at Fri Aug 22 19:54:31 2025.
