 Gaussian 16, Revision C.01,
 Gaussian 16:  ES64L-G16RevC.01  3-Jul-2019

 -----------------------------------------
 # sp b3lyp/6-311g** Force nosymm scf=(qc)
 -----------------------------------------

 -------------------
 Title Card Required
 -------------------
 Symbolic Z-matrix:
 Charge =  0 Multiplicity = 2

                          Input orientation:
 ---------------------------------------------------------------------
 Center     Atomic      Atomic             Coordinates (Angstroms)
 Number     Number       Type             X           Y           Z
 ---------------------------------------------------------------------
      1          1           0        0.000000    0.000000    0.000000
      2          1           0       -3.000000    0.000000    0.000000
      3          9           0        0.750000    0.000000    0.000000
 ---------------------------------------------------------------------

 SCF Done:  E(UB3LYP) =  -100.922039699     a.u. after    6 cycles

 Alpha  occ. eigenvalues --  -24.63438  -1.25457  -0.57373  -0.41176  -0.41176
 Alpha  occ. eigenvalues --   -0.33907
 Alpha virt. eigenvalues --    0.06175   0.25403   0.49127   0.93940   0.93940
 Alpha virt. eigenvalues --    0.96512   1.22336   1.23620   1.23620   1.33909
 Alpha virt. eigenvalues --    1.41726   1.41726   2.00737   2.14830   2.67711

  Beta  occ. eigenvalues --  -24.63435  -1.25449  -0.57365  -0.41174  -0.41174
  Beta virt. eigenvalues --   -0.06398   0.07215   0.39172   0.49314   0.93940
  Beta virt. eigenvalues --    0.93940   0.96504   1.30844   1.41727   1.41727
  Beta virt. eigenvalues --    1.50569   1.50569   1.51321   2.00768   2.44270

 Mulliken charges and spin densities:
               1          2
     1  H    0.266387   0.001406
     2  H    0.001994   0.997272
     3  F   -0.268381   0.001322
 Sum of Mulliken charges =   0.00000   1.00000

 Dipole moment (field-independent basis, Debye):
    X=             -1.6860    Y=             -0.0000    Z=              0.0000  Tot=              1.6860
 Quadrupole moment (field-independent basis, Debye-Ang):
   XX=             -7.3669   YY=             -6.7158   ZZ=             -6.7158
   XY=             -0.0000   XZ=              0.0000   YZ=             -0.0000

  Exact polarizability:       4.933      -0.000       2.457      -0.000       0.000       2.457
 Approx polarizability:       5.292       0.000       2.440      -0.000      -0.000       2.440

 ******    3 imaginary frequencies (negative Signs) ******

                      1                      2                      3
                      A                      A                      A
 Frequencies --  -2695.7400             -2695.7400               -37.9621
 Red. masses --      1.0389                 1.0389                 1.0532
 Frc consts  --      4.4483                 4.4483                 0.0009
 IR Inten    --    199.6554               199.6554                 0.1132

                      4
                      A
 Frequencies --   7586.3712
 Red. masses --      1.0583
 Frc consts  --     35.8868
 IR Inten    --    112.6969

 - Thermochemistry -
 -------------------
 Temperature   298.150 Kelvin.  Pressure   1.00000 Atm.
 Atom     1 has atomic number  1 and mass   1.00783

 Molecular mass:    21.01405 amu.
 Principal axes and moments of inertia in atomic units:
                           1         2         3
     Eigenvalues --     0.00000  49.14021  49.14021
           X            1.00000  -0.00000   0.00000
           Y            0.00000   1.00000   0.00000
           Z            0.00000   0.00000   1.00000
 This molecule is a prolate symmetric top.
 Rotational symmetry number  1.
 Rotational temperature (Kelvin)      1.76259
 Rotational constant (GHZ):          36.726363
    3 imaginary frequencies ignored.
 Zero-point vibrational energy      45376.6 (Joules/Mol)
                                   10.84526 (Kcal/Mol)
 Vibrational temperatures:  10915.10
          (Kelvin)

 Zero-point correction=                           0.017283 (Hartree/Particle)
 Thermal correction to Energy=                    0.019643
 Thermal correction to Enthalpy=                  0.020588
 Thermal correction to Gibbs Free Energy=        -0.002517
 Sum of electronic and zero-point Energies=           -100.904757
 Sum of electronic and thermal Energies=              -100.902396
 Sum of electronic and thermal Enthalpies=            -100.901452
 Sum of electronic and thermal Free Energies=         -100.924557

                     E (Thermal)             CV                S
                      KCal/Mol        Cal/Mol-Kelvin    Cal/Mol-Kelvin
 Total                   12.326              4.968             48.629
 Electronic               0.000              0.000              1.377
 Translational            0.889              2.981             35.068
 Rotational               0.592              1.987             12.183
 Vibrational             10.845              0.000              0.000

 Normal termination of Gaussian 16 at Fri Aug 22 15:49:24 2025.
