 Gaussian 16, Revision C.01,
 Gaussian 16:  ES64L-G16RevC.01  3-Jul-2019

 -----------------------------------------
 # sp b3lyp/6-311g** Force nosymm scf=(qc)
 -----------------------------------------

 -------------------
 Title Card Required
 -------------------
 Symbolic Z-matrix:
 Charge =  0 Multiplicity = 2

                          Input orientation:
 ---------------------------------------------------------------------
 Center     Atomic      Atomic             Coordinates (Angstroms)
 Number     Number       Type             X           Y           Z
 ---------------------------------------------------------------------
      1          1           0        0.000000    0.000000    0.000000
      2          1           0       -1.900000    0.000000    0.000000
      3          9           0        2.350000    0.000000    0.000000
 ---------------------------------------------------------------------

 SCF Done:  E(UB3LYP) =  -100.790110349     a.u. after   16 cycles

 Alpha  occ. eigenvalues --  -24.71022  -1.17265  -0.50135  -0.42092  -0.42092
 Alpha  occ. eigenvalues --   -0.35521
 Alpha virt. eigenvalues --   -0.12955   0.24415   0.31657   0.88684   0.93982
 Alpha virt. eigenvalues --    0.93982   1.04683   1.21261   1.22328   1.22328
 Alpha virt. eigenvalues --    1.34507   1.34507   1.54313   2.11347   2.35453

  Beta  occ. eigenvalues --  -24.68253  -1.09408  -0.39338  -0.39338  -0.35691
  Beta virt. eigenvalues --   -0.23199  -0.11866   0.26591   0.31293   0.94117
  Beta virt. eigenvalues --    0.95274   0.95274   1.07817   1.22614   1.22614
  Beta virt. eigenvalues --    1.25737   1.36041   1.36041   1.54511   2.12044

 Mulliken charges and spin densities:
               1          2
     1  H    0.068010  -0.699734
     2  H    0.038203   0.826141
     3  F   -0.106213   0.873593
 Sum of Mulliken charges =  -0.00000   1.00000

 Dipole moment (field-independent basis, Debye):
    X=             -1.6123    Y=             -0.0000    Z=             -0.0000  Tot=              1.6123
 Quadrupole moment (field-independent basis, Debye-Ang):
   XX=             -8.1784   YY=             -7.6441   ZZ=             -7.6441
   XY=             -0.0000   XZ=             -0.0000   YZ=             -0.0000

  Exact polarizability:      59.212      -0.000       2.019      -0.000       0.000       2.019
 Approx polarizability:      68.638       0.000       1.943       0.000       0.000       1.943

 ******    2 imaginary frequencies (negative Signs) ******

                      1                      2                      3
                      A                      A                      A
 Frequencies --  -1587.4563              -444.2972               658.5408
 Red. masses --      1.0097                 1.1063                 1.0156
 Frc consts  --      1.4991                 0.1287                 0.2595
 IR Inten    --    125.7661                52.3869                 2.2425

                      4
                      A
 Frequencies --    658.5408
 Red. masses --      1.0156
 Frc consts  --      0.2595
 IR Inten    --      2.2425

 - Thermochemistry -
 -------------------
 Temperature   298.150 Kelvin.  Pressure   1.00000 Atm.
 Atom     1 has atomic number  1 and mass   1.00783

 Molecular mass:    21.01405 amu.
 Principal axes and moments of inertia in atomic units:
                           1         2         3
     Eigenvalues --     0.00000  77.36386  77.36386
           X            1.00000  -0.00000   0.00000
           Y            0.00000   1.00000   0.00000
           Z            0.00000   0.00000   1.00000
 This molecule is a prolate symmetric top.
 Rotational symmetry number  1.
 Rotational temperature (Kelvin)      1.11957
 Rotational constant (GHZ):          23.327962
    2 imaginary frequencies ignored.
 Zero-point vibrational energy       7877.9 (Joules/Mol)
                                    1.88286 (Kcal/Mol)
 Vibrational temperatures:    947.49   947.49
          (Kelvin)

 Zero-point correction=                           0.003001 (Hartree/Particle)
 Thermal correction to Energy=                    0.005622
 Thermal correction to Enthalpy=                  0.006566
 Thermal correction to Gibbs Free Energy=        -0.017309
 Sum of electronic and zero-point Energies=           -100.787110
 Sum of electronic and thermal Energies=              -100.784488
 Sum of electronic and thermal Enthalpies=            -100.783544
 Sum of electronic and thermal Free Energies=         -100.807419

                     E (Thermal)             CV                S
                      KCal/Mol        Cal/Mol-Kelvin    Cal/Mol-Kelvin
 Total                    3.528              6.789             50.249
 Electronic               0.000              0.000              1.377
 Translational            0.889              2.981             35.068
 Rotational               0.592              1.987             13.085
 Vibrational              2.047              1.821              0.718

 Normal termination of Gaussian 16 at Fri Aug 22 17:26:13 2025.
