 Gaussian 16, Revision C.01,
 Gaussian 16:  ES64L-G16RevC.01  3-Jul-2019

 -----------------------------------------
 # sp b3lyp/6-311g** Force nosymm scf=(qc)
 -----------------------------------------

 -------------------
 Title Card Required
 -------------------
 Symbolic Z-matrix:
 Charge =  0 Multiplicity = 2

                          Input orientation:
 ---------------------------------------------------------------------
 Center     Atomic      Atomic             Coordinates (Angstroms)
 Number     Number       Type             X           Y           Z
 ---------------------------------------------------------------------
      1          1           0        0.000000    0.000000    0.000000
      2          1           0       -1.200000    0.000000    0.000000
      3          9           0        1.300000    0.000000    0.000000
 ---------------------------------------------------------------------

 SCF Done:  E(UB3LYP) =  -100.925450599     a.u. after    8 cycles

 Alpha  occ. eigenvalues --  -24.65186  -1.13147  -0.51677  -0.38401  -0.38066
 Alpha  occ. eigenvalues --   -0.38066
 Alpha virt. eigenvalues --    0.02435   0.19615   0.31623   0.91481   0.91481
 Alpha virt. eigenvalues --    1.00383   1.09703   1.09703   1.17190   1.52065
 Alpha virt. eigenvalues --    1.52065   1.58413   2.08432   2.28653   2.45345

  Beta  occ. eigenvalues --  -24.63823  -1.09583  -0.45261  -0.36786  -0.36786
  Beta virt. eigenvalues --   -0.21669   0.05597   0.22340   0.34418   0.92136
  Beta virt. eigenvalues --    0.92136   1.03551   1.15411   1.15411   1.22481
  Beta virt. eigenvalues --    1.55139   1.55139   1.61709   2.16393   2.30817

 Mulliken charges and spin densities:
               1          2
     1  H    0.257556  -0.100798
     2  H    0.059886   0.694672
     3  F   -0.317442   0.406125
 Sum of Mulliken charges =   0.00000   1.00000

 Dipole moment (field-independent basis, Debye):
    X=             -2.4670    Y=             -0.0000    Z=             -0.0000  Tot=              2.4670
 Quadrupole moment (field-independent basis, Debye-Ang):
   XX=             -7.8317   YY=             -6.9866   ZZ=             -6.9866
   XY=             -0.0000   XZ=             -0.0000   YZ=              0.0000

  Exact polarizability:      25.683       0.000       2.455       0.000      -0.000       2.455
 Approx polarizability:      36.052      -0.000       2.432       0.000      -0.000       2.432

 ******    1 imaginary frequencies (negative Signs) ******

                      1                      2                      3
                      A                      A                      A
 Frequencies --  -2599.5783               666.0022              1138.5472
 Red. masses --      1.0236                 1.0900                 1.0170
 Frc consts  --      4.0757                 0.2849                 0.7767
 IR Inten    --    298.5585                39.3841                29.0924

                      4
                      A
 Frequencies --   1138.5472
 Red. masses --      1.0170
 Frc consts  --      0.7767
 IR Inten    --     29.0924

 - Thermochemistry -
 -------------------
 Temperature   298.150 Kelvin.  Pressure   1.00000 Atm.
 Atom     1 has atomic number  1 and mass   1.00783

 Molecular mass:    21.01405 amu.
 Principal axes and moments of inertia in atomic units:
                           1         2         3
     Eigenvalues --     0.00000  26.08368  26.08368
           X            1.00000  -0.00000   0.00000
           Y            0.00000   1.00000   0.00000
           Z            0.00000   0.00000   1.00000
 This molecule is a prolate symmetric top.
 Rotational symmetry number  1.
 Rotational temperature (Kelvin)      3.32062
 Rotational constant (GHZ):          69.190426
    1 imaginary frequencies ignored.
 Zero-point vibrational energy      17603.6 (Joules/Mol)
                                    4.20737 (Kcal/Mol)
 Vibrational temperatures:    958.23  1638.12  1638.12
          (Kelvin)

 Zero-point correction=                           0.006705 (Hartree/Particle)
 Thermal correction to Energy=                    0.009235
 Thermal correction to Enthalpy=                  0.010179
 Thermal correction to Gibbs Free Energy=        -0.012544
 Sum of electronic and zero-point Energies=           -100.918746
 Sum of electronic and thermal Energies=              -100.916215
 Sum of electronic and thermal Enthalpies=            -100.915271
 Sum of electronic and thermal Free Energies=         -100.937995

                     E (Thermal)             CV                S
                      KCal/Mol        Cal/Mol-Kelvin    Cal/Mol-Kelvin
 Total                    5.795              6.361             47.826
 Electronic               0.000              0.000              1.377
 Translational            0.889              2.981             35.068
 Rotational               0.592              1.987             10.925
 Vibrational              4.314              1.393              0.456

 Normal termination of Gaussian 16 at Fri Aug 22 16:14:28 2025.
