 Gaussian 16, Revision C.01,
 Gaussian 16:  ES64L-G16RevC.01  3-Jul-2019

 -----------------------------------------
 # sp b3lyp/6-311g** Force nosymm scf=(qc)
 -----------------------------------------

 -------------------
 Title Card Required
 -------------------
 Symbolic Z-matrix:
 Charge =  0 Multiplicity = 2

                          Input orientation:
 ---------------------------------------------------------------------
 Center     Atomic      Atomic             Coordinates (Angstroms)
 Number     Number       Type             X           Y           Z
 ---------------------------------------------------------------------
      1          1           0        0.000000    0.000000    0.000000
      2          1           0       -3.000000    0.000000    0.000000
      3          9           0        3.500000    0.000000    0.000000
 ---------------------------------------------------------------------

 SCF Done:  E(UB3LYP) =  -100.759994421     a.u. after   34 cycles

 Alpha  occ. eigenvalues --  -24.75403  -1.21364  -0.54525  -0.45780  -0.45780
 Alpha  occ. eigenvalues --   -0.32447
 Alpha virt. eigenvalues --   -0.08054   0.24954   0.35918   0.87611   0.91470
 Alpha virt. eigenvalues --    0.91470   1.01810   1.25090   1.25090   1.25811
 Alpha virt. eigenvalues --    1.43846   1.43854   1.43854   2.15721   2.39518

  Beta  occ. eigenvalues --  -24.72288  -1.12415  -0.42659  -0.42659  -0.32875
  Beta virt. eigenvalues --   -0.25496  -0.07510   0.24734   0.36765   0.92959
  Beta virt. eigenvalues --    0.92959   0.96759   1.05831   1.24594   1.24594
  Beta virt. eigenvalues --    1.25273   1.44688   1.44722   1.44722   2.16037

 Mulliken charges and spin densities:
               1          2
     1  H    0.010625  -0.979970
     2  H    0.000663   0.992458
     3  F   -0.011288   0.987512
 Sum of Mulliken charges =  -0.00000   1.00000

 Dipole moment (field-independent basis, Debye):
    X=             -0.2127    Y=              0.0000    Z=              0.0000  Tot=              0.2127
 Quadrupole moment (field-independent basis, Debye-Ang):
   XX=             -7.3129   YY=             -7.6344   ZZ=             -7.6344
   XY=              0.0000   XZ=              0.0000   YZ=              0.0000

  Exact polarizability:      26.249       0.000       2.031       0.000      -0.000       2.031
 Approx polarizability:      20.394       0.000       1.931       0.000      -0.000       1.931

 ******    2 imaginary frequencies (negative Signs) ******

                      1                      2                      3
                      A                      A                      A
 Frequencies --   -360.2594              -130.7888               124.1020
 Red. masses --      1.0109                 1.1048                 1.0162
 Frc consts  --      0.0773                 0.0111                 0.0092
 IR Inten    --      7.5571                 4.1203                 0.0928

                      4
                      A
 Frequencies --    124.1020
 Red. masses --      1.0162
 Frc consts  --      0.0092
 IR Inten    --      0.0928

 - Thermochemistry -
 -------------------
 Temperature   298.150 Kelvin.  Pressure   1.00000 Atm.
 Atom     1 has atomic number  1 and mass   1.00783

 Molecular mass:    21.01405 amu.
 Principal axes and moments of inertia in atomic units:
                           1         2         3
     Eigenvalues --     0.00000 178.88527 178.88527
           X            1.00000  -0.00000   0.00000
           Y            0.00000   1.00000   0.00000
           Z            0.00000   0.00000   1.00000
 This molecule is a prolate symmetric top.
 Rotational symmetry number  1.
 Rotational temperature (Kelvin)      0.48419
 Rotational constant (GHZ):          10.088819
    2 imaginary frequencies ignored.
 Zero-point vibrational energy       1484.6 (Joules/Mol)
                                    0.35483 (Kcal/Mol)
 Warning -- explicit consideration of   2 degrees of freedom as
           vibrations may cause significant error
 Vibrational temperatures:    178.56   178.56
          (Kelvin)

 Zero-point correction=                           0.000565 (Hartree/Particle)
 Thermal correction to Energy=                    0.004305
 Thermal correction to Enthalpy=                  0.005249
 Thermal correction to Gibbs Free Energy=        -0.021960
 Sum of electronic and zero-point Energies=           -100.759429
 Sum of electronic and thermal Energies=              -100.755689
 Sum of electronic and thermal Enthalpies=            -100.754745
 Sum of electronic and thermal Free Energies=         -100.781955

                     E (Thermal)             CV                S
                      KCal/Mol        Cal/Mol-Kelvin    Cal/Mol-Kelvin
 Total                    2.701              8.826             57.267
 Electronic               0.000              0.000              1.377
 Translational            0.889              2.981             35.068
 Rotational               0.592              1.987             14.751
 Vibrational              1.220              3.858              6.071
 Vibration     1          0.610              1.929              3.035
 Vibration     2          0.610              1.929              3.035

 Normal termination of Gaussian 16 at Fri Aug 22 22:10:35 2025.
