 Gaussian 16, Revision C.01,
 Gaussian 16:  ES64L-G16RevC.01  3-Jul-2019

 -----------------------------------------
 # sp b3lyp/6-311g** Force nosymm scf=(qc)
 -----------------------------------------

 -------------------
 Title Card Required
 -------------------
 Symbolic Z-matrix:
 Charge =  0 Multiplicity = 2

                          Input orientation:
 ---------------------------------------------------------------------
 Center     Atomic      Atomic             Coordinates (Angstroms)
 Number     Number       Type             X           Y           Z
 ---------------------------------------------------------------------
      1          1           0        0.000000    0.000000    0.000000
      2          1           0       -3.750000    0.000000    0.000000
      3          9           0        2.300000    0.000000    0.000000
 ---------------------------------------------------------------------

 SCF Done:  E(UB3LYP) =  -100.772403103     a.u. after   16 cycles

 Alpha  occ. eigenvalues --  -24.67717  -1.09043  -0.38922  -0.38922  -0.36269
 Alpha  occ. eigenvalues --   -0.32915
 Alpha virt. eigenvalues --   -0.22444   0.20832   0.27710   0.92783   0.95466
 Alpha virt. eigenvalues --    0.95466   1.08244   1.21601   1.21601   1.24551
 Alpha virt. eigenvalues --    1.24551   1.24560   1.37198   2.10352   2.15968

  Beta  occ. eigenvalues --  -24.70426  -1.16711  -0.49503  -0.41613  -0.41613
  Beta virt. eigenvalues --   -0.11807  -0.04466   0.31705   0.40249   0.88750
  Beta virt. eigenvalues --    0.94250   0.94250   1.06159   1.38604   1.38604
  Beta virt. eigenvalues --    1.48016   1.48141   1.48141   1.48808   2.33565

 Mulliken charges and spin densities:
               1          2
     1  H    0.124372   0.854594
     2  H    0.000534   0.999477
     3  F   -0.124906  -0.854071
 Sum of Mulliken charges =  -0.00000   1.00000

 Dipole moment (field-independent basis, Debye):
    X=             -1.4570    Y=             -0.0000    Z=             -0.0000  Tot=              1.4570
 Quadrupole moment (field-independent basis, Debye-Ang):
   XX=             -9.7256   YY=             -7.5340   ZZ=             -7.5340
   XY=             -0.0000   XZ=             -0.0000   YZ=              0.0000

  Exact polarizability:      28.748      -0.000       2.034      -0.000      -0.000       2.034
 Approx polarizability:      39.177      -0.000       1.925      -0.000       0.000       1.925

 ******    1 imaginary frequencies (negative Signs) ******

                      1                      2                      3
                      A                      A                      A
 Frequencies --   -756.4218                58.4282               311.8108
 Red. masses --      1.0592                 1.0524                 1.0248
 Frc consts  --      0.3571                 0.0021                 0.0587
 IR Inten    --     94.2376                 0.0435                14.9250

                      4
                      A
 Frequencies --    311.8108
 Red. masses --      1.0248
 Frc consts  --      0.0587
 IR Inten    --     14.9250

 - Thermochemistry -
 -------------------
 Temperature   298.150 Kelvin.  Pressure   1.00000 Atm.
 Atom     1 has atomic number  1 and mass   1.00783

 Molecular mass:    21.01405 amu.
 Principal axes and moments of inertia in atomic units:
                           1         2         3
     Eigenvalues --     0.00000 138.73688 138.73688
           X            1.00000  -0.00000   0.00000
           Y            0.00000   1.00000   0.00000
           Z            0.00000   0.00000   1.00000
 This molecule is a prolate symmetric top.
 Rotational symmetry number  1.
 Rotational temperature (Kelvin)      0.62430
 Rotational constant (GHZ):          13.008374
    1 imaginary frequencies ignored.
 Zero-point vibrational energy       4079.6 (Joules/Mol)
                                    0.97504 (Kcal/Mol)
 Warning -- explicit consideration of   3 degrees of freedom as
           vibrations may cause significant error
 Vibrational temperatures:     84.07   448.63   448.63
          (Kelvin)

 Zero-point correction=                           0.001554 (Hartree/Particle)
 Thermal correction to Energy=                    0.005543
 Thermal correction to Enthalpy=                  0.006487
 Thermal correction to Gibbs Free Energy=        -0.021026
 Sum of electronic and zero-point Energies=           -100.770849
 Sum of electronic and thermal Energies=              -100.766860
 Sum of electronic and thermal Enthalpies=            -100.765916
 Sum of electronic and thermal Free Energies=         -100.793429

                     E (Thermal)             CV                S
                      KCal/Mol        Cal/Mol-Kelvin    Cal/Mol-Kelvin
 Total                    3.478             10.244             57.906
 Electronic               0.000              0.000              1.377
 Translational            0.889              2.981             35.068
 Rotational               0.592              1.987             14.246
 Vibrational              1.997              5.276              7.215
 Vibration     1          0.596              1.974              4.510
 Vibration     2          0.700              1.651              1.353
 Vibration     3          0.700              1.651              1.353

 Normal termination of Gaussian 16 at Fri Aug 22 17:23:26 2025.
