 Gaussian 16, Revision C.01,
 Gaussian 16:  ES64L-G16RevC.01  3-Jul-2019

 -----------------------------------------
 # sp b3lyp/6-311g** Force nosymm scf=(qc)
 -----------------------------------------

 -------------------
 Title Card Required
 -------------------
 Symbolic Z-matrix:
 Charge =  0 Multiplicity = 2

                          Input orientation:
 ---------------------------------------------------------------------
 Center     Atomic      Atomic             Coordinates (Angstroms)
 Number     Number       Type             X           Y           Z
 ---------------------------------------------------------------------
      1          1           0        0.000000    0.000000    0.000000
      2          1           0       -0.800000    0.000000    0.000000
      3          9           0        3.450000    0.000000    0.000000
 ---------------------------------------------------------------------

 SCF Done:  E(UB3LYP) =  -100.932173515     a.u. after  319 cycles

 Alpha  occ. eigenvalues --  -24.76375  -1.22230  -0.55430  -0.46630  -0.46583
 Alpha  occ. eigenvalues --   -0.42144
 Alpha virt. eigenvalues --    0.04801   0.20128   0.44772   0.85983   0.90859
 Alpha virt. eigenvalues --    0.92892   1.02122   1.08320   1.08323   1.52362
 Alpha virt. eigenvalues --    1.78985   1.78989   2.04895   2.38138   3.05419

  Beta  occ. eigenvalues --  -24.73217  -1.13150  -0.43489  -0.43417  -0.42117
  Beta virt. eigenvalues --   -0.26067   0.04817   0.20140   0.44831   0.92358
  Beta virt. eigenvalues --    0.94436   0.95446   1.06145   1.08319   1.08323
  Beta virt. eigenvalues --    1.52370   1.78984   1.78989   2.04913   2.38141

 Mulliken charges and spin densities:
               1          2
     1  H   -0.001752  -0.000481
     2  H   -0.002574  -0.000024
     3  F    0.004326   1.000505
 Sum of Mulliken charges =   0.00000   1.00000

 Dipole moment (field-independent basis, Debye):
    X=              0.0519    Y=              0.0000    Z=              0.0000  Tot=              0.0519
 Quadrupole moment (field-independent basis, Debye-Ang):
   XX=             -6.1974   YY=             -6.1586   ZZ=             -7.0224
   XY=              0.0000   XZ=              0.0000   YZ=              0.0112

  Exact polarizability:       9.021       0.000       2.447       0.000       0.006       1.983
 Approx polarizability:      10.616       0.000       2.637       0.000       0.008       2.056

                      1                      2                      3
                      A                      A                      A
 Frequencies --     17.5791              1074.2835              1075.3128
 Red. masses --      1.1085                 1.0089                 1.0089
 Frc consts  --      0.0002                 0.6860                 0.6873
 IR Inten    --      0.1543                 0.0009                 0.0006

                      4
                      A
 Frequencies --   3694.6393
 Red. masses --      1.0078
 Frc consts  --      8.1055
 IR Inten    --      0.1033

 - Thermochemistry -
 -------------------
 Temperature   298.150 Kelvin.  Pressure   1.00000 Atm.
 Atom     1 has atomic number  1 and mass   1.00783

 Molecular mass:    21.01405 amu.
 Principal axes and moments of inertia in atomic units:
                           1         2         3
     Eigenvalues --     0.00000  97.61043  97.61043
           X            1.00000  -0.00000   0.00000
           Y            0.00000   1.00000   0.00000
           Z            0.00000   0.00000   1.00000
 This molecule is a prolate symmetric top.
 Rotational symmetry number  1.
 Rotational temperature (Kelvin)      0.88734
 Rotational constant (GHZ):          18.489226
 Zero-point vibrational energy      35061.4 (Joules/Mol)
                                    8.37988 (Kcal/Mol)
 Warning -- explicit consideration of   1 degrees of freedom as
           vibrations may cause significant error
 Vibrational temperatures:     25.29  1545.65  1547.14  5315.76
          (Kelvin)

 Zero-point correction=                           0.013354 (Hartree/Particle)
 Thermal correction to Energy=                    0.016674
 Thermal correction to Enthalpy=                  0.017619
 Thermal correction to Gibbs Free Energy=        -0.009474
 Sum of electronic and zero-point Energies=           -100.918819
 Sum of electronic and thermal Energies=              -100.915499
 Sum of electronic and thermal Enthalpies=            -100.914555
 Sum of electronic and thermal Free Energies=         -100.941647

                     E (Thermal)             CV                S
                      KCal/Mol        Cal/Mol-Kelvin    Cal/Mol-Kelvin
 Total                   10.463              7.559             57.021
 Electronic               0.000              0.000              1.377
 Translational            0.889              2.981             35.068
 Rotational               0.592              1.987             13.547
 Vibrational              8.982              2.591              7.029
 Vibration     1          0.593              1.986              6.890

 Normal termination of Gaussian 16 at Fri Aug 22 21:23:48 2025.
