 Gaussian 16, Revision C.01,
 Gaussian 16:  ES64L-G16RevC.01  3-Jul-2019

 -----------------------------------------
 # sp b3lyp/6-311g** Force nosymm scf=(qc)
 -----------------------------------------

 -------------------
 Title Card Required
 -------------------
 Symbolic Z-matrix:
 Charge =  0 Multiplicity = 2

                          Input orientation:
 ---------------------------------------------------------------------
 Center     Atomic      Atomic             Coordinates (Angstroms)
 Number     Number       Type             X           Y           Z
 ---------------------------------------------------------------------
      1          1           0        0.000000    0.000000    0.000000
      2          1           0       -2.050000    0.000000    0.000000
      3          9           0        2.050000    0.000000    0.000000
 ---------------------------------------------------------------------

 SCF Done:  E(UB3LYP) =  -100.795746123     a.u. after   12 cycles

 Alpha  occ. eigenvalues --  -24.68528  -1.14856  -0.47600  -0.39990  -0.39990
 Alpha  occ. eigenvalues --   -0.36080
 Alpha virt. eigenvalues --   -0.13558   0.24088   0.31089   0.88321   0.94913
 Alpha virt. eigenvalues --    0.94913   1.05228   1.21813   1.21813   1.27737
 Alpha virt. eigenvalues --    1.34116   1.34116   1.57560   2.10947   2.31079

  Beta  occ. eigenvalues --  -24.66068  -1.07957  -0.37560  -0.37560  -0.37146
  Beta virt. eigenvalues --   -0.21545  -0.11521   0.26113   0.32092   0.91334
  Beta virt. eigenvalues --    0.95758   0.95758   1.08508   1.22773   1.22773
  Beta virt. eigenvalues --    1.36821   1.36821   1.38813   1.53891   2.11758

 Mulliken charges and spin densities:
               1          2
     1  H    0.134772  -0.671823
     2  H    0.040079   0.898152
     3  F   -0.174851   0.773671
 Sum of Mulliken charges =  -0.00000   1.00000

 Dipole moment (field-independent basis, Debye):
    X=             -2.1786    Y=              0.0000    Z=             -0.0000  Tot=              2.1786
 Quadrupole moment (field-independent basis, Debye-Ang):
   XX=             -8.7655   YY=             -7.5615   ZZ=             -7.5615
   XY=              0.0000   XZ=             -0.0000   YZ=              0.0000

  Exact polarizability:      49.592      -0.000       2.052       0.000       0.000       2.052
 Approx polarizability:      58.319       0.000       1.957      -0.000      -0.000       1.957

 ******    2 imaginary frequencies (negative Signs) ******

                      1                      2                      3
                      A                      A                      A
 Frequencies --  -1467.3950              -548.0824               606.8645
 Red. masses --      1.0194                 1.0949                 1.0179
 Frc consts  --      1.2932                 0.1938                 0.2209
 IR Inten    --    101.0674                38.0075                11.7520

                      4
                      A
 Frequencies --    606.8645
 Red. masses --      1.0179
 Frc consts  --      0.2209
 IR Inten    --     11.7520

 - Thermochemistry -
 -------------------
 Temperature   298.150 Kelvin.  Pressure   1.00000 Atm.
 Atom     1 has atomic number  1 and mass   1.00783

 Molecular mass:    21.01405 amu.
 Principal axes and moments of inertia in atomic units:
                           1         2         3
     Eigenvalues --     0.00000  69.09574  69.09574
           X            1.00000  -0.00000   0.00000
           Y            0.00000   1.00000   0.00000
           Z            0.00000   0.00000   1.00000
 This molecule is a prolate symmetric top.
 Rotational symmetry number  1.
 Rotational temperature (Kelvin)      1.25353
 Rotational constant (GHZ):          26.119427
    2 imaginary frequencies ignored.
 Zero-point vibrational energy       7259.7 (Joules/Mol)
                                    1.73511 (Kcal/Mol)
 Warning -- explicit consideration of   2 degrees of freedom as
           vibrations may cause significant error
 Vibrational temperatures:    873.14   873.14
          (Kelvin)

 Zero-point correction=                           0.002765 (Hartree/Particle)
 Thermal correction to Energy=                    0.005438
 Thermal correction to Enthalpy=                  0.006382
 Thermal correction to Gibbs Free Energy=        -0.017461
 Sum of electronic and zero-point Energies=           -100.792981
 Sum of electronic and thermal Energies=              -100.790308
 Sum of electronic and thermal Enthalpies=            -100.789364
 Sum of electronic and thermal Free Energies=         -100.813207

                     E (Thermal)             CV                S
                      KCal/Mol        Cal/Mol-Kelvin    Cal/Mol-Kelvin
 Total                    3.412              7.003             50.182
 Electronic               0.000              0.000              1.377
 Translational            0.889              2.981             35.068
 Rotational               0.592              1.987             12.860
 Vibrational              1.931              2.035              0.876
 Vibration     1          0.966              1.017              0.438
 Vibration     2          0.966              1.017              0.438

 Normal termination of Gaussian 16 at Fri Aug 22 17:00:09 2025.
