 Gaussian 16, Revision C.01,
 Gaussian 16:  ES64L-G16RevC.01  3-Jul-2019

 -----------------------------------------
 # sp b3lyp/6-311g** Force nosymm scf=(qc)
 -----------------------------------------

 -------------------
 Title Card Required
 -------------------
 Symbolic Z-matrix:
 Charge =  0 Multiplicity = 2

                          Input orientation:
 ---------------------------------------------------------------------
 Center     Atomic      Atomic             Coordinates (Angstroms)
 Number     Number       Type             X           Y           Z
 ---------------------------------------------------------------------
      1          1           0        0.000000    0.000000    0.000000
      2          1           0       -2.100000    0.000000    0.000000
      3          9           0        3.300000    0.000000    0.000000
 ---------------------------------------------------------------------

 SCF Done:  E(UB3LYP) =  -100.771254452     a.u. after   26 cycles

 Alpha  occ. eigenvalues --  -24.75169  -1.21147  -0.54290  -0.45585  -0.45585
 Alpha  occ. eigenvalues --   -0.33179
 Alpha virt. eigenvalues --   -0.11041   0.25773   0.32544   0.88352   0.91608
 Alpha virt. eigenvalues --    0.91608   1.02400   1.20542   1.24743   1.24743
 Alpha virt. eigenvalues --    1.38137   1.38137   1.47436   2.13201   2.35899

  Beta  occ. eigenvalues --  -24.72074  -1.12256  -0.42483  -0.42483  -0.33345
  Beta virt. eigenvalues --   -0.25412  -0.10593   0.25765   0.33178   0.93091
  Beta virt. eigenvalues --    0.93091   0.97392   1.06399   1.20398   1.24517
  Beta virt. eigenvalues --    1.24517   1.38810   1.38810   1.47969   2.14082

 Mulliken charges and spin densities:
               1          2
     1  H    0.008722  -0.879195
     2  H    0.007615   0.897809
     3  F   -0.016337   0.981386
 Sum of Mulliken charges =   0.00000   1.00000

 Dipole moment (field-independent basis, Debye):
    X=             -0.3525    Y=              0.0000    Z=              0.0000  Tot=              0.3525
 Quadrupole moment (field-independent basis, Debye-Ang):
   XX=             -7.0004   YY=             -7.7080   ZZ=             -7.7080
   XY=              0.0000   XZ=              0.0000   YZ=              0.0000

  Exact polarizability:      48.942       0.000       2.011       0.000       0.000       2.011
 Approx polarizability:      40.515       0.000       1.931       0.000      -0.000       1.931

 ******    2 imaginary frequencies (negative Signs) ******

                      1                      2                      3
                      A                      A                      A
 Frequencies --  -1186.1404              -175.9456               467.2610
 Red. masses --      1.0079                 1.1084                 1.0134
 Frc consts  --      0.8355                 0.0202                 0.1304
 IR Inten    --     15.9520                13.5738                 0.0269

                      4
                      A
 Frequencies --    467.2610
 Red. masses --      1.0134
 Frc consts  --      0.1304
 IR Inten    --      0.0269

 - Thermochemistry -
 -------------------
 Temperature   298.150 Kelvin.  Pressure   1.00000 Atm.
 Atom     1 has atomic number  1 and mass   1.00783

 Molecular mass:    21.01405 amu.
 Principal axes and moments of inertia in atomic units:
                           1         2         3
     Eigenvalues --     0.00000 131.07567 131.07567
           X            1.00000  -0.00000   0.00000
           Y            0.00000   1.00000   0.00000
           Z            0.00000   0.00000   1.00000
 This molecule is a prolate symmetric top.
 Rotational symmetry number  1.
 Rotational temperature (Kelvin)      0.66079
 Rotational constant (GHZ):          13.768697
    2 imaginary frequencies ignored.
 Zero-point vibrational energy       5589.7 (Joules/Mol)
                                    1.33597 (Kcal/Mol)
 Warning -- explicit consideration of   2 degrees of freedom as
           vibrations may cause significant error
 Vibrational temperatures:    672.28   672.28
          (Kelvin)

 Zero-point correction=                           0.002129 (Hartree/Particle)
 Thermal correction to Energy=                    0.004988
 Thermal correction to Enthalpy=                  0.005933
 Thermal correction to Gibbs Free Energy=        -0.018807
 Sum of electronic and zero-point Energies=           -100.769125
 Sum of electronic and thermal Energies=              -100.766266
 Sum of electronic and thermal Enthalpies=            -100.765322
 Sum of electronic and thermal Free Energies=         -100.790061

                     E (Thermal)             CV                S
                      KCal/Mol        Cal/Mol-Kelvin    Cal/Mol-Kelvin
 Total                    3.130              7.613             52.069
 Electronic               0.000              0.000              1.377
 Translational            0.889              2.981             35.068
 Rotational               0.592              1.987             14.133
 Vibrational              1.649              2.645              1.491
 Vibration     1          0.825              1.323              0.745
 Vibration     2          0.825              1.323              0.745

 Normal termination of Gaussian 16 at Fri Aug 22 20:48:18 2025.
