 Gaussian 16, Revision C.01,
 Gaussian 16:  ES64L-G16RevC.01  3-Jul-2019

 -----------------------------------------
 # sp b3lyp/6-311g** Force nosymm scf=(qc)
 -----------------------------------------

 -------------------
 Title Card Required
 -------------------
 Symbolic Z-matrix:
 Charge =  0 Multiplicity = 2

                          Input orientation:
 ---------------------------------------------------------------------
 Center     Atomic      Atomic             Coordinates (Angstroms)
 Number     Number       Type             X           Y           Z
 ---------------------------------------------------------------------
      1          1           0        0.000000    0.000000    0.000000
      2          1           0       -2.250000    0.000000    0.000000
      3          9           0        1.100000    0.000000    0.000000
 ---------------------------------------------------------------------

 SCF Done:  E(UB3LYP) =  -100.949377943     a.u. after    6 cycles

 Alpha  occ. eigenvalues --  -24.63991  -1.13644  -0.49567  -0.37849  -0.37849
 Alpha  occ. eigenvalues --   -0.35732
 Alpha virt. eigenvalues --   -0.00683   0.24654   0.30781   0.93809   0.93809
 Alpha virt. eigenvalues --    0.99608   1.17393   1.21775   1.21775   1.35511
 Alpha virt. eigenvalues --    1.35511   1.41117   1.79720   2.12844   2.33084

  Beta  occ. eigenvalues --  -24.63932  -1.13495  -0.49278  -0.37796  -0.37796
  Beta virt. eigenvalues --   -0.11978   0.01748   0.30718   0.35825   0.93811
  Beta virt. eigenvalues --    0.93811   0.99826   1.26339   1.35328   1.35328
  Beta virt. eigenvalues --    1.42278   1.42278   1.51756   1.79813   2.31063

 Mulliken charges and spin densities:
               1          2
     1  H    0.330116   0.001542
     2  H    0.013755   0.980933
     3  F   -0.343871   0.017525
 Sum of Mulliken charges =   0.00000   1.00000

 Dipole moment (field-independent basis, Debye):
    X=             -2.3256    Y=             -0.0000    Z=              0.0000  Tot=              2.3256
 Quadrupole moment (field-independent basis, Debye-Ang):
   XX=             -8.1428   YY=             -7.0307   ZZ=             -7.0307
   XY=             -0.0000   XZ=              0.0000   YZ=             -0.0000

  Exact polarizability:      11.692       0.000       2.404      -0.000       0.000       2.404
 Approx polarizability:      13.784       0.000       2.374       0.000       0.000       2.374

 ******    1 imaginary frequencies (negative Signs) ******

                      1                      2                      3
                      A                      A                      A
 Frequencies --   -161.5102              1151.6483              1151.6483
 Red. masses --      1.0506                 1.0284                 1.0284
 Frc consts  --      0.0161                 0.8036                 0.8036
 IR Inten    --      4.2329               133.6594               133.6594

                      4
                      A
 Frequencies --   1886.5392
 Red. masses --      1.0610
 Frc consts  --      2.2249
 IR Inten    --    154.2336

 - Thermochemistry -
 -------------------
 Temperature   298.150 Kelvin.  Pressure   1.00000 Atm.
 Atom     1 has atomic number  1 and mass   1.00783

 Molecular mass:    21.01405 amu.
 Principal axes and moments of inertia in atomic units:
                           1         2         3
     Eigenvalues --     0.00000  41.32663  41.32663
           X            1.00000  -0.00000   0.00000
           Y            0.00000   1.00000   0.00000
           Z            0.00000   0.00000   1.00000
 This molecule is a prolate symmetric top.
 Rotational symmetry number  1.
 Rotational temperature (Kelvin)      2.09584
 Rotational constant (GHZ):          43.670181
    1 imaginary frequencies ignored.
 Zero-point vibrational energy      25060.8 (Joules/Mol)
                                    5.98967 (Kcal/Mol)
 Vibrational temperatures:   1656.97  1656.97  2714.31
          (Kelvin)

 Zero-point correction=                           0.009545 (Hartree/Particle)
 Thermal correction to Energy=                    0.011947
 Thermal correction to Enthalpy=                  0.012891
 Thermal correction to Gibbs Free Energy=        -0.010099
 Sum of electronic and zero-point Energies=           -100.939833
 Sum of electronic and thermal Energies=              -100.937431
 Sum of electronic and thermal Enthalpies=            -100.936487
 Sum of electronic and thermal Free Energies=         -100.959477

                     E (Thermal)             CV                S
                      KCal/Mol        Cal/Mol-Kelvin    Cal/Mol-Kelvin
 Total                    7.497              5.464             48.388
 Electronic               0.000              0.000              1.377
 Translational            0.889              2.981             35.068
 Rotational               0.592              1.987             11.839
 Vibrational              6.016              0.496              0.103

 Normal termination of Gaussian 16 at Fri Aug 22 16:05:30 2025.
