 Gaussian 16, Revision C.01,
 Gaussian 16:  ES64L-G16RevC.01  3-Jul-2019

 -----------------------------------------
 # sp b3lyp/6-311g** Force nosymm scf=(qc)
 -----------------------------------------

 -------------------
 Title Card Required
 -------------------
 Symbolic Z-matrix:
 Charge =  0 Multiplicity = 2

                          Input orientation:
 ---------------------------------------------------------------------
 Center     Atomic      Atomic             Coordinates (Angstroms)
 Number     Number       Type             X           Y           Z
 ---------------------------------------------------------------------
      1          1           0        0.000000    0.000000    0.000000
      2          1           0       -0.550000    0.000000    0.000000
      3          9           0        0.650000    0.000000    0.000000
 ---------------------------------------------------------------------

 SCF Done:  E(UB3LYP) =  -100.556277281     a.u. after    6 cycles

 Alpha  occ. eigenvalues --  -24.70270  -1.44751  -0.74552  -0.49311  -0.49311
 Alpha  occ. eigenvalues --   -0.25615
 Alpha virt. eigenvalues --    0.16828   0.18409   0.82889   0.83727   0.83727
 Alpha virt. eigenvalues --    0.92575   1.11506   1.11506   1.44232   1.58211
 Alpha virt. eigenvalues --    2.00762   2.00762   2.08921   3.53012   3.71691

  Beta  occ. eigenvalues --  -24.69245  -1.41472  -0.70746  -0.48436  -0.48436
  Beta virt. eigenvalues --   -0.08008   0.17401   0.23781   0.85043   0.85359
  Beta virt. eigenvalues --    0.85359   0.97523   1.16487   1.16487   1.45974
  Beta virt. eigenvalues --    1.62571   2.06195   2.06195   2.16425   3.58718

 Mulliken charges and spin densities:
               1          2
     1  H    0.283980  -0.106384
     2  H   -0.203112   0.979810
     3  F   -0.080868   0.126574
 Sum of Mulliken charges =   0.00000   1.00000

 Dipole moment (field-independent basis, Debye):
    X=             -0.1916    Y=             -0.0000    Z=              0.0000  Tot=              0.1916
 Quadrupole moment (field-independent basis, Debye-Ang):
   XX=             -7.6076   YY=             -6.4663   ZZ=             -6.4663
   XY=             -0.0000   XZ=             -0.0000   YZ=             -0.0000

  Exact polarizability:       8.649      -0.000       2.429      -0.000      -0.000       2.429
 Approx polarizability:       8.496       0.000       2.541       0.000      -0.000       2.541

 ******    2 imaginary frequencies (negative Signs) ******

                      1                      2                      3
                      A                      A                      A
 Frequencies --  -6228.8817             -6228.8817              5598.0248
 Red. masses --      1.0160                 1.0160                 1.0810
 Frc consts  --     23.2264                23.2264                19.9594
 IR Inten    --    146.6621               146.6621               513.7234

                      4
                      A
 Frequencies --  12226.9618
 Red. masses --      1.0317
 Frc consts  --     90.8736
 IR Inten    --     14.8525

 - Thermochemistry -
 -------------------
 Temperature   298.150 Kelvin.  Pressure   1.00000 Atm.
 Atom     1 has atomic number  1 and mass   1.00783

 Molecular mass:    21.01405 amu.
 Principal axes and moments of inertia in atomic units:
                           1         2         3
     Eigenvalues --     0.00000   6.11241   6.11241
           X            1.00000  -0.00000   0.00000
           Y            0.00000   1.00000   0.00000
           Z            0.00000   0.00000   1.00000
 This molecule is a prolate symmetric top.
 Rotational symmetry number  1.
 Rotational temperature (Kelvin)     14.17018
 Rotational constant (GHZ):         295.258714
    2 imaginary frequencies ignored.
 Zero-point vibrational energy     106617.1 (Joules/Mol)
                                   25.48210 (Kcal/Mol)
 Vibrational temperatures:   8054.31 17591.87
          (Kelvin)

 Zero-point correction=                           0.040608 (Hartree/Particle)
 Thermal correction to Energy=                    0.042969
 Thermal correction to Enthalpy=                  0.043913
 Thermal correction to Gibbs Free Energy=         0.022776
 Sum of electronic and zero-point Energies=           -100.515669
 Sum of electronic and thermal Energies=              -100.513309
 Sum of electronic and thermal Enthalpies=            -100.512364
 Sum of electronic and thermal Free Energies=         -100.533501

                     E (Thermal)             CV                S
                      KCal/Mol        Cal/Mol-Kelvin    Cal/Mol-Kelvin
 Total                   26.963              4.968             44.487
 Electronic               0.000              0.000              1.377
 Translational            0.889              2.981             35.068
 Rotational               0.592              1.987              8.041
 Vibrational             25.482              0.000              0.000

 Normal termination of Gaussian 16 at Fri Aug 22 15:43:03 2025.
