 Gaussian 16, Revision C.01,
 Gaussian 16:  ES64L-G16RevC.01  3-Jul-2019

 -----------------------------------------
 # sp b3lyp/6-311g** Force nosymm scf=(qc)
 -----------------------------------------

 -------------------
 Title Card Required
 -------------------
 Symbolic Z-matrix:
 Charge =  0 Multiplicity = 2

                          Input orientation:
 ---------------------------------------------------------------------
 Center     Atomic      Atomic             Coordinates (Angstroms)
 Number     Number       Type             X           Y           Z
 ---------------------------------------------------------------------
      1          1           0        0.000000    0.000000    0.000000
      2          1           0       -2.750000    0.000000    0.000000
      3          9           0        2.650000    0.000000    0.000000
 ---------------------------------------------------------------------

 SCF Done:  E(UB3LYP) =  -100.766569602     a.u. after   19 cycles

 Alpha  occ. eigenvalues --  -24.72585  -1.18745  -0.51694  -0.43415  -0.43415
 Alpha  occ. eigenvalues --   -0.33240
 Alpha virt. eigenvalues --   -0.10782   0.24697   0.33981   0.90183   0.93158
 Alpha virt. eigenvalues --    0.93158   1.06014   1.24339   1.24339   1.26030
 Alpha virt. eigenvalues --    1.39951   1.39951   1.42292   2.15328   2.35862

  Beta  occ. eigenvalues --  -24.69671  -1.10429  -0.40505  -0.40505  -0.34789
  Beta virt. eigenvalues --   -0.23893  -0.08553   0.25265   0.35744   0.94571
  Beta virt. eigenvalues --    0.94571   0.97955   1.09237   1.22644   1.22644
  Beta virt. eigenvalues --    1.26842   1.43346   1.43346   1.43924   2.15133

 Mulliken charges and spin densities:
               1          2
     1  H    0.064699  -0.907313
     2  H    0.004977   0.985516
     3  F   -0.069677   0.921796
 Sum of Mulliken charges =  -0.00000   1.00000

 Dipole moment (field-independent basis, Debye):
    X=             -1.0089    Y=             -0.0000    Z=             -0.0000  Tot=              1.0089
 Quadrupole moment (field-independent basis, Debye-Ang):
   XX=             -8.7610   YY=             -7.6104   ZZ=             -7.6104
   XY=              0.0000   XZ=             -0.0000   YZ=              0.0000

  Exact polarizability:      38.805       0.000       2.017      -0.000       0.000       2.017
 Approx polarizability:      42.210       0.000       1.919      -0.000      -0.000       1.919

 ******    2 imaginary frequencies (negative Signs) ******

                      1                      2                      3
                      A                      A                      A
 Frequencies --   -634.8837              -263.8922               245.5584
 Red. masses --      1.0274                 1.0858                 1.0184
 Frc consts  --      0.2440                 0.0446                 0.0362
 IR Inten    --     55.2242                11.3863                 3.6485

                      4
                      A
 Frequencies --    245.5584
 Red. masses --      1.0184
 Frc consts  --      0.0362
 IR Inten    --      3.6485

 - Thermochemistry -
 -------------------
 Temperature   298.150 Kelvin.  Pressure   1.00000 Atm.
 Atom     1 has atomic number  1 and mass   1.00783

 Molecular mass:    21.01405 amu.
 Principal axes and moments of inertia in atomic units:
                           1         2         3
     Eigenvalues --     0.00000 119.03577 119.03577
           X            1.00000  -0.00000   0.00000
           Y            0.00000   1.00000   0.00000
           Z            0.00000   0.00000   1.00000
 This molecule is a prolate symmetric top.
 Rotational symmetry number  1.
 Rotational temperature (Kelvin)      0.72763
 Rotational constant (GHZ):          15.161336
    2 imaginary frequencies ignored.
 Zero-point vibrational energy       2937.5 (Joules/Mol)
                                    0.70209 (Kcal/Mol)
 Warning -- explicit consideration of   2 degrees of freedom as
           vibrations may cause significant error
 Vibrational temperatures:    353.30   353.30
          (Kelvin)

 Zero-point correction=                           0.001119 (Hartree/Particle)
 Thermal correction to Energy=                    0.004465
 Thermal correction to Enthalpy=                  0.005409
 Thermal correction to Gibbs Free Energy=        -0.020206
 Sum of electronic and zero-point Energies=           -100.765451
 Sum of electronic and thermal Energies=              -100.762105
 Sum of electronic and thermal Enthalpies=            -100.761161
 Sum of electronic and thermal Free Energies=         -100.786776

                     E (Thermal)             CV                S
                      KCal/Mol        Cal/Mol-Kelvin    Cal/Mol-Kelvin
 Total                    2.802              8.508             53.911
 Electronic               0.000              0.000              1.377
 Translational            0.889              2.981             35.068
 Rotational               0.592              1.987             13.941
 Vibrational              1.320              3.540              3.524
 Vibration     1          0.660              1.770              1.762
 Vibration     2          0.660              1.770              1.762

 Normal termination of Gaussian 16 at Fri Aug 22 18:15:06 2025.
