 Gaussian 16, Revision C.01,
 Gaussian 16:  ES64L-G16RevC.01  3-Jul-2019

 -----------------------------------------
 # sp b3lyp/6-311g** Force nosymm scf=(qc)
 -----------------------------------------

 -------------------
 Title Card Required
 -------------------
 Symbolic Z-matrix:
 Charge =  0 Multiplicity = 2

                          Input orientation:
 ---------------------------------------------------------------------
 Center     Atomic      Atomic             Coordinates (Angstroms)
 Number     Number       Type             X           Y           Z
 ---------------------------------------------------------------------
      1          1           0        0.000000    0.000000    0.000000
      2          1           0       -3.150000    0.000000    0.000000
      3          9           0        1.900000    0.000000    0.000000
 ---------------------------------------------------------------------

 SCF Done:  E(UB3LYP) =  -100.795291908     a.u. after   13 cycles

 Alpha  occ. eigenvalues --  -24.67409  -1.13689  -0.46318  -0.39055  -0.39055
 Alpha  occ. eigenvalues --   -0.33922
 Alpha virt. eigenvalues --   -0.14354   0.22376   0.30951   0.90541   0.94888
 Alpha virt. eigenvalues --    0.94888   1.05838   1.23610   1.23610   1.24040
 Alpha virt. eigenvalues --    1.34467   1.34467   1.65300   2.14100   2.27926

  Beta  occ. eigenvalues --  -24.65232  -1.07641  -0.38573  -0.36918  -0.36918
  Beta virt. eigenvalues --   -0.20062  -0.07820   0.22803   0.37198   0.91571
  Beta virt. eigenvalues --    0.95221   0.95221   1.08189   1.22706   1.22706
  Beta virt. eigenvalues --    1.44352   1.44830   1.44830   1.59576   2.12558

 Mulliken charges and spin densities:
               1          2
     1  H    0.219113  -0.678874
     2  H    0.004306   0.994082
     3  F   -0.223419   0.684792
 Sum of Mulliken charges =   0.00000   1.00000

 Dipole moment (field-independent basis, Debye):
    X=             -2.1489    Y=              0.0000    Z=              0.0000  Tot=              2.1489
 Quadrupole moment (field-independent basis, Debye-Ang):
   XX=             -9.9722   YY=             -7.4721   ZZ=             -7.4721
   XY=             -0.0000   XZ=             -0.0000   YZ=              0.0000

  Exact polarizability:      26.920      -0.000       2.077      -0.000       0.000       2.077
 Approx polarizability:      38.269       0.000       1.964       0.000      -0.000       1.964

 ******    2 imaginary frequencies (negative Signs) ******

                      1                      2                      3
                      A                      A                      A
 Frequencies --  -1314.1583              -180.7536               557.9368
 Red. masses --      1.0561                 1.0554                 1.0251
 Frc consts  --      1.0746                 0.0203                 0.1880
 IR Inten    --    123.7892                 1.2904                43.6120

                      4
                      A
 Frequencies --    557.9368
 Red. masses --      1.0251
 Frc consts  --      0.1880
 IR Inten    --     43.6120

 - Thermochemistry -
 -------------------
 Temperature   298.150 Kelvin.  Pressure   1.00000 Atm.
 Atom     1 has atomic number  1 and mass   1.00783

 Molecular mass:    21.01405 amu.
 Principal axes and moments of inertia in atomic units:
                           1         2         3
     Eigenvalues --     0.00000  96.43879  96.43879
           X            1.00000  -0.00000   0.00000
           Y            0.00000   1.00000   0.00000
           Z            0.00000   0.00000   1.00000
 This molecule is a prolate symmetric top.
 Rotational symmetry number  1.
 Rotational temperature (Kelvin)      0.89812
 Rotational constant (GHZ):          18.713851
    2 imaginary frequencies ignored.
 Zero-point vibrational energy       6674.4 (Joules/Mol)
                                    1.59522 (Kcal/Mol)
 Warning -- explicit consideration of   2 degrees of freedom as
           vibrations may cause significant error
 Vibrational temperatures:    802.75   802.75
          (Kelvin)

 Zero-point correction=                           0.002542 (Hartree/Particle)
 Thermal correction to Energy=                    0.005272
 Thermal correction to Enthalpy=                  0.006216
 Thermal correction to Gibbs Free Energy=        -0.018027
 Sum of electronic and zero-point Energies=           -100.792750
 Sum of electronic and thermal Energies=              -100.790020
 Sum of electronic and thermal Enthalpies=            -100.789076
 Sum of electronic and thermal Free Energies=         -100.813319

                     E (Thermal)             CV                S
                      KCal/Mol        Cal/Mol-Kelvin    Cal/Mol-Kelvin
 Total                    3.308              7.213             51.024
 Electronic               0.000              0.000              1.377
 Translational            0.889              2.981             35.068
 Rotational               0.592              1.987             13.523
 Vibrational              1.827              2.245              1.056
 Vibration     1          0.913              1.122              0.528
 Vibration     2          0.913              1.122              0.528

 Normal termination of Gaussian 16 at Fri Aug 22 16:51:00 2025.
