 Gaussian 16, Revision C.01,
 Gaussian 16:  ES64L-G16RevC.01  3-Jul-2019

 -----------------------------------------
 # sp b3lyp/6-311g** Force nosymm scf=(qc)
 -----------------------------------------

 -------------------
 Title Card Required
 -------------------
 Symbolic Z-matrix:
 Charge =  0 Multiplicity = 2

                          Input orientation:
 ---------------------------------------------------------------------
 Center     Atomic      Atomic             Coordinates (Angstroms)
 Number     Number       Type             X           Y           Z
 ---------------------------------------------------------------------
      1          1           0        0.000000    0.000000    0.000000
      2          1           0       -0.650000    0.000000    0.000000
      3          9           0        1.550000    0.000000    0.000000
 ---------------------------------------------------------------------

 SCF Done:  E(UB3LYP) =  -100.926625357     a.u. after    7 cycles

 Alpha  occ. eigenvalues --  -24.72316  -1.19191  -0.57012  -0.44411  -0.43621
 Alpha  occ. eigenvalues --   -0.43621
 Alpha virt. eigenvalues --    0.10541   0.19788   0.47358   0.88748   0.88748
 Alpha virt. eigenvalues --    0.96906   1.09545   1.09545   1.30124   1.68132
 Alpha virt. eigenvalues --    1.86634   1.88173   1.88173   2.46413   3.49899

  Beta  occ. eigenvalues --  -24.69518  -1.11450  -0.49208  -0.40886  -0.40886
  Beta virt. eigenvalues --   -0.23694   0.11508   0.20558   0.49342   0.89956
  Beta virt. eigenvalues --    0.89956   1.03438   1.11346   1.11346   1.33863
  Beta virt. eigenvalues --    1.70654   1.87525   1.89141   1.89141   2.48618

 Mulliken charges and spin densities:
               1          2
     1  H    0.104852  -0.032904
     2  H    0.009593   0.182056
     3  F   -0.114444   0.850849
 Sum of Mulliken charges =   0.00000   1.00000

 Dipole moment (field-independent basis, Debye):
    X=             -0.8882    Y=             -0.0000    Z=             -0.0000  Tot=              0.8882
 Quadrupole moment (field-independent basis, Debye-Ang):
   XX=             -6.6150   YY=             -6.6870   ZZ=             -6.6870
   XY=              0.0000   XZ=             -0.0000   YZ=              0.0000

  Exact polarizability:      16.918      -0.000       2.237       0.000      -0.000       2.237
 Approx polarizability:      20.323       0.000       2.289      -0.000      -0.000       2.289

 ******    2 imaginary frequencies (negative Signs) ******

                      1                      2                      3
                      A                      A                      A
 Frequencies --  -2156.8798             -2156.8798               288.0919
 Red. masses --      1.0108                 1.0108                 1.1084
 Frc consts  --      2.7705                 2.7705                 0.0542
 IR Inten    --      0.0958                 0.0958                64.6790

                      4
                      A
 Frequencies --   5786.4263
 Red. masses --      1.0079
 Frc consts  --     19.8829
 IR Inten    --    535.7760

 - Thermochemistry -
 -------------------
 Temperature   298.150 Kelvin.  Pressure   1.00000 Atm.
 Atom     1 has atomic number  1 and mass   1.00783

 Molecular mass:    21.01405 amu.
 Principal axes and moments of inertia in atomic units:
                           1         2         3
     Eigenvalues --     0.00000  23.63853  23.63853
           X            1.00000  -0.00000   0.00000
           Y            0.00000   1.00000   0.00000
           Z            0.00000   0.00000   1.00000
 This molecule is a prolate symmetric top.
 Rotational symmetry number  1.
 Rotational temperature (Kelvin)      3.66410
 Rotational constant (GHZ):          76.347423
    2 imaginary frequencies ignored.
 Zero-point vibrational energy      36333.7 (Joules/Mol)
                                    8.68396 (Kcal/Mol)
 Warning -- explicit consideration of   1 degrees of freedom as
           vibrations may cause significant error
 Vibrational temperatures:    414.50  8325.38
          (Kelvin)

 Zero-point correction=                           0.013839 (Hartree/Particle)
 Thermal correction to Energy=                    0.016634
 Thermal correction to Enthalpy=                  0.017579
 Thermal correction to Gibbs Free Energy=        -0.005541
 Sum of electronic and zero-point Energies=           -100.912787
 Sum of electronic and thermal Energies=              -100.909991
 Sum of electronic and thermal Enthalpies=            -100.909047
 Sum of electronic and thermal Free Energies=         -100.932166

                     E (Thermal)             CV                S
                      KCal/Mol        Cal/Mol-Kelvin    Cal/Mol-Kelvin
 Total                   10.438              6.664             48.660
 Electronic               0.000              0.000              1.377
 Translational            0.889              2.981             35.068
 Rotational               0.592              1.987             10.729
 Vibrational              8.957              1.696              1.485
 Vibration     1          0.685              1.696              1.485

 Normal termination of Gaussian 16 at Fri Aug 22 16:27:05 2025.
