 Gaussian 16, Revision C.01,
 Gaussian 16:  ES64L-G16RevC.01  3-Jul-2019

 -----------------------------------------
 # sp b3lyp/6-311g** Force nosymm scf=(qc)
 -----------------------------------------

 -------------------
 Title Card Required
 -------------------
 Symbolic Z-matrix:
 Charge =  0 Multiplicity = 2

                          Input orientation:
 ---------------------------------------------------------------------
 Center     Atomic      Atomic             Coordinates (Angstroms)
 Number     Number       Type             X           Y           Z
 ---------------------------------------------------------------------
      1          1           0        0.000000    0.000000    0.000000
      2          1           0       -1.800000    0.000000    0.000000
      3          9           0        2.400000    0.000000    0.000000
 ---------------------------------------------------------------------

 SCF Done:  E(UB3LYP) =  -100.794882082     a.u. after   16 cycles

 Alpha  occ. eigenvalues --  -24.71561  -1.17778  -0.50691  -0.42551  -0.42551
 Alpha  occ. eigenvalues --   -0.35589
 Alpha virt. eigenvalues --   -0.12672   0.24301   0.31395   0.88641   0.93687
 Alpha virt. eigenvalues --    0.93687   1.03886   1.18138   1.21943   1.21943
 Alpha virt. eigenvalues --    1.34826   1.34826   1.59183   2.12485   2.37748

  Beta  occ. eigenvalues --  -24.68747  -1.09776  -0.39747  -0.39747  -0.35494
  Beta virt. eigenvalues --   -0.23608  -0.11812   0.26416   0.30843   0.94301
  Beta virt. eigenvalues --    0.95019   0.95019   1.07047   1.22030   1.22427
  Beta virt. eigenvalues --    1.22427   1.35873   1.35873   1.59724   2.13315

 Mulliken charges and spin densities:
               1          2
     1  H    0.053986  -0.648489
     2  H    0.039978   0.759829
     3  F   -0.093964   0.888660
 Sum of Mulliken charges =  -0.00000   1.00000

 Dipole moment (field-independent basis, Debye):
    X=             -1.4891    Y=             -0.0000    Z=             -0.0000  Tot=              1.4891
 Quadrupole moment (field-independent basis, Debye-Ang):
   XX=             -7.8990   YY=             -7.6616   ZZ=             -7.6616
   XY=             -0.0000   XZ=             -0.0000   YZ=             -0.0000

  Exact polarizability:      61.327      -0.000       2.020      -0.000       0.000       2.020
 Approx polarizability:      74.186       0.000       1.955       0.000       0.000       1.955

 ******    2 imaginary frequencies (negative Signs) ******

                      1                      2                      3
                      A                      A                      A
 Frequencies --  -1757.9013              -415.5125               755.0233
 Red. masses --      1.0089                 1.1072                 1.0148
 Frc consts  --      1.8370                 0.1126                 0.3409
 IR Inten    --    180.4773                51.4896                 1.0968

                      4
                      A
 Frequencies --    755.0233
 Red. masses --      1.0148
 Frc consts  --      0.3409
 IR Inten    --      1.0968

 - Thermochemistry -
 -------------------
 Temperature   298.150 Kelvin.  Pressure   1.00000 Atm.
 Atom     1 has atomic number  1 and mass   1.00783

 Molecular mass:    21.01405 amu.
 Principal axes and moments of inertia in atomic units:
                           1         2         3
     Eigenvalues --     0.00000  76.69804  76.69804
           X            1.00000  -0.00000   0.00000
           Y            0.00000   1.00000   0.00000
           Z            0.00000   0.00000   1.00000
 This molecule is a prolate symmetric top.
 Rotational symmetry number  1.
 Rotational temperature (Kelvin)      1.12928
 Rotational constant (GHZ):          23.530473
    2 imaginary frequencies ignored.
 Zero-point vibrational energy       9032.1 (Joules/Mol)
                                    2.15872 (Kcal/Mol)
 Vibrational temperatures:   1086.31  1086.31
          (Kelvin)

 Zero-point correction=                           0.003440 (Hartree/Particle)
 Thermal correction to Energy=                    0.005985
 Thermal correction to Enthalpy=                  0.006930
 Thermal correction to Gibbs Free Energy=        -0.016831
 Sum of electronic and zero-point Energies=           -100.791442
 Sum of electronic and thermal Energies=              -100.788897
 Sum of electronic and thermal Enthalpies=            -100.787952
 Sum of electronic and thermal Free Energies=         -100.811713

                     E (Thermal)             CV                S
                      KCal/Mol        Cal/Mol-Kelvin    Cal/Mol-Kelvin
 Total                    3.756              6.423             50.008
 Electronic               0.000              0.000              1.377
 Translational            0.889              2.981             35.068
 Rotational               0.592              1.987             13.068
 Vibrational              2.275              1.455              0.494

 Normal termination of Gaussian 16 at Fri Aug 22 17:31:57 2025.
