 Gaussian 16, Revision C.01,
 Gaussian 16:  ES64L-G16RevC.01  3-Jul-2019

 -----------------------------------------
 # sp b3lyp/6-311g** Force nosymm scf=(qc)
 -----------------------------------------

 -------------------
 Title Card Required
 -------------------
 Symbolic Z-matrix:
 Charge =  0 Multiplicity = 2

                          Input orientation:
 ---------------------------------------------------------------------
 Center     Atomic      Atomic             Coordinates (Angstroms)
 Number     Number       Type             X           Y           Z
 ---------------------------------------------------------------------
      1          1           0        0.000000    0.000000    0.000000
      2          1           0       -3.300000    0.000000    0.000000
      3          9           0        2.800000    0.000000    0.000000
 ---------------------------------------------------------------------

 SCF Done:  E(UB3LYP) =  -100.763038430     a.u. after   20 cycles

 Alpha  occ. eigenvalues --  -24.73286  -1.19402  -0.52402  -0.44005  -0.44005
 Alpha  occ. eigenvalues --   -0.32737
 Alpha virt. eigenvalues --   -0.09141   0.24045   0.35560   0.89918   0.92750
 Alpha virt. eigenvalues --    0.92750   1.05099   1.24780   1.24780   1.25122
 Alpha virt. eigenvalues --    1.42648   1.42648   1.43379   2.14970   2.38353

  Beta  occ. eigenvalues --  -24.70316  -1.10910  -0.41036  -0.41036  -0.34293
  Beta virt. eigenvalues --   -0.24309  -0.07011   0.24233   0.37524   0.94190
  Beta virt. eigenvalues --    0.94190   0.98174   1.08535   1.23036   1.23036
  Beta virt. eigenvalues --    1.24711   1.45335   1.45586   1.45586   2.14743

 Mulliken charges and spin densities:
               1          2
     1  H    0.053128  -0.936774
     2  H    0.001010   0.996602
     3  F   -0.054138   0.940172
 Sum of Mulliken charges =  -0.00000   1.00000

 Dipole moment (field-independent basis, Debye):
    X=             -0.7930    Y=             -0.0000    Z=             -0.0000  Tot=              0.7930
 Quadrupole moment (field-independent basis, Debye-Ang):
   XX=             -8.6774   YY=             -7.6020   ZZ=             -7.6020
   XY=             -0.0000   XZ=             -0.0000   YZ=             -0.0000

  Exact polarizability:      33.259      -0.000       2.023      -0.000      -0.000       2.023
 Approx polarizability:      36.747      -0.000       1.922      -0.000       0.000       1.922

 ******    2 imaginary frequencies (negative Signs) ******

                      1                      2                      3
                      A                      A                      A
 Frequencies --   -471.4547              -148.9098               173.6124
 Red. masses --      1.0458                 1.0659                 1.0201
 Frc consts  --      0.1370                 0.0139                 0.0181
 IR Inten    --     53.8996                 1.1811                 2.6308

                      4
                      A
 Frequencies --    173.6124
 Red. masses --      1.0201
 Frc consts  --      0.0181
 IR Inten    --      2.6308

 - Thermochemistry -
 -------------------
 Temperature   298.150 Kelvin.  Pressure   1.00000 Atm.
 Atom     1 has atomic number  1 and mass   1.00783

 Molecular mass:    21.01405 amu.
 Principal axes and moments of inertia in atomic units:
                           1         2         3
     Eigenvalues --     0.00000 148.46314 148.46314
           X            1.00000  -0.00000   0.00000
           Y            0.00000   1.00000   0.00000
           Z            0.00000   0.00000   1.00000
 This molecule is a prolate symmetric top.
 Rotational symmetry number  1.
 Rotational temperature (Kelvin)      0.58340
 Rotational constant (GHZ):          12.156157
    2 imaginary frequencies ignored.
 Zero-point vibrational energy       2076.9 (Joules/Mol)
                                    0.49638 (Kcal/Mol)
 Warning -- explicit consideration of   2 degrees of freedom as
           vibrations may cause significant error
 Vibrational temperatures:    249.79   249.79
          (Kelvin)

 Zero-point correction=                           0.000791 (Hartree/Particle)
 Thermal correction to Energy=                    0.004358
 Thermal correction to Enthalpy=                  0.005302
 Thermal correction to Gibbs Free Energy=        -0.021124
 Sum of electronic and zero-point Energies=           -100.762247
 Sum of electronic and thermal Energies=              -100.758680
 Sum of electronic and thermal Enthalpies=            -100.757736
 Sum of electronic and thermal Free Energies=         -100.784162

                     E (Thermal)             CV                S
                      KCal/Mol        Cal/Mol-Kelvin    Cal/Mol-Kelvin
 Total                    2.735              8.718             55.618
 Electronic               0.000              0.000              1.377
 Translational            0.889              2.981             35.068
 Rotational               0.592              1.987             14.380
 Vibrational              1.253              3.750              4.792
 Vibration     1          0.627              1.875              2.396
 Vibration     2          0.627              1.875              2.396

 Normal termination of Gaussian 16 at Fri Aug 22 18:44:24 2025.
