 Gaussian 16, Revision C.01,
 Gaussian 16:  ES64L-G16RevC.01  3-Jul-2019

 -----------------------------------------
 # sp b3lyp/6-311g** Force nosymm scf=(qc)
 -----------------------------------------

 -------------------
 Title Card Required
 -------------------
 Symbolic Z-matrix:
 Charge =  0 Multiplicity = 2

                          Input orientation:
 ---------------------------------------------------------------------
 Center     Atomic      Atomic             Coordinates (Angstroms)
 Number     Number       Type             X           Y           Z
 ---------------------------------------------------------------------
      1          1           0        0.000000    0.000000    0.000000
      2          1           0       -2.750000    0.000000    0.000000
      3          9           0        3.700000    0.000000    0.000000
 ---------------------------------------------------------------------

 SCF Done:  E(UB3LYP) =  -100.760735901     a.u. after   28 cycles

 Alpha  occ. eigenvalues --  -24.75686  -1.21627  -0.54810  -0.46020  -0.46020
 Alpha  occ. eigenvalues --   -0.32470
 Alpha virt. eigenvalues --   -0.08539   0.25420   0.35410   0.87059   0.91291
 Alpha virt. eigenvalues --    0.91291   1.01385   1.25105   1.25105   1.26345
 Alpha virt. eigenvalues --    1.43049   1.43049   1.43515   2.16019   2.38425

  Beta  occ. eigenvalues --  -24.72554  -1.12623  -0.42880  -0.42880  -0.32728
  Beta virt. eigenvalues --   -0.25643  -0.08184   0.25220   0.35931   0.92786
  Beta virt. eigenvalues --    0.92786   0.96331   1.05470   1.24811   1.24811
  Beta virt. eigenvalues --    1.26013   1.43592   1.43592   1.44057   2.16234

 Mulliken charges and spin densities:
               1          2
     1  H    0.005273  -0.978276
     2  H    0.000835   0.985113
     3  F   -0.006108   0.993163
 Sum of Mulliken charges =   0.00000   1.00000

 Dipole moment (field-independent basis, Debye):
    X=             -0.1273    Y=             -0.0000    Z=              0.0000  Tot=              0.1273
 Quadrupole moment (field-independent basis, Debye-Ang):
   XX=             -6.9948   YY=             -7.6480   ZZ=             -7.6480
   XY=              0.0000   XZ=             -0.0000   YZ=              0.0000

  Exact polarizability:      23.010      -0.000       2.022       0.000      -0.000       2.022
 Approx polarizability:      16.997       0.000       1.932      -0.000      -0.000       1.932

 ******    2 imaginary frequencies (negative Signs) ******

                      1                      2                      3
                      A                      A                      A
 Frequencies --   -472.0619              -108.2817               170.0306
 Red. masses --      1.0081                 1.1081                 1.0147
 Frc consts  --      0.1324                 0.0077                 0.0173
 IR Inten    --      2.7206                 2.5411                 0.0235

                      4
                      A
 Frequencies --    170.0306
 Red. masses --      1.0147
 Frc consts  --      0.0173
 IR Inten    --      0.0235

 - Thermochemistry -
 -------------------
 Temperature   298.150 Kelvin.  Pressure   1.00000 Atm.
 Atom     1 has atomic number  1 and mass   1.00783

 Molecular mass:    21.01405 amu.
 Principal axes and moments of inertia in atomic units:
                           1         2         3
     Eigenvalues --     0.00000 181.21578 181.21578
           X            1.00000  -0.00000   0.00000
           Y            0.00000   1.00000   0.00000
           Z            0.00000   0.00000   1.00000
 This molecule is a prolate symmetric top.
 Rotational symmetry number  1.
 Rotational temperature (Kelvin)      0.47796
 Rotational constant (GHZ):           9.959073
    2 imaginary frequencies ignored.
 Zero-point vibrational energy       2034.0 (Joules/Mol)
                                    0.48614 (Kcal/Mol)
 Warning -- explicit consideration of   2 degrees of freedom as
           vibrations may cause significant error
 Vibrational temperatures:    244.64   244.64
          (Kelvin)

 Zero-point correction=                           0.000775 (Hartree/Particle)
 Thermal correction to Energy=                    0.004354
 Thermal correction to Enthalpy=                  0.005298
 Thermal correction to Gibbs Free Energy=        -0.021353
 Sum of electronic and zero-point Energies=           -100.759961
 Sum of electronic and thermal Energies=              -100.756382
 Sum of electronic and thermal Enthalpies=            -100.755438
 Sum of electronic and thermal Free Energies=         -100.782089

                     E (Thermal)             CV                S
                      KCal/Mol        Cal/Mol-Kelvin    Cal/Mol-Kelvin
 Total                    2.732              8.727             56.092
 Electronic               0.000              0.000              1.377
 Translational            0.889              2.981             35.068
 Rotational               0.592              1.987             14.777
 Vibrational              1.251              3.759              4.870
 Vibration     1          0.625              1.879              2.435
 Vibration     2          0.625              1.879              2.435

 Normal termination of Gaussian 16 at Sat Aug 23 00:03:45 2025.
