 Gaussian 16, Revision C.01,
 Gaussian 16:  ES64L-G16RevC.01  3-Jul-2019

 -----------------------------------------
 # sp b3lyp/6-311g** Force nosymm scf=(qc)
 -----------------------------------------

 -------------------
 Title Card Required
 -------------------
 Symbolic Z-matrix:
 Charge =  0 Multiplicity = 2

                          Input orientation:
 ---------------------------------------------------------------------
 Center     Atomic      Atomic             Coordinates (Angstroms)
 Number     Number       Type             X           Y           Z
 ---------------------------------------------------------------------
      1          1           0        0.000000    0.000000    0.000000
      2          1           0       -2.500000    0.000000    0.000000
      3          9           0        2.000000    0.000000    0.000000
 ---------------------------------------------------------------------

 SCF Done:  E(UB3LYP) =  -100.790669762     a.u. after   12 cycles

 Alpha  occ. eigenvalues --  -24.68119  -1.14437  -0.47111  -0.39652  -0.39652
 Alpha  occ. eigenvalues --   -0.34870
 Alpha virt. eigenvalues --   -0.13858   0.23948   0.30891   0.89660   0.94956
 Alpha virt. eigenvalues --    0.94956   1.06213   1.22777   1.22777   1.25769
 Alpha virt. eigenvalues --    1.34941   1.34941   1.60221   2.13686   2.28800

  Beta  occ. eigenvalues --  -24.65750  -1.07813  -0.37724  -0.37317  -0.37317
  Beta virt. eigenvalues --   -0.20831  -0.09900   0.24849   0.34643   0.91806
  Beta virt. eigenvalues --    0.95615   0.95615   1.08714   1.22357   1.22357
  Beta virt. eigenvalues --    1.41183   1.41183   1.42579   1.54037   2.13175

 Mulliken charges and spin densities:
               1          2
     1  H    0.174740  -0.714988
     2  H    0.017913   0.969872
     3  F   -0.192653   0.745116
 Sum of Mulliken charges =   0.00000   1.00000

 Dipole moment (field-independent basis, Debye):
    X=             -2.1203    Y=              0.0000    Z=             -0.0000  Tot=              2.1203
 Quadrupole moment (field-independent basis, Debye-Ang):
   XX=             -9.4113   YY=             -7.5221   ZZ=             -7.5221
   XY=             -0.0000   XZ=              0.0000   YZ=              0.0000

  Exact polarizability:      37.550      -0.000       2.058      -0.000       0.000       2.058
 Approx polarizability:      45.639      -0.000       1.951      -0.000      -0.000       1.951

 ******    2 imaginary frequencies (negative Signs) ******

                      1                      2                      3
                      A                      A                      A
 Frequencies --  -1216.0954              -394.0441               509.9238
 Red. masses --      1.0431                 1.0687                 1.0209
 Frc consts  --      0.9089                 0.0978                 0.1564
 IR Inten    --     94.4456                15.2831                25.1144

                      4
                      A
 Frequencies --    509.9238
 Red. masses --      1.0209
 Frc consts  --      0.1564
 IR Inten    --     25.1144

 - Thermochemistry -
 -------------------
 Temperature   298.150 Kelvin.  Pressure   1.00000 Atm.
 Atom     1 has atomic number  1 and mass   1.00783

 Molecular mass:    21.01405 amu.
 Principal axes and moments of inertia in atomic units:
                           1         2         3
     Eigenvalues --     0.00000  79.98331  79.98331
           X            1.00000  -0.00000   0.00000
           Y            0.00000   1.00000   0.00000
           Z            0.00000   0.00000   1.00000
 This molecule is a prolate symmetric top.
 Rotational symmetry number  1.
 Rotational temperature (Kelvin)      1.08290
 Rotational constant (GHZ):          22.563971
    2 imaginary frequencies ignored.
 Zero-point vibrational energy       6100.0 (Joules/Mol)
                                    1.45795 (Kcal/Mol)
 Warning -- explicit consideration of   2 degrees of freedom as
           vibrations may cause significant error
 Vibrational temperatures:    733.67   733.67
          (Kelvin)

 Zero-point correction=                           0.002323 (Hartree/Particle)
 Thermal correction to Energy=                    0.005118
 Thermal correction to Enthalpy=                  0.006062
 Thermal correction to Gibbs Free Energy=        -0.018105
 Sum of electronic and zero-point Energies=           -100.788346
 Sum of electronic and thermal Energies=              -100.785552
 Sum of electronic and thermal Enthalpies=            -100.784608
 Sum of electronic and thermal Free Energies=         -100.808775

                     E (Thermal)             CV                S
                      KCal/Mol        Cal/Mol-Kelvin    Cal/Mol-Kelvin
 Total                    3.211              7.424             50.864
 Electronic               0.000              0.000              1.377
 Translational            0.889              2.981             35.068
 Rotational               0.592              1.987             13.151
 Vibrational              1.730              2.456              1.268
 Vibration     1          0.865              1.228              0.634
 Vibration     2          0.865              1.228              0.634

 Normal termination of Gaussian 16 at Fri Aug 22 16:56:55 2025.
