 Gaussian 16, Revision C.01,
 Gaussian 16:  ES64L-G16RevC.01  3-Jul-2019

 -----------------------------------------
 # sp b3lyp/6-311g** Force nosymm scf=(qc)
 -----------------------------------------

 -------------------
 Title Card Required
 -------------------
 Symbolic Z-matrix:
 Charge =  0 Multiplicity = 2

                          Input orientation:
 ---------------------------------------------------------------------
 Center     Atomic      Atomic             Coordinates (Angstroms)
 Number     Number       Type             X           Y           Z
 ---------------------------------------------------------------------
      1          1           0        0.000000    0.000000    0.000000
      2          1           0       -3.800000    0.000000    0.000000
      3          9           0        2.700000    0.000000    0.000000
 ---------------------------------------------------------------------

 SCF Done:  E(UB3LYP) =  -100.763853495     a.u. after   19 cycles

 Alpha  occ. eigenvalues --  -24.72806  -1.18956  -0.51920  -0.43604  -0.43604
 Alpha  occ. eigenvalues --   -0.32649
 Alpha virt. eigenvalues --   -0.09079   0.23645   0.35810   0.89918   0.93026
 Alpha virt. eigenvalues --    0.93026   1.05547   1.24852   1.24852   1.24897
 Alpha virt. eigenvalues --    1.42221   1.42221   1.44167   2.14311   2.39112

  Beta  occ. eigenvalues --  -24.69873  -1.10580  -0.40674  -0.40674  -0.34605
  Beta virt. eigenvalues --   -0.24015  -0.06210   0.23814   0.38093   0.94450
  Beta virt. eigenvalues --    0.94450   0.97701   1.08597   1.22719   1.22719
  Beta virt. eigenvalues --    1.25555   1.46311   1.46511   1.46511   2.13462

 Mulliken charges and spin densities:
               1          2
     1  H    0.064606  -0.927087
     2  H    0.000317   0.999021
     3  F   -0.064923   0.928066
 Sum of Mulliken charges =  -0.00000   1.00000

 Dipole moment (field-independent basis, Debye):
    X=             -0.9024    Y=              0.0000    Z=              0.0000  Tot=              0.9024
 Quadrupole moment (field-independent basis, Debye-Ang):
   XX=             -8.9533   YY=             -7.5874   ZZ=             -7.5874
   XY=              0.0000   XZ=              0.0000   YZ=             -0.0000

  Exact polarizability:      31.247       0.000       2.025       0.000      -0.000       2.025
 Approx polarizability:      36.973       0.000       1.922       0.000       0.000       1.922

 ******    2 imaginary frequencies (negative Signs) ******

                      1                      2                      3
                      A                      A                      A
 Frequencies --   -498.5063               -86.1150               185.7183
 Red. masses --      1.0551                 1.0564                 1.0226
 Frc consts  --      0.1545                 0.0046                 0.0208
 IR Inten    --     63.1991                 0.0981                 4.0430

                      4
                      A
 Frequencies --    185.7183
 Red. masses --      1.0226
 Frc consts  --      0.0208
 IR Inten    --      4.0430

 - Thermochemistry -
 -------------------
 Temperature   298.150 Kelvin.  Pressure   1.00000 Atm.
 Atom     1 has atomic number  1 and mass   1.00783

 Molecular mass:    21.01405 amu.
 Principal axes and moments of inertia in atomic units:
                           1         2         3
     Eigenvalues --     0.00000 163.68543 163.68543
           X            1.00000  -0.00000   0.00000
           Y            0.00000   1.00000   0.00000
           Z            0.00000   0.00000   1.00000
 This molecule is a prolate symmetric top.
 Rotational symmetry number  1.
 Rotational temperature (Kelvin)      0.52915
 Rotational constant (GHZ):          11.025668
    2 imaginary frequencies ignored.
 Zero-point vibrational energy       2221.7 (Joules/Mol)
                                    0.53100 (Kcal/Mol)
 Warning -- explicit consideration of   2 degrees of freedom as
           vibrations may cause significant error
 Vibrational temperatures:    267.21   267.21
          (Kelvin)

 Zero-point correction=                           0.000846 (Hartree/Particle)
 Thermal correction to Energy=                    0.004374
 Thermal correction to Enthalpy=                  0.005318
 Thermal correction to Gibbs Free Energy=        -0.021081
 Sum of electronic and zero-point Energies=           -100.763007
 Sum of electronic and thermal Energies=              -100.759480
 Sum of electronic and thermal Enthalpies=            -100.758536
 Sum of electronic and thermal Free Energies=         -100.784934

                     E (Thermal)             CV                S
                      KCal/Mol        Cal/Mol-Kelvin    Cal/Mol-Kelvin
 Total                    2.744              8.687             55.560
 Electronic               0.000              0.000              1.377
 Translational            0.889              2.981             35.068
 Rotational               0.592              1.987             14.574
 Vibrational              1.263              3.719              4.540
 Vibration     1          0.632              1.859              2.270
 Vibration     2          0.632              1.859              2.270

 Normal termination of Gaussian 16 at Fri Aug 22 18:27:11 2025.
