 Gaussian 16, Revision C.01,
 Gaussian 16:  ES64L-G16RevC.01  3-Jul-2019

 -----------------------------------------
 # sp b3lyp/6-311g** Force nosymm scf=(qc)
 -----------------------------------------

 -------------------
 Title Card Required
 -------------------
 Symbolic Z-matrix:
 Charge =  0 Multiplicity = 2

                          Input orientation:
 ---------------------------------------------------------------------
 Center     Atomic      Atomic             Coordinates (Angstroms)
 Number     Number       Type             X           Y           Z
 ---------------------------------------------------------------------
      1          1           0        0.000000    0.000000    0.000000
      2          1           0       -3.850000    0.000000    0.000000
      3          9           0        3.450000    0.000000    0.000000
 ---------------------------------------------------------------------

 SCF Done:  E(UB3LYP) =  -100.759020536     a.u. after   26 cycles

 Alpha  occ. eigenvalues --  -24.75290  -1.21260  -0.54412  -0.45685  -0.45685
 Alpha  occ. eigenvalues --   -0.32313
 Alpha virt. eigenvalues --   -0.06529   0.24107   0.37130   0.87746   0.91541
 Alpha virt. eigenvalues --    0.91541   1.01949   1.25183   1.25183   1.25222
 Alpha virt. eigenvalues --    1.45936   1.45936   1.46390   2.14613   2.42117

  Beta  occ. eigenvalues --  -24.72182  -1.12332  -0.42570  -0.42570  -0.32876
  Beta virt. eigenvalues --   -0.25432  -0.05987   0.23841   0.38166   0.93028
  Beta virt. eigenvalues --    0.93028   0.96845   1.05934   1.24540   1.24540
  Beta virt. eigenvalues --    1.24565   1.46506   1.46649   1.46649   2.14797

 Mulliken charges and spin densities:
               1          2
     1  H    0.013237  -0.984503
     2  H    0.000079   0.999107
     3  F   -0.013317   0.985396
 Sum of Mulliken charges =  -0.00000   1.00000

 Dipole moment (field-independent basis, Debye):
    X=             -0.2377    Y=             -0.0000    Z=              0.0000  Tot=              0.2377
 Quadrupole moment (field-independent basis, Debye-Ang):
   XX=             -7.5008   YY=             -7.6172   ZZ=             -7.6172
   XY=             -0.0000   XZ=             -0.0000   YZ=             -0.0000

  Exact polarizability:      24.182      -0.000       2.034      -0.000      -0.000       2.034
 Approx polarizability:      19.649      -0.000       1.933      -0.000       0.000       1.933

 ******    2 imaginary frequencies (negative Signs) ******

                      1                      2                      3
                      A                      A                      A
 Frequencies --   -228.6817               -77.6609                66.9925
 Red. masses --      1.0436                 1.0682                 1.0193
 Frc consts  --      0.0322                 0.0038                 0.0027
 IR Inten    --     13.2908                 0.3029                 0.1606

                      4
                      A
 Frequencies --     66.9926
 Red. masses --      1.0193
 Frc consts  --      0.0027
 IR Inten    --      0.1606

 - Thermochemistry -
 -------------------
 Temperature   298.150 Kelvin.  Pressure   1.00000 Atm.
 Atom     1 has atomic number  1 and mass   1.00783

 Molecular mass:    21.01405 amu.
 Principal axes and moments of inertia in atomic units:
                           1         2         3
     Eigenvalues --     0.00000 214.68148 214.68148
           X            1.00000  -0.00000   0.00000
           Y            0.00000   1.00000   0.00000
           Z            0.00000   0.00000   1.00000
 This molecule is a prolate symmetric top.
 Rotational symmetry number  1.
 Rotational temperature (Kelvin)      0.40345
 Rotational constant (GHZ):           8.406600
    2 imaginary frequencies ignored.
 Zero-point vibrational energy        801.4 (Joules/Mol)
                                    0.19154 (Kcal/Mol)
 Warning -- explicit consideration of   2 degrees of freedom as
           vibrations may cause significant error
 Vibrational temperatures:     96.39    96.39
          (Kelvin)

 Zero-point correction=                           0.000305 (Hartree/Particle)
 Thermal correction to Energy=                    0.004265
 Thermal correction to Enthalpy=                  0.005209
 Thermal correction to Gibbs Free Energy=        -0.023317
 Sum of electronic and zero-point Energies=           -100.758715
 Sum of electronic and thermal Energies=              -100.754755
 Sum of electronic and thermal Enthalpies=            -100.753811
 Sum of electronic and thermal Free Energies=         -100.782337

                     E (Thermal)             CV                S
                      KCal/Mol        Cal/Mol-Kelvin    Cal/Mol-Kelvin
 Total                    2.676              8.908             60.038
 Electronic               0.000              0.000              1.377
 Translational            0.889              2.981             35.068
 Rotational               0.592              1.987             15.113
 Vibrational              1.195              3.940              8.480
 Vibration     1          0.598              1.970              4.240
 Vibration     2          0.598              1.970              4.240

 Normal termination of Gaussian 16 at Fri Aug 22 21:43:49 2025.
