 Gaussian 16, Revision C.01,
 Gaussian 16:  ES64L-G16RevC.01  3-Jul-2019

 -----------------------------------------
 # sp b3lyp/6-311g** Force nosymm scf=(qc)
 -----------------------------------------

 -------------------
 Title Card Required
 -------------------
 Symbolic Z-matrix:
 Charge =  0 Multiplicity = 2

                          Input orientation:
 ---------------------------------------------------------------------
 Center     Atomic      Atomic             Coordinates (Angstroms)
 Number     Number       Type             X           Y           Z
 ---------------------------------------------------------------------
      1          1           0        0.000000    0.000000    0.000000
      2          1           0       -3.950000    0.000000    0.000000
      3          9           0        3.700000    0.000000    0.000000
 ---------------------------------------------------------------------

 SCF Done:  E(UB3LYP) =  -100.758594452     a.u. after   30 cycles

 Alpha  occ. eigenvalues --  -24.75653  -1.21596  -0.54776  -0.45991  -0.45991
 Alpha  occ. eigenvalues --   -0.32257
 Alpha virt. eigenvalues --   -0.05936   0.24173   0.37660   0.87054   0.91315
 Alpha virt. eigenvalues --    0.91315   1.01404   1.25238   1.25238   1.25263
 Alpha virt. eigenvalues --    1.46713   1.46713   1.47571   2.14592   2.42726

  Beta  occ. eigenvalues --  -24.72521  -1.12595  -0.42852  -0.42852  -0.32606
  Beta virt. eigenvalues --   -0.25618  -0.05847   0.23927   0.38207   0.92809
  Beta virt. eigenvalues --    0.92809   0.96308   1.05475   1.24848   1.24848
  Beta virt. eigenvalues --    1.24856   1.46671   1.46770   1.46770   2.14648

 Mulliken charges and spin densities:
               1          2
     1  H    0.006503  -0.992089
     2  H    0.000035   0.999293
     3  F   -0.006539   0.992795
 Sum of Mulliken charges =  -0.00000   1.00000

 Dipole moment (field-independent basis, Debye):
    X=             -0.1253    Y=             -0.0000    Z=             -0.0000  Tot=              0.1253
 Quadrupole moment (field-independent basis, Debye-Ang):
   XX=             -7.1709   YY=             -7.6185   ZZ=             -7.6185
   XY=             -0.0000   XZ=             -0.0000   YZ=             -0.0000

  Exact polarizability:      17.372       0.000       2.029       0.000      -0.000       2.029
 Approx polarizability:      12.973      -0.000       1.936      -0.000       0.000       1.936

 ******    2 imaginary frequencies (negative Signs) ******

                      1                      2                      3
                      A                      A                      A
 Frequencies --   -175.4466               -67.1134                55.2951
 Red. masses --      1.0375                 1.0747                 1.0188
 Frc consts  --      0.0188                 0.0029                 0.0018
 IR Inten    --      5.0399                 0.2409                 0.0439

                      4
                      A
 Frequencies --     55.2953
 Red. masses --      1.0188
 Frc consts  --      0.0018
 IR Inten    --      0.0439

 - Thermochemistry -
 -------------------
 Temperature   298.150 Kelvin.  Pressure   1.00000 Atm.
 Atom     1 has atomic number  1 and mass   1.00783

 Molecular mass:    21.01405 amu.
 Principal axes and moments of inertia in atomic units:
                           1         2         3
     Eigenvalues --     0.00000 237.65775 237.65775
           X            1.00000  -0.00000   0.00000
           Y            0.00000   1.00000   0.00000
           Z            0.00000   0.00000   1.00000
 This molecule is a prolate symmetric top.
 Rotational symmetry number  1.
 Rotational temperature (Kelvin)      0.36445
 Rotational constant (GHZ):           7.593866
    2 imaginary frequencies ignored.
 Zero-point vibrational energy        661.5 (Joules/Mol)
                                    0.15810 (Kcal/Mol)
 Warning -- explicit consideration of   2 degrees of freedom as
           vibrations may cause significant error
 Vibrational temperatures:     79.56    79.56
          (Kelvin)

 Zero-point correction=                           0.000252 (Hartree/Particle)
 Thermal correction to Energy=                    0.004260
 Thermal correction to Enthalpy=                  0.005204
 Thermal correction to Gibbs Free Energy=        -0.023778
 Sum of electronic and zero-point Energies=           -100.758343
 Sum of electronic and thermal Energies=              -100.754334
 Sum of electronic and thermal Enthalpies=            -100.753390
 Sum of electronic and thermal Free Energies=         -100.782372

                     E (Thermal)             CV                S
                      KCal/Mol        Cal/Mol-Kelvin    Cal/Mol-Kelvin
 Total                    2.673              8.919             60.998
 Electronic               0.000              0.000              1.377
 Translational            0.889              2.981             35.068
 Rotational               0.592              1.987             15.315
 Vibrational              1.192              3.951              9.237
 Vibration     1          0.596              1.975              4.618
 Vibration     2          0.596              1.975              4.618

 Normal termination of Gaussian 16 at Sat Aug 23 00:05:33 2025.
