 Gaussian 16, Revision C.01,
 Gaussian 16:  ES64L-G16RevC.01  3-Jul-2019

 -----------------------------------------
 # sp b3lyp/6-311g** Force nosymm scf=(qc)
 -----------------------------------------

 -------------------
 Title Card Required
 -------------------
 Symbolic Z-matrix:
 Charge =  0 Multiplicity = 2

                          Input orientation:
 ---------------------------------------------------------------------
 Center     Atomic      Atomic             Coordinates (Angstroms)
 Number     Number       Type             X           Y           Z
 ---------------------------------------------------------------------
      1          1           0        0.000000    0.000000    0.000000
      2          1           0       -2.650000    0.000000    0.000000
      3          9           0        2.000000    0.000000    0.000000
 ---------------------------------------------------------------------

 SCF Done:  E(UB3LYP) =  -100.789512465     a.u. after   12 cycles

 Alpha  occ. eigenvalues --  -24.68156  -1.14473  -0.47142  -0.39688  -0.39688
 Alpha  occ. eigenvalues --   -0.34527
 Alpha virt. eigenvalues --   -0.13815   0.23695   0.31055   0.89569   0.94925
 Alpha virt. eigenvalues --    0.94925   1.06171   1.23075   1.23075   1.25143
 Alpha virt. eigenvalues --    1.35135   1.35135   1.60400   2.14118   2.29192

  Beta  occ. eigenvalues --  -24.65787  -1.07849  -0.37794  -0.37352  -0.37352
  Beta virt. eigenvalues --   -0.20798  -0.09329   0.24411   0.35337   0.91533
  Beta virt. eigenvalues --    0.95574   0.95574   1.08599   1.22224   1.22224
  Beta virt. eigenvalues --    1.42319   1.42319   1.42739   1.54189   2.13193

 Mulliken charges and spin densities:
               1          2
     1  H    0.180127  -0.724786
     2  H    0.012833   0.979546
     3  F   -0.192960   0.745240
 Sum of Mulliken charges =   0.00000   1.00000

 Dipole moment (field-independent basis, Debye):
    X=             -2.0710    Y=             -0.0000    Z=             -0.0000  Tot=              2.0710
 Quadrupole moment (field-independent basis, Debye-Ang):
   XX=             -9.5629   YY=             -7.5142   ZZ=             -7.5142
   XY=             -0.0000   XZ=             -0.0000   YZ=             -0.0000

  Exact polarizability:      34.525      -0.000       2.059       0.000      -0.000       2.059
 Approx polarizability:      43.324      -0.000       1.949       0.000       0.000       1.949

 ******    2 imaginary frequencies (negative Signs) ******

                      1                      2                      3
                      A                      A                      A
 Frequencies --  -1181.6784              -332.9887               495.9753
 Red. masses --      1.0480                 1.0636                 1.0217
 Frc consts  --      0.8622                 0.0695                 0.1481
 IR Inten    --    102.5711                 9.1939                27.6908

                      4
                      A
 Frequencies --    495.9753
 Red. masses --      1.0217
 Frc consts  --      0.1481
 IR Inten    --     27.6908

 - Thermochemistry -
 -------------------
 Temperature   298.150 Kelvin.  Pressure   1.00000 Atm.
 Atom     1 has atomic number  1 and mass   1.00783

 Molecular mass:    21.01405 amu.
 Principal axes and moments of inertia in atomic units:
                           1         2         3
     Eigenvalues --     0.00000  84.58249  84.58249
           X            1.00000  -0.00000   0.00000
           Y            0.00000   1.00000   0.00000
           Z            0.00000   0.00000   1.00000
 This molecule is a prolate symmetric top.
 Rotational symmetry number  1.
 Rotational temperature (Kelvin)      1.02402
 Rotational constant (GHZ):          21.337055
    2 imaginary frequencies ignored.
 Zero-point vibrational energy       5933.2 (Joules/Mol)
                                    1.41806 (Kcal/Mol)
 Warning -- explicit consideration of   2 degrees of freedom as
           vibrations may cause significant error
 Vibrational temperatures:    713.60   713.60
          (Kelvin)

 Zero-point correction=                           0.002260 (Hartree/Particle)
 Thermal correction to Energy=                    0.005074
 Thermal correction to Enthalpy=                  0.006019
 Thermal correction to Gibbs Free Energy=        -0.018234
 Sum of electronic and zero-point Energies=           -100.787253
 Sum of electronic and thermal Energies=              -100.784438
 Sum of electronic and thermal Enthalpies=            -100.783494
 Sum of electronic and thermal Free Energies=         -100.807747

                     E (Thermal)             CV                S
                      KCal/Mol        Cal/Mol-Kelvin    Cal/Mol-Kelvin
 Total                    3.184              7.486             51.044
 Electronic               0.000              0.000              1.377
 Translational            0.889              2.981             35.068
 Rotational               0.592              1.987             13.262
 Vibrational              1.703              2.518              1.337
 Vibration     1          0.852              1.259              0.668
 Vibration     2          0.852              1.259              0.668

 Normal termination of Gaussian 16 at Fri Aug 22 16:57:03 2025.
