 Gaussian 16, Revision C.01,
 Gaussian 16:  ES64L-G16RevC.01  3-Jul-2019

 -----------------------------------------
 # sp b3lyp/6-311g** Force nosymm scf=(qc)
 -----------------------------------------

 -------------------
 Title Card Required
 -------------------
 Symbolic Z-matrix:
 Charge =  0 Multiplicity = 2

                          Input orientation:
 ---------------------------------------------------------------------
 Center     Atomic      Atomic             Coordinates (Angstroms)
 Number     Number       Type             X           Y           Z
 ---------------------------------------------------------------------
      1          1           0        0.000000    0.000000    0.000000
      2          1           0       -1.600000    0.000000    0.000000
      3          9           0        2.850000    0.000000    0.000000
 ---------------------------------------------------------------------

 SCF Done:  E(UB3LYP) =  -100.807770511     a.u. after   37 cycles

 Alpha  occ. eigenvalues --  -24.74525  -1.20554  -0.53661  -0.45055  -0.45055
 Alpha  occ. eigenvalues --   -0.34635
 Alpha virt. eigenvalues --   -0.11207   0.24584   0.30298   0.89929   0.91966
 Alpha virt. eigenvalues --    0.91966   1.04123   1.07037   1.21004   1.21004
 Alpha virt. eigenvalues --    1.38228   1.38228   1.73517   2.18126   2.44173

  Beta  occ. eigenvalues --  -24.71487  -1.11843  -0.42014  -0.42014  -0.34384
  Beta virt. eigenvalues --   -0.25274  -0.10836   0.25312   0.30437   0.93424
  Beta virt. eigenvalues --    0.93424   0.98207   1.05691   1.10127   1.21298
  Beta virt. eigenvalues --    1.21298   1.38534   1.38534   1.73986   2.19026

 Mulliken charges and spin densities:
               1          2
     1  H    0.007052  -0.459236
     2  H    0.024408   0.496798
     3  F   -0.031460   0.962438
 Sum of Mulliken charges =   0.00000   1.00000

 Dipole moment (field-independent basis, Debye):
    X=             -0.6430    Y=             -0.0000    Z=              0.0000  Tot=              0.6430
 Quadrupole moment (field-independent basis, Debye-Ang):
   XX=             -6.6274   YY=             -7.7315   ZZ=             -7.7315
   XY=             -0.0000   XZ=              0.0000   YZ=             -0.0000

  Exact polarizability:      58.995      -0.000       2.029       0.000      -0.000       2.029
 Approx polarizability:      72.718      -0.000       1.998       0.000       0.000       1.998

 ******    2 imaginary frequencies (negative Signs) ******

                      1                      2                      3
                      A                      A                      A
 Frequencies --  -2056.3509              -238.0727              1028.3279
 Red. masses --      1.0080                 1.1084                 1.0125
 Frc consts  --      2.5112                 0.0370                 0.6308
 IR Inten    --    235.8993                27.6240                 0.0054

                      4
                      A
 Frequencies --   1028.3279
 Red. masses --      1.0125
 Frc consts  --      0.6308
 IR Inten    --      0.0054

 - Thermochemistry -
 -------------------
 Temperature   298.150 Kelvin.  Pressure   1.00000 Atm.
 Atom     1 has atomic number  1 and mass   1.00783

 Molecular mass:    21.01405 amu.
 Principal axes and moments of inertia in atomic units:
                           1         2         3
     Eigenvalues --     0.00000  91.30409  91.30409
           X            1.00000  -0.00000   0.00000
           Y            0.00000   1.00000   0.00000
           Z            0.00000   0.00000   1.00000
 This molecule is a prolate symmetric top.
 Rotational symmetry number  1.
 Rotational temperature (Kelvin)      0.94863
 Rotational constant (GHZ):          19.766269
    2 imaginary frequencies ignored.
 Zero-point vibrational energy      12301.5 (Joules/Mol)
                                    2.94014 (Kcal/Mol)
 Vibrational temperatures:   1479.53  1479.53
          (Kelvin)

 Zero-point correction=                           0.004685 (Hartree/Particle)
 Thermal correction to Energy=                    0.007112
 Thermal correction to Enthalpy=                  0.008056
 Thermal correction to Gibbs Free Energy=        -0.015713
 Sum of electronic and zero-point Energies=           -100.803085
 Sum of electronic and thermal Energies=              -100.800659
 Sum of electronic and thermal Enthalpies=            -100.799714
 Sum of electronic and thermal Free Energies=         -100.823484

                     E (Thermal)             CV                S
                      KCal/Mol        Cal/Mol-Kelvin    Cal/Mol-Kelvin
 Total                    4.463              5.662             50.027
 Electronic               0.000              0.000              1.377
 Translational            0.889              2.981             35.068
 Rotational               0.592              1.987             13.414
 Vibrational              2.982              0.694              0.167

 Normal termination of Gaussian 16 at Fri Aug 22 18:52:35 2025.
