 Gaussian 16, Revision C.01,
 Gaussian 16:  ES64L-G16RevC.01  3-Jul-2019

 -----------------------------------------
 # sp b3lyp/6-311g** Force nosymm scf=(qc)
 -----------------------------------------

 -------------------
 Title Card Required
 -------------------
 Symbolic Z-matrix:
 Charge =  0 Multiplicity = 2

                          Input orientation:
 ---------------------------------------------------------------------
 Center     Atomic      Atomic             Coordinates (Angstroms)
 Number     Number       Type             X           Y           Z
 ---------------------------------------------------------------------
      1          1           0        0.000000    0.000000    0.000000
      2          1           0       -3.800000    0.000000    0.000000
      3          9           0        1.500000    0.000000    0.000000
 ---------------------------------------------------------------------

 SCF Done:  E(UB3LYP) =  -100.854630356     a.u. after    8 cycles

 Alpha  occ. eigenvalues --  -24.64363  -1.09690  -0.43237  -0.36438  -0.36438
 Alpha  occ. eigenvalues --   -0.33725
 Alpha virt. eigenvalues --   -0.14523   0.20371   0.27267   0.93492   0.93492
 Alpha virt. eigenvalues --    1.03520   1.09351   1.23756   1.23783   1.23783
 Alpha virt. eigenvalues --    1.31116   1.31116   1.72896   2.12842   2.18939

  Beta  occ. eigenvalues --  -24.64346  -1.09643  -0.43198  -0.36422  -0.36422
  Beta virt. eigenvalues --   -0.14674  -0.06247   0.23110   0.38304   0.93484
  Beta virt. eigenvalues --    0.93484   1.03563   1.09352   1.31032   1.31032
  Beta virt. eigenvalues --    1.46324   1.46688   1.46688   1.72883   2.17777

 Mulliken charges and spin densities:
               1          2
     1  H    0.349521  -0.004645
     2  H    0.000894   0.999059
     3  F   -0.350416   0.005587
 Sum of Mulliken charges =  -0.00000   1.00000

 Dipole moment (field-independent basis, Debye):
    X=             -2.5991    Y=              0.0000    Z=             -0.0000  Tot=              2.5991
 Quadrupole moment (field-independent basis, Debye-Ang):
   XX=             -9.9469   YY=             -7.3211   ZZ=             -7.3211
   XY=             -0.0000   XZ=             -0.0000   YZ=             -0.0000

  Exact polarizability:      14.863      -0.000       2.187       0.000      -0.000       2.187
 Approx polarizability:      28.445      -0.000       2.111      -0.000       0.000       2.111

 ******    2 imaginary frequencies (negative Signs) ******

                      1                      2                      3
                      A                      A                      A
 Frequencies --  -1146.4080               -56.5811              1020.5150
 Red. masses --      1.0579                 1.0536                 1.0319
 Frc consts  --      0.8192                 0.0020                 0.6332
 IR Inten    --     39.7364                 0.0650               119.2689

                      4
                      A
 Frequencies --   1020.5150
 Red. masses --      1.0319
 Frc consts  --      0.6332
 IR Inten    --    119.2689

 - Thermochemistry -
 -------------------
 Temperature   298.150 Kelvin.  Pressure   1.00000 Atm.
 Atom     1 has atomic number  1 and mass   1.00783

 Molecular mass:    21.01405 amu.
 Principal axes and moments of inertia in atomic units:
                           1         2         3
     Eigenvalues --     0.00000 101.21258 101.21258
           X            1.00000  -0.00000   0.00000
           Y            0.00000   1.00000   0.00000
           Z            0.00000   0.00000   1.00000
 This molecule is a prolate symmetric top.
 Rotational symmetry number  1.
 Rotational temperature (Kelvin)      0.85576
 Rotational constant (GHZ):          17.831195
    2 imaginary frequencies ignored.
 Zero-point vibrational energy      12208.1 (Joules/Mol)
                                    2.91780 (Kcal/Mol)
 Vibrational temperatures:   1468.29  1468.29
          (Kelvin)

 Zero-point correction=                           0.004650 (Hartree/Particle)
 Thermal correction to Energy=                    0.007078
 Thermal correction to Enthalpy=                  0.008023
 Thermal correction to Gibbs Free Energy=        -0.015847
 Sum of electronic and zero-point Energies=           -100.849981
 Sum of electronic and thermal Energies=              -100.847552
 Sum of electronic and thermal Enthalpies=            -100.846608
 Sum of electronic and thermal Free Energies=         -100.870477

                     E (Thermal)             CV                S
                      KCal/Mol        Cal/Mol-Kelvin    Cal/Mol-Kelvin
 Total                    4.442              5.679             50.237
 Electronic               0.000              0.000              1.377
 Translational            0.889              2.981             35.068
 Rotational               0.592              1.987             13.619
 Vibrational              2.961              0.711              0.172

 Normal termination of Gaussian 16 at Fri Aug 22 16:26:49 2025.
