 Gaussian 16, Revision C.01,
 Gaussian 16:  ES64L-G16RevC.01  3-Jul-2019

 -----------------------------------------
 # sp b3lyp/6-311g** Force nosymm scf=(qc)
 -----------------------------------------

 -------------------
 Title Card Required
 -------------------
 Symbolic Z-matrix:
 Charge =  0 Multiplicity = 2

                          Input orientation:
 ---------------------------------------------------------------------
 Center     Atomic      Atomic             Coordinates (Angstroms)
 Number     Number       Type             X           Y           Z
 ---------------------------------------------------------------------
      1          1           0        0.000000    0.000000    0.000000
      2          1           0       -3.550000    0.000000    0.000000
      3          9           0        2.400000    0.000000    0.000000
 ---------------------------------------------------------------------

 SCF Done:  E(UB3LYP) =  -100.769330277     a.u. after   21 cycles

 Alpha  occ. eigenvalues --  -24.68277  -1.09424  -0.39374  -0.39374  -0.35824
 Alpha  occ. eigenvalues --   -0.32864
 Alpha virt. eigenvalues --   -0.22889   0.21027   0.28038   0.94506   0.95272
 Alpha virt. eigenvalues --    0.95272   1.08431   1.21816   1.21816   1.24565
 Alpha virt. eigenvalues --    1.24565   1.24618   1.33094   2.11135   2.15954

  Beta  occ. eigenvalues --  -24.71055  -1.17311  -0.50147  -0.42139  -0.42139
  Beta virt. eigenvalues --   -0.11217  -0.04393   0.32545   0.40400   0.89306
  Beta virt. eigenvalues --    0.93969   0.93969   1.06363   1.39562   1.39562
  Beta virt. eigenvalues --    1.46073   1.48276   1.48276   1.48479   2.35389

 Mulliken charges and spin densities:
               1          2
     1  H    0.106666   0.877691
     2  H    0.000842   0.999173
     3  F   -0.107508  -0.876863
 Sum of Mulliken charges =   0.00000   1.00000

 Dipole moment (field-independent basis, Debye):
    X=             -1.3210    Y=             -0.0000    Z=             -0.0000  Tot=              1.3210
 Quadrupole moment (field-independent basis, Debye-Ang):
   XX=             -9.5579   YY=             -7.5469   ZZ=             -7.5469
   XY=             -0.0000   XZ=             -0.0000   YZ=              0.0000

  Exact polarizability:      30.628      -0.000       2.030      -0.000      -0.000       2.030
 Approx polarizability:      40.378      -0.000       1.923      -0.000      -0.000       1.923

 ******    1 imaginary frequencies (negative Signs) ******

                      1                      2                      3
                      A                      A                      A
 Frequencies --   -670.6683                77.4555               269.0746
 Red. masses --      1.0601                 1.0515                 1.0233
 Frc consts  --      0.2809                 0.0037                 0.0437
 IR Inten    --     83.5012                 0.0896                10.8751

                      4
                      A
 Frequencies --    269.0746
 Red. masses --      1.0233
 Frc consts  --      0.0437
 IR Inten    --     10.8751

 - Thermochemistry -
 -------------------
 Temperature   298.150 Kelvin.  Pressure   1.00000 Atm.
 Atom     1 has atomic number  1 and mass   1.00783

 Molecular mass:    21.01405 amu.
 Principal axes and moments of inertia in atomic units:
                           1         2         3
     Eigenvalues --     0.00000 136.10960 136.10960
           X            1.00000  -0.00000   0.00000
           Y            0.00000   1.00000   0.00000
           Z            0.00000   0.00000   1.00000
 This molecule is a prolate symmetric top.
 Rotational symmetry number  1.
 Rotational temperature (Kelvin)      0.63635
 Rotational constant (GHZ):          13.259470
    1 imaginary frequencies ignored.
 Zero-point vibrational energy       3682.1 (Joules/Mol)
                                    0.88005 (Kcal/Mol)
 Warning -- explicit consideration of   3 degrees of freedom as
           vibrations may cause significant error
 Vibrational temperatures:    111.44   387.14   387.14
          (Kelvin)

 Zero-point correction=                           0.001402 (Hartree/Particle)
 Thermal correction to Energy=                    0.005462
 Thermal correction to Enthalpy=                  0.006406
 Thermal correction to Gibbs Free Energy=        -0.021062
 Sum of electronic and zero-point Energies=           -100.767928
 Sum of electronic and thermal Energies=              -100.763868
 Sum of electronic and thermal Enthalpies=            -100.762924
 Sum of electronic and thermal Free Energies=         -100.790392

                     E (Thermal)             CV                S
                      KCal/Mol        Cal/Mol-Kelvin    Cal/Mol-Kelvin
 Total                    3.428             10.392             57.812
 Electronic               0.000              0.000              1.377
 Translational            0.889              2.981             35.068
 Rotational               0.592              1.987             14.208
 Vibrational              1.946              5.424              7.159
 Vibration     1          0.599              1.964              3.954
 Vibration     2          0.673              1.730              1.602
 Vibration     3          0.673              1.730              1.602

 Normal termination of Gaussian 16 at Fri Aug 22 17:33:36 2025.
