 Gaussian 16, Revision C.01,
 Gaussian 16:  ES64L-G16RevC.01  3-Jul-2019

 -----------------------------------------
 # sp b3lyp/6-311g** Force nosymm scf=(qc)
 -----------------------------------------

 -------------------
 Title Card Required
 -------------------
 Symbolic Z-matrix:
 Charge =  0 Multiplicity = 2

                          Input orientation:
 ---------------------------------------------------------------------
 Center     Atomic      Atomic             Coordinates (Angstroms)
 Number     Number       Type             X           Y           Z
 ---------------------------------------------------------------------
      1          1           0        0.000000    0.000000    0.000000
      2          1           0       -3.350000    0.000000    0.000000
      3          9           0        1.550000    0.000000    0.000000
 ---------------------------------------------------------------------

 SCF Done:  E(UB3LYP) =  -100.844060359     a.u. after    7 cycles

 Alpha  occ. eigenvalues --  -24.64409  -1.09683  -0.42831  -0.36387  -0.36387
 Alpha  occ. eigenvalues --   -0.34174
 Alpha virt. eigenvalues --   -0.15389   0.20434   0.27834   0.93847   0.93847
 Alpha virt. eigenvalues --    1.02547   1.07838   1.23340   1.23340   1.23461
 Alpha virt. eigenvalues --    1.30879   1.30879   1.73656   2.13540   2.18496

  Beta  occ. eigenvalues --  -24.64195  -1.09114  -0.42361  -0.36183  -0.36183
  Beta virt. eigenvalues --   -0.16083  -0.07025   0.23023   0.37901   0.93751
  Beta virt. eigenvalues --    0.93751   1.02942   1.07776   1.29737   1.29737
  Beta virt. eigenvalues --    1.45294   1.45764   1.45764   1.73153   2.16610

 Mulliken charges and spin densities:
               1          2
     1  H    0.342277  -0.064523
     2  H    0.002983   0.996804
     3  F   -0.345260   0.067719
 Sum of Mulliken charges =  -0.00000   1.00000

 Dipole moment (field-independent basis, Debye):
    X=             -2.6717    Y=              0.0000    Z=             -0.0000  Tot=              2.6717
 Quadrupole moment (field-independent basis, Debye-Ang):
   XX=            -10.0067   YY=             -7.3490   ZZ=             -7.3490
   XY=              0.0000   XZ=             -0.0000   YZ=             -0.0000

  Exact polarizability:      17.836      -0.000       2.166       0.000      -0.000       2.166
 Approx polarizability:      33.214      -0.000       2.087       0.000      -0.000       2.087

 ******    2 imaginary frequencies (negative Signs) ******

                      1                      2                      3
                      A                      A                      A
 Frequencies --  -1472.2856              -104.3084               972.7508
 Red. masses --      1.0565                 1.0550                 1.0293
 Frc consts  --      1.3493                 0.0068                 0.5739
 IR Inten    --      8.1005                 0.3507               111.1279

                      4
                      A
 Frequencies --    972.7508
 Red. masses --      1.0293
 Frc consts  --      0.5739
 IR Inten    --    111.1279

 - Thermochemistry -
 -------------------
 Temperature   298.150 Kelvin.  Pressure   1.00000 Atm.
 Atom     1 has atomic number  1 and mass   1.00783

 Molecular mass:    21.01405 amu.
 Principal axes and moments of inertia in atomic units:
                           1         2         3
     Eigenvalues --     0.00000  87.87793  87.87793
           X            1.00000  -0.00000   0.00000
           Y            0.00000   1.00000   0.00000
           Z            0.00000   0.00000   1.00000
 This molecule is a prolate symmetric top.
 Rotational symmetry number  1.
 Rotational temperature (Kelvin)      0.98562
 Rotational constant (GHZ):          20.536910
    2 imaginary frequencies ignored.
 Zero-point vibrational energy      11636.7 (Joules/Mol)
                                    2.78123 (Kcal/Mol)
 Vibrational temperatures:   1399.57  1399.57
          (Kelvin)

 Zero-point correction=                           0.004432 (Hartree/Particle)
 Thermal correction to Energy=                    0.006874
 Thermal correction to Enthalpy=                  0.007819
 Thermal correction to Gibbs Free Energy=        -0.015934
 Sum of electronic and zero-point Energies=           -100.839628
 Sum of electronic and thermal Energies=              -100.837186
 Sum of electronic and thermal Enthalpies=            -100.836242
 Sum of electronic and thermal Free Energies=         -100.859995

                     E (Thermal)             CV                S
                      KCal/Mol        Cal/Mol-Kelvin    Cal/Mol-Kelvin
 Total                    4.314              5.784             49.992
 Electronic               0.000              0.000              1.377
 Translational            0.889              2.981             35.068
 Rotational               0.592              1.987             13.338
 Vibrational              2.833              0.816              0.209

 Normal termination of Gaussian 16 at Fri Aug 22 16:29:22 2025.
