 Gaussian 16, Revision C.01,
 Gaussian 16:  ES64L-G16RevC.01  3-Jul-2019

 -----------------------------------------
 # sp b3lyp/6-311g** Force nosymm scf=(qc)
 -----------------------------------------

 -------------------
 Title Card Required
 -------------------
 Symbolic Z-matrix:
 Charge =  0 Multiplicity = 2

                          Input orientation:
 ---------------------------------------------------------------------
 Center     Atomic      Atomic             Coordinates (Angstroms)
 Number     Number       Type             X           Y           Z
 ---------------------------------------------------------------------
      1          1           0        0.000000    0.000000    0.000000
      2          1           0       -3.050000    0.000000    0.000000
      3          9           0        3.250000    0.000000    0.000000
 ---------------------------------------------------------------------

 SCF Done:  E(UB3LYP) =  -100.760521781     a.u. after   24 cycles

 Alpha  occ. eigenvalues --  -24.74872  -1.20873  -0.53993  -0.45334  -0.45334
 Alpha  occ. eigenvalues --   -0.32539
 Alpha virt. eigenvalues --   -0.08332   0.24756   0.35615   0.88504   0.91798
 Alpha virt. eigenvalues --    0.91798   1.02662   1.24993   1.24993   1.25647
 Alpha virt. eigenvalues --    1.43455   1.43455   1.43548   2.15562   2.39602

  Beta  occ. eigenvalues --  -24.71792  -1.12032  -0.42249  -0.42249  -0.33235
  Beta virt. eigenvalues --   -0.25215  -0.07436   0.24582   0.36889   0.93276
  Beta virt. eigenvalues --    0.93276   0.97472   1.06581   1.24179   1.24179
  Beta virt. eigenvalues --    1.24797   1.44790   1.44884   1.44884   2.16040

 Mulliken charges and spin densities:
               1          2
     1  H    0.020463  -0.969892
     2  H    0.000936   0.993462
     3  F   -0.021398   0.976430
 Sum of Mulliken charges =  -0.00000   1.00000

 Dipole moment (field-independent basis, Debye):
    X=             -0.3710    Y=             -0.0000    Z=             -0.0000  Tot=              0.3710
 Quadrupole moment (field-independent basis, Debye-Ang):
   XX=             -7.7332   YY=             -7.6284   ZZ=             -7.6284
   XY=             -0.0000   XZ=             -0.0000   YZ=              0.0000

  Exact polarizability:      31.612      -0.000       2.026      -0.000      -0.000       2.026
 Approx polarizability:      27.394      -0.000       1.929      -0.000       0.000       1.929

 ******    2 imaginary frequencies (negative Signs) ******

                      1                      2                      3
                      A                      A                      A
 Frequencies --   -376.1445              -157.8054               133.0712
 Red. masses --      1.0183                 1.0961                 1.0172
 Frc consts  --      0.0849                 0.0161                 0.0106
 IR Inten    --     18.8970                 5.2339                 0.3654

                      4
                      A
 Frequencies --    133.0712
 Red. masses --      1.0172
 Frc consts  --      0.0106
 IR Inten    --      0.3654

 - Thermochemistry -
 -------------------
 Temperature   298.150 Kelvin.  Pressure   1.00000 Atm.
 Atom     1 has atomic number  1 and mass   1.00783

 Molecular mass:    21.01405 amu.
 Principal axes and moments of inertia in atomic units:
                           1         2         3
     Eigenvalues --     0.00000 165.11699 165.11699
           X            1.00000  -0.00000   0.00000
           Y            0.00000   1.00000   0.00000
           Z            0.00000   0.00000   1.00000
 This molecule is a prolate symmetric top.
 Rotational symmetry number  1.
 Rotational temperature (Kelvin)      0.52456
 Rotational constant (GHZ):          10.930075
    2 imaginary frequencies ignored.
 Zero-point vibrational energy       1591.9 (Joules/Mol)
                                    0.38047 (Kcal/Mol)
 Warning -- explicit consideration of   2 degrees of freedom as
           vibrations may cause significant error
 Vibrational temperatures:    191.46   191.46
          (Kelvin)

 Zero-point correction=                           0.000606 (Hartree/Particle)
 Thermal correction to Energy=                    0.004313
 Thermal correction to Enthalpy=                  0.005257
 Thermal correction to Gibbs Free Energy=        -0.021749
 Sum of electronic and zero-point Energies=           -100.759915
 Sum of electronic and thermal Energies=              -100.756208
 Sum of electronic and thermal Enthalpies=            -100.755264
 Sum of electronic and thermal Free Energies=         -100.782271

                     E (Thermal)             CV                S
                      KCal/Mol        Cal/Mol-Kelvin    Cal/Mol-Kelvin
 Total                    2.707              8.809             56.839
 Electronic               0.000              0.000              1.377
 Translational            0.889              2.981             35.068
 Rotational               0.592              1.987             14.592
 Vibrational              1.225              3.841              5.802
 Vibration     1          0.613              1.920              2.901
 Vibration     2          0.613              1.920              2.901

 Normal termination of Gaussian 16 at Fri Aug 22 20:35:42 2025.
