 Gaussian 16, Revision C.01,
 Gaussian 16:  ES64L-G16RevC.01  3-Jul-2019

 -----------------------------------------
 # sp b3lyp/6-311g** Force nosymm scf=(qc)
 -----------------------------------------

 -------------------
 Title Card Required
 -------------------
 Symbolic Z-matrix:
 Charge =  0 Multiplicity = 2

                          Input orientation:
 ---------------------------------------------------------------------
 Center     Atomic      Atomic             Coordinates (Angstroms)
 Number     Number       Type             X           Y           Z
 ---------------------------------------------------------------------
      1          1           0        0.000000    0.000000    0.000000
      2          1           0       -0.900000    0.000000    0.000000
      3          9           0        1.100000    0.000000    0.000000
 ---------------------------------------------------------------------

 SCF Done:  E(UB3LYP) =  -100.952346608     a.u. after    7 cycles

 Alpha  occ. eigenvalues --  -24.66007  -1.16717  -0.58375  -0.39857  -0.39857
 Alpha  occ. eigenvalues --   -0.37136
 Alpha virt. eigenvalues --    0.11382   0.18792   0.43907   0.88781   0.88781
 Alpha virt. eigenvalues --    0.97255   1.08223   1.08223   1.42459   1.65476
 Alpha virt. eigenvalues --    1.67710   1.67710   2.20103   2.29085   2.94431

  Beta  occ. eigenvalues --  -24.64573  -1.13068  -0.51195  -0.38544  -0.38544
  Beta virt. eigenvalues --   -0.19904   0.13497   0.20654   0.48921   0.90393
  Beta virt. eigenvalues --    0.90393   1.00294   1.12907   1.12907   1.45438
  Beta virt. eigenvalues --    1.71563   1.71563   1.72204   2.19271   2.39868

 Mulliken charges and spin densities:
               1          2
     1  H    0.271004  -0.036547
     2  H    0.012441   0.645182
     3  F   -0.283444   0.391365
 Sum of Mulliken charges =   0.00000   1.00000

 Dipole moment (field-independent basis, Debye):
    X=             -1.8921    Y=             -0.0000    Z=             -0.0000  Tot=              1.8921
 Quadrupole moment (field-independent basis, Debye-Ang):
   XX=             -7.5763   YY=             -6.6987   ZZ=             -6.6987
   XY=             -0.0000   XZ=             -0.0000   YZ=             -0.0000

  Exact polarizability:      17.134      -0.000       2.542       0.000       0.000       2.542
 Approx polarizability:      21.790      -0.000       2.567      -0.000       0.000       2.567

 ******    3 imaginary frequencies (negative Signs) ******

                      1                      2                      3
                      A                      A                      A
 Frequencies --   -372.5703              -372.5703              -231.6065
 Red. masses --      1.0157                 1.0157                 1.0587
 Frc consts  --      0.0831                 0.0831                 0.0335
 IR Inten    --     31.1435                31.1435                80.0735

                      4
                      A
 Frequencies --   1837.6914
 Red. masses --      1.0529
 Frc consts  --      2.0950
 IR Inten    --    153.3682

 - Thermochemistry -
 -------------------
 Temperature   298.150 Kelvin.  Pressure   1.00000 Atm.
 Atom     1 has atomic number  1 and mass   1.00783

 Molecular mass:    21.01405 amu.
 Principal axes and moments of inertia in atomic units:
                           1         2         3
     Eigenvalues --     0.00000  17.09208  17.09208
           X            1.00000  -0.00000   0.00000
           Y            0.00000   1.00000   0.00000
           Z            0.00000   0.00000   1.00000
 This molecule is a prolate symmetric top.
 Rotational symmetry number  1.
 Rotational temperature (Kelvin)      5.06749
 Rotational constant (GHZ):         105.589313
    3 imaginary frequencies ignored.
 Zero-point vibrational energy      10991.8 (Joules/Mol)
                                    2.62711 (Kcal/Mol)
 Vibrational temperatures:   2644.03
          (Kelvin)

 Zero-point correction=                           0.004187 (Hartree/Particle)
 Thermal correction to Energy=                    0.006548
 Thermal correction to Enthalpy=                  0.007492
 Thermal correction to Gibbs Free Energy=        -0.014617
 Sum of electronic and zero-point Energies=           -100.948160
 Sum of electronic and thermal Energies=              -100.945798
 Sum of electronic and thermal Enthalpies=            -100.944854
 Sum of electronic and thermal Free Energies=         -100.966963

                     E (Thermal)             CV                S
                      KCal/Mol        Cal/Mol-Kelvin    Cal/Mol-Kelvin
 Total                    4.109              4.990             46.533
 Electronic               0.000              0.000              1.377
 Translational            0.889              2.981             35.068
 Rotational               0.592              1.987             10.085
 Vibrational              2.628              0.022              0.003

 Normal termination of Gaussian 16 at Fri Aug 22 16:04:33 2025.
