 Gaussian 16, Revision C.01,
 Gaussian 16:  ES64L-G16RevC.01  3-Jul-2019

 -----------------------------------------
 # sp b3lyp/6-311g** Force nosymm scf=(qc)
 -----------------------------------------

 -------------------
 Title Card Required
 -------------------
 Symbolic Z-matrix:
 Charge =  0 Multiplicity = 2

                          Input orientation:
 ---------------------------------------------------------------------
 Center     Atomic      Atomic             Coordinates (Angstroms)
 Number     Number       Type             X           Y           Z
 ---------------------------------------------------------------------
      1          1           0        0.000000    0.000000    0.000000
      2          1           0       -2.800000    0.000000    0.000000
      3          9           0        2.600000    0.000000    0.000000
 ---------------------------------------------------------------------

 SCF Done:  E(UB3LYP) =  -100.767124954     a.u. after   20 cycles

 Alpha  occ. eigenvalues --  -24.72317  -1.18494  -0.51423  -0.43190  -0.43190
 Alpha  occ. eigenvalues --   -0.33255
 Alpha virt. eigenvalues --   -0.10849   0.24556   0.34063   0.90128   0.93307
 Alpha virt. eigenvalues --    0.93307   1.06218   1.24315   1.24315   1.25853
 Alpha virt. eigenvalues --    1.39955   1.39955   1.42719   2.15266   2.35542

  Beta  occ. eigenvalues --  -24.69425  -1.10248  -0.40304  -0.40304  -0.34967
  Beta virt. eigenvalues --   -0.23725  -0.08418   0.25164   0.35939   0.94707
  Beta virt. eigenvalues --    0.94707   0.97584   1.09214   1.22479   1.22479
  Beta virt. eigenvalues --    1.27608   1.43600   1.43600   1.44048   2.14789

 Mulliken charges and spin densities:
               1          2
     1  H    0.071297  -0.901796
     2  H    0.004677   0.987336
     3  F   -0.075974   0.914460
 Sum of Mulliken charges =  -0.00000   1.00000

 Dipole moment (field-independent basis, Debye):
    X=             -1.0707    Y=             -0.0000    Z=              0.0000  Tot=              1.0707
 Quadrupole moment (field-independent basis, Debye-Ang):
   XX=             -8.8808   YY=             -7.6029   ZZ=             -7.6029
   XY=             -0.0000   XZ=              0.0000   YZ=             -0.0000

  Exact polarizability:      37.699      -0.000       2.018       0.000       0.000       2.018
 Approx polarizability:      42.150      -0.000       1.919       0.000      -0.000       1.919

 ******    2 imaginary frequencies (negative Signs) ******

                      1                      2                      3
                      A                      A                      A
 Frequencies --   -640.0366              -257.3299               249.0001
 Red. masses --      1.0321                 1.0805                 1.0189
 Frc consts  --      0.2491                 0.0422                 0.0372
 IR Inten    --     61.6164                 8.8917                 4.4870

                      4
                      A
 Frequencies --    249.0001
 Red. masses --      1.0189
 Frc consts  --      0.0372
 IR Inten    --      4.4870

 - Thermochemistry -
 -------------------
 Temperature   298.150 Kelvin.  Pressure   1.00000 Atm.
 Atom     1 has atomic number  1 and mass   1.00783

 Molecular mass:    21.01405 amu.
 Principal axes and moments of inertia in atomic units:
                           1         2         3
     Eigenvalues --     0.00000 118.22954 118.22954
           X            1.00000  -0.00000   0.00000
           Y            0.00000   1.00000   0.00000
           Z            0.00000   0.00000   1.00000
 This molecule is a prolate symmetric top.
 Rotational symmetry number  1.
 Rotational temperature (Kelvin)      0.73259
 Rotational constant (GHZ):          15.264723
    2 imaginary frequencies ignored.
 Zero-point vibrational energy       2978.7 (Joules/Mol)
                                    0.71193 (Kcal/Mol)
 Warning -- explicit consideration of   2 degrees of freedom as
           vibrations may cause significant error
 Vibrational temperatures:    358.26   358.26
          (Kelvin)

 Zero-point correction=                           0.001135 (Hartree/Particle)
 Thermal correction to Energy=                    0.004471
 Thermal correction to Enthalpy=                  0.005415
 Thermal correction to Gibbs Free Energy=        -0.020170
 Sum of electronic and zero-point Energies=           -100.765990
 Sum of electronic and thermal Energies=              -100.762654
 Sum of electronic and thermal Enthalpies=            -100.761710
 Sum of electronic and thermal Free Energies=         -100.787295

                     E (Thermal)             CV                S
                      KCal/Mol        Cal/Mol-Kelvin    Cal/Mol-Kelvin
 Total                    2.805              8.497             53.849
 Electronic               0.000              0.000              1.377
 Translational            0.889              2.981             35.068
 Rotational               0.592              1.987             13.928
 Vibrational              1.324              3.529              3.475
 Vibration     1          0.662              1.764              1.738
 Vibration     2          0.662              1.764              1.738

 Normal termination of Gaussian 16 at Fri Aug 22 18:04:31 2025.
