 Gaussian 16, Revision C.01,
 Gaussian 16:  ES64L-G16RevC.01  3-Jul-2019

 -----------------------------------------
 # sp b3lyp/6-311g** Force nosymm scf=(qc)
 -----------------------------------------

 -------------------
 Title Card Required
 -------------------
 Symbolic Z-matrix:
 Charge =  0 Multiplicity = 2

                          Input orientation:
 ---------------------------------------------------------------------
 Center     Atomic      Atomic             Coordinates (Angstroms)
 Number     Number       Type             X           Y           Z
 ---------------------------------------------------------------------
      1          1           0        0.000000    0.000000    0.000000
      2          1           0       -1.750000    0.000000    0.000000
      3          9           0        1.550000    0.000000    0.000000
 ---------------------------------------------------------------------

 SCF Done:  E(UB3LYP) =  -100.857612922     a.u. after   14 cycles

 Alpha  occ. eigenvalues --  -24.64439  -1.10771  -0.45225  -0.38045  -0.36635
 Alpha  occ. eigenvalues --   -0.36635
 Alpha virt. eigenvalues --   -0.10255   0.22136   0.28364   0.94298   0.94298
 Alpha virt. eigenvalues --    0.94967   1.04116   1.18383   1.18383   1.35499
 Alpha virt. eigenvalues --    1.35499   1.39360   1.75893   2.13111   2.33496

  Beta  occ. eigenvalues --  -24.63197  -1.07443  -0.40872  -0.35446  -0.35446
  Beta virt. eigenvalues --   -0.20410  -0.06889   0.25422   0.30321   0.94165
  Beta virt. eigenvalues --    0.94165   0.99105   1.06838   1.26892   1.26892
  Beta virt. eigenvalues --    1.36970   1.36970   1.47217   1.77747   2.16830

 Mulliken charges and spin densities:
               1          2
     1  H    0.261429  -0.251211
     2  H    0.063687   0.863559
     3  F   -0.325116   0.387652
 Sum of Mulliken charges =   0.00000   1.00000

 Dipole moment (field-independent basis, Debye):
    X=             -3.0106    Y=             -0.0000    Z=             -0.0000  Tot=              3.0106
 Quadrupole moment (field-independent basis, Debye-Ang):
   XX=             -8.5434   YY=             -7.3091   ZZ=             -7.3091
   XY=             -0.0000   XZ=             -0.0000   YZ=              0.0000

  Exact polarizability:      35.664      -0.000       2.232      -0.000       0.000       2.232
 Approx polarizability:      49.250      -0.000       2.161      -0.000      -0.000       2.161

 ******    2 imaginary frequencies (negative Signs) ******

                      1                      2                      3
                      A                      A                      A
 Frequencies --  -2299.9368              -511.5822               968.6618
 Red. masses --      1.0285                 1.0845                 1.0195
 Frc consts  --      3.2054                 0.1672                 0.5636
 IR Inten    --     73.7200                 0.0031                41.1347

                      4
                      A
 Frequencies --    968.6618
 Red. masses --      1.0195
 Frc consts  --      0.5636
 IR Inten    --     41.1347

 - Thermochemistry -
 -------------------
 Temperature   298.150 Kelvin.  Pressure   1.00000 Atm.
 Atom     1 has atomic number  1 and mass   1.00783

 Molecular mass:    21.01405 amu.
 Principal axes and moments of inertia in atomic units:
                           1         2         3
     Eigenvalues --     0.00000  43.77967  43.77967
           X            1.00000  -0.00000   0.00000
           Y            0.00000   1.00000   0.00000
           Z            0.00000   0.00000   1.00000
 This molecule is a prolate symmetric top.
 Rotational symmetry number  1.
 Rotational temperature (Kelvin)      1.97840
 Rotational constant (GHZ):          41.223266
    2 imaginary frequencies ignored.
 Zero-point vibrational energy      11587.8 (Joules/Mol)
                                    2.76954 (Kcal/Mol)
 Vibrational temperatures:   1393.69  1393.69
          (Kelvin)

 Zero-point correction=                           0.004414 (Hartree/Particle)
 Thermal correction to Energy=                    0.006857
 Thermal correction to Enthalpy=                  0.007801
 Thermal correction to Gibbs Free Energy=        -0.015295
 Sum of electronic and zero-point Energies=           -100.853199
 Sum of electronic and thermal Energies=              -100.850756
 Sum of electronic and thermal Enthalpies=            -100.849812
 Sum of electronic and thermal Free Energies=         -100.872908

                     E (Thermal)             CV                S
                      KCal/Mol        Cal/Mol-Kelvin    Cal/Mol-Kelvin
 Total                    4.303              5.794             48.611
 Electronic               0.000              0.000              1.377
 Translational            0.889              2.981             35.068
 Rotational               0.592              1.987             11.954
 Vibrational              2.822              0.826              0.212

 Normal termination of Gaussian 16 at Fri Aug 22 16:28:03 2025.
