 Gaussian 16, Revision C.01,
 Gaussian 16:  ES64L-G16RevC.01  3-Jul-2019

 -----------------------------------------
 # sp b3lyp/6-311g** Force nosymm scf=(qc)
 -----------------------------------------

 -------------------
 Title Card Required
 -------------------
 Symbolic Z-matrix:
 Charge =  0 Multiplicity = 2

                          Input orientation:
 ---------------------------------------------------------------------
 Center     Atomic      Atomic             Coordinates (Angstroms)
 Number     Number       Type             X           Y           Z
 ---------------------------------------------------------------------
      1          1           0        0.000000    0.000000    0.000000
      2          1           0       -1.900000    0.000000    0.000000
      3          9           0        0.800000    0.000000    0.000000
 ---------------------------------------------------------------------

 SCF Done:  E(UB3LYP) =  -100.950061775     a.u. after    6 cycles

 Alpha  occ. eigenvalues --  -24.63451  -1.22883  -0.56304  -0.40462  -0.40462
 Alpha  occ. eigenvalues --   -0.35789
 Alpha virt. eigenvalues --    0.09356   0.23804   0.43866   0.94355   0.94355
 Alpha virt. eigenvalues --    0.97264   1.16542   1.21337   1.21337   1.40346
 Alpha virt. eigenvalues --    1.40346   1.53827   1.99996   2.19234   2.56426

  Beta  occ. eigenvalues --  -24.63394  -1.22731  -0.55990  -0.40416  -0.40416
  Beta virt. eigenvalues --   -0.11546   0.11094   0.33894   0.44836   0.94368
  Beta virt. eigenvalues --    0.94368   0.97526   1.25911   1.37806   1.37806
  Beta virt. eigenvalues --    1.43427   1.43427   1.61699   2.05532   2.36293

 Mulliken charges and spin densities:
               1          2
     1  H    0.259518   0.009566
     2  H    0.013358   0.977637
     3  F   -0.272876   0.012798
 Sum of Mulliken charges =   0.00000   1.00000

 Dipole moment (field-independent basis, Debye):
    X=             -1.8622    Y=             -0.0000    Z=             -0.0000  Tot=              1.8622
 Quadrupole moment (field-independent basis, Debye-Ang):
   XX=             -7.2655   YY=             -6.7230   ZZ=             -6.7230
   XY=             -0.0000   XZ=             -0.0000   YZ=              0.0000

  Exact polarizability:       7.810      -0.000       2.507      -0.000      -0.000       2.507
 Approx polarizability:       7.899       0.000       2.500       0.000      -0.000       2.500

 ******    2 imaginary frequencies (negative Signs) ******

                      1                      2                      3
                      A                      A                      A
 Frequencies --  -1946.5282             -1946.5282               349.5406
 Red. masses --      1.0308                 1.0308                 1.0532
 Frc consts  --      2.3013                 2.3013                 0.0758
 IR Inten    --    157.2754               157.2754                 0.3452

                      4
                      A
 Frequencies --   6333.0202
 Red. masses --      1.0584
 Frc consts  --     25.0093
 IR Inten    --    166.7093

 - Thermochemistry -
 -------------------
 Temperature   298.150 Kelvin.  Pressure   1.00000 Atm.
 Atom     1 has atomic number  1 and mass   1.00783

 Molecular mass:    21.01405 amu.
 Principal axes and moments of inertia in atomic units:
                           1         2         3
     Eigenvalues --     0.00000  26.42570  26.42570
           X            1.00000  -0.00000   0.00000
           Y            0.00000   1.00000   0.00000
           Z            0.00000   0.00000   1.00000
 This molecule is a prolate symmetric top.
 Rotational symmetry number  1.
 Rotational temperature (Kelvin)      3.27764
 Rotational constant (GHZ):          68.294917
    2 imaginary frequencies ignored.
 Zero-point vibrational energy      39970.6 (Joules/Mol)
                                    9.55320 (Kcal/Mol)
 Warning -- explicit consideration of   1 degrees of freedom as
           vibrations may cause significant error
 Vibrational temperatures:    502.91  9111.80
          (Kelvin)

 Zero-point correction=                           0.015224 (Hartree/Particle)
 Thermal correction to Energy=                    0.017946
 Thermal correction to Enthalpy=                  0.018890
 Thermal correction to Gibbs Free Energy=        -0.004184
 Sum of electronic and zero-point Energies=           -100.934838
 Sum of electronic and thermal Energies=              -100.932116
 Sum of electronic and thermal Enthalpies=            -100.931171
 Sum of electronic and thermal Free Energies=         -100.954246

                     E (Thermal)             CV                S
                      KCal/Mol        Cal/Mol-Kelvin    Cal/Mol-Kelvin
 Total                   11.261              6.544             48.564
 Electronic               0.000              0.000              1.377
 Translational            0.889              2.981             35.068
 Rotational               0.592              1.987             10.950
 Vibrational              9.780              1.576              1.168
 Vibration     1          0.727              1.576              1.168

 Normal termination of Gaussian 16 at Fri Aug 22 15:51:02 2025.
