 Gaussian 16, Revision C.01,
 Gaussian 16:  ES64L-G16RevC.01  3-Jul-2019

 -----------------------------------------
 # sp b3lyp/6-311g** Force nosymm scf=(qc)
 -----------------------------------------

 -------------------
 Title Card Required
 -------------------
 Symbolic Z-matrix:
 Charge =  0 Multiplicity = 2

                          Input orientation:
 ---------------------------------------------------------------------
 Center     Atomic      Atomic             Coordinates (Angstroms)
 Number     Number       Type             X           Y           Z
 ---------------------------------------------------------------------
      1          1           0        0.000000    0.000000    0.000000
      2          1           0       -2.900000    0.000000    0.000000
      3          9           0        1.250000    0.000000    0.000000
 ---------------------------------------------------------------------

 SCF Done:  E(UB3LYP) =  -100.913721116     a.u. after    6 cycles

 Alpha  occ. eigenvalues --  -24.64282  -1.11585  -0.46845  -0.37215  -0.37215
 Alpha  occ. eigenvalues --   -0.34613
 Alpha virt. eigenvalues --   -0.07063   0.23181   0.28283   0.93127   0.93127
 Alpha virt. eigenvalues --    1.01481   1.22437   1.22917   1.22917   1.26171
 Alpha virt. eigenvalues --    1.34342   1.34342   1.71877   2.13975   2.27167

  Beta  occ. eigenvalues --  -24.64260  -1.11530  -0.46771  -0.37196  -0.37196
  Beta virt. eigenvalues --   -0.10323  -0.04543   0.26796   0.37399   0.93124
  Beta virt. eigenvalues --    0.93124   1.01534   1.25058   1.34290   1.34290
  Beta virt. eigenvalues --    1.45068   1.45226   1.45226   1.72090   2.27096

 Mulliken charges and spin densities:
               1          2
     1  H    0.353408  -0.000802
     2  H    0.005088   0.994056
     3  F   -0.358496   0.006746
 Sum of Mulliken charges =  -0.00000   1.00000

 Dipole moment (field-independent basis, Debye):
    X=             -2.4093    Y=             -0.0000    Z=              0.0000  Tot=              2.4093
 Quadrupole moment (field-independent basis, Debye-Ang):
   XX=             -8.8599   YY=             -7.1646   ZZ=             -7.1646
   XY=             -0.0000   XZ=              0.0000   YZ=              0.0000

  Exact polarizability:      12.068      -0.000       2.311      -0.000       0.000       2.311
 Approx polarizability:      16.822      -0.000       2.262      -0.000      -0.000       2.262

 ******    1 imaginary frequencies (negative Signs) ******

                      1                      2                      3
                      A                      A                      A
 Frequencies --   -140.5955               397.2846              1174.9250
 Red. masses --      1.0372                 1.0751                 1.0305
 Frc consts  --      0.0121                 0.1000                 0.8381
 IR Inten    --      6.1465                80.2174               134.2137

                      4
                      A
 Frequencies --   1174.9250
 Red. masses --      1.0305
 Frc consts  --      0.8381
 IR Inten    --    134.2137

 - Thermochemistry -
 -------------------
 Temperature   298.150 Kelvin.  Pressure   1.00000 Atm.
 Atom     1 has atomic number  1 and mass   1.00783

 Molecular mass:    21.01405 amu.
 Principal axes and moments of inertia in atomic units:
                           1         2         3
     Eigenvalues --     0.00000  62.57416  62.57416
           X            1.00000  -0.00000   0.00000
           Y            0.00000   1.00000   0.00000
           Z            0.00000   0.00000   1.00000
 This molecule is a prolate symmetric top.
 Rotational symmetry number  1.
 Rotational temperature (Kelvin)      1.38418
 Rotational constant (GHZ):          28.841638
    1 imaginary frequencies ignored.
 Zero-point vibrational energy      16431.5 (Joules/Mol)
                                    3.92723 (Kcal/Mol)
 Warning -- explicit consideration of   1 degrees of freedom as
           vibrations may cause significant error
 Vibrational temperatures:    571.60  1690.46  1690.46
          (Kelvin)

 Zero-point correction=                           0.006258 (Hartree/Particle)
 Thermal correction to Energy=                    0.008968
 Thermal correction to Enthalpy=                  0.009912
 Thermal correction to Gibbs Free Energy=        -0.013927
 Sum of electronic and zero-point Energies=           -100.907463
 Sum of electronic and thermal Energies=              -100.904753
 Sum of electronic and thermal Enthalpies=            -100.903809
 Sum of electronic and thermal Free Energies=         -100.927648

                     E (Thermal)             CV                S
                      KCal/Mol        Cal/Mol-Kelvin    Cal/Mol-Kelvin
 Total                    5.627              6.888             50.173
 Electronic               0.000              0.000              1.377
 Translational            0.889              2.981             35.068
 Rotational               0.592              1.987             12.663
 Vibrational              4.146              1.920              1.064
 Vibration     1          0.764              1.476              0.973

 Normal termination of Gaussian 16 at Fri Aug 22 16:13:13 2025.
