 Gaussian 16, Revision C.01,
 Gaussian 16:  ES64L-G16RevC.01  3-Jul-2019

 -----------------------------------------
 # sp b3lyp/6-311g** Force nosymm scf=(qc)
 -----------------------------------------

 -------------------
 Title Card Required
 -------------------
 Symbolic Z-matrix:
 Charge =  0 Multiplicity = 2

                          Input orientation:
 ---------------------------------------------------------------------
 Center     Atomic      Atomic             Coordinates (Angstroms)
 Number     Number       Type             X           Y           Z
 ---------------------------------------------------------------------
      1          1           0        0.000000    0.000000    0.000000
      2          1           0       -1.700000    0.000000    0.000000
      3          9           0        3.150000    0.000000    0.000000
 ---------------------------------------------------------------------

 SCF Done:  E(UB3LYP) =  -100.795598895     a.u. after   27 cycles

 Alpha  occ. eigenvalues --  -24.75194  -1.21172  -0.54319  -0.45614  -0.45614
 Alpha  occ. eigenvalues --   -0.33878
 Alpha virt. eigenvalues --   -0.11300   0.25226   0.30334   0.88957   0.91569
 Alpha virt. eigenvalues --    0.91569   1.03042   1.06880   1.23000   1.23000
 Alpha virt. eigenvalues --    1.37401   1.37401   1.67070   2.16160   2.41745

  Beta  occ. eigenvalues --  -24.72105  -1.12303  -0.42520  -0.42520  -0.33785
  Beta virt. eigenvalues --   -0.25524  -0.11066   0.25492   0.30651   0.93047
  Beta virt. eigenvalues --    0.93047   0.97853   1.06608   1.07472   1.23107
  Beta virt. eigenvalues --    1.23107   1.37632   1.37632   1.67378   2.16940

 Mulliken charges and spin densities:
               1          2
     1  H    0.002722  -0.605027
     2  H    0.014793   0.625932
     3  F   -0.017516   0.979095
 Sum of Mulliken charges =   0.00000   1.00000

 Dipole moment (field-independent basis, Debye):
    X=             -0.4011    Y=             -0.0000    Z=             -0.0000  Tot=              0.4011
 Quadrupole moment (field-independent basis, Debye-Ang):
   XX=             -6.4568   YY=             -7.7524   ZZ=             -7.7524
   XY=             -0.0000   XZ=             -0.0000   YZ=             -0.0000

  Exact polarizability:      54.532      -0.000       2.036      -0.000       0.000       2.036
 Approx polarizability:      60.376      -0.000       1.975      -0.000       0.000       1.975

 ******    2 imaginary frequencies (negative Signs) ******

                      1                      2                      3
                      A                      A                      A
 Frequencies --  -1913.9187              -181.0520               894.9890
 Red. masses --      1.0079                 1.1085                 1.0122
 Frc consts  --      2.1752                 0.0214                 0.4777
 IR Inten    --     73.8719                16.9466                 0.0045

                      4
                      A
 Frequencies --    894.9890
 Red. masses --      1.0122
 Frc consts  --      0.4777
 IR Inten    --      0.0045

 - Thermochemistry -
 -------------------
 Temperature   298.150 Kelvin.  Pressure   1.00000 Atm.
 Atom     1 has atomic number  1 and mass   1.00783

 Molecular mass:    21.01405 amu.
 Principal axes and moments of inertia in atomic units:
                           1         2         3
     Eigenvalues --     0.00000 109.32200 109.32200
           X            1.00000  -0.00000   0.00000
           Y            0.00000   1.00000   0.00000
           Z            0.00000   0.00000   1.00000
 This molecule is a prolate symmetric top.
 Rotational symmetry number  1.
 Rotational temperature (Kelvin)      0.79228
 Rotational constant (GHZ):          16.508491
    2 imaginary frequencies ignored.
 Zero-point vibrational energy      10706.4 (Joules/Mol)
                                    2.55890 (Kcal/Mol)
 Vibrational temperatures:   1287.69  1287.69
          (Kelvin)

 Zero-point correction=                           0.004078 (Hartree/Particle)
 Thermal correction to Energy=                    0.006548
 Thermal correction to Enthalpy=                  0.007493
 Thermal correction to Gibbs Free Energy=        -0.016503
 Sum of electronic and zero-point Energies=           -100.791521
 Sum of electronic and thermal Energies=              -100.789051
 Sum of electronic and thermal Enthalpies=            -100.788106
 Sum of electronic and thermal Free Energies=         -100.812102

                     E (Thermal)             CV                S
                      KCal/Mol        Cal/Mol-Kelvin    Cal/Mol-Kelvin
 Total                    4.109              5.982             50.503
 Electronic               0.000              0.000              1.377
 Translational            0.889              2.981             35.068
 Rotational               0.592              1.987             13.772
 Vibrational              2.628              1.014              0.285

 Normal termination of Gaussian 16 at Fri Aug 22 20:09:25 2025.
