 Gaussian 16, Revision C.01,
 Gaussian 16:  ES64L-G16RevC.01  3-Jul-2019

 -----------------------------------------
 # sp b3lyp/6-311g** Force nosymm scf=(qc)
 -----------------------------------------

 -------------------
 Title Card Required
 -------------------
 Symbolic Z-matrix:
 Charge =  0 Multiplicity = 2

                          Input orientation:
 ---------------------------------------------------------------------
 Center     Atomic      Atomic             Coordinates (Angstroms)
 Number     Number       Type             X           Y           Z
 ---------------------------------------------------------------------
      1          1           0        0.000000    0.000000    0.000000
      2          1           0       -3.850000    0.000000    0.000000
      3          9           0        1.600000    0.000000    0.000000
 ---------------------------------------------------------------------

 SCF Done:  E(UB3LYP) =  -100.833638670     a.u. after    7 cycles

 Alpha  occ. eigenvalues --  -24.64304  -1.09186  -0.42008  -0.36194  -0.36194
 Alpha  occ. eigenvalues --   -0.33712
 Alpha virt. eigenvalues --   -0.16858   0.20103   0.26972   0.94091   0.94091
 Alpha virt. eigenvalues --    1.00813   1.07035   1.23762   1.23795   1.23795
 Alpha virt. eigenvalues --    1.29297   1.29297   1.72659   2.12462   2.17426

  Beta  occ. eigenvalues --  -24.64330  -1.09254  -0.42059  -0.36219  -0.36219
  Beta virt. eigenvalues --   -0.16874  -0.06301   0.22744   0.38227   0.94103
  Beta virt. eigenvalues --    0.94103   1.00805   1.07037   1.29451   1.29451
  Beta virt. eigenvalues --    1.46244   1.46593   1.46593   1.72759   2.16309

 Mulliken charges and spin densities:
               1          2
     1  H    0.339101   0.008848
     2  H    0.000893   0.999067
     3  F   -0.339994  -0.007914
 Sum of Mulliken charges =  -0.00000   1.00000

 Dipole moment (field-independent basis, Debye):
    X=             -2.6841    Y=              0.0000    Z=              0.0000  Tot=              2.6841
 Quadrupole moment (field-independent basis, Debye-Ang):
   XX=            -10.3211   YY=             -7.3722   ZZ=             -7.3722
   XY=              0.0000   XZ=              0.0000   YZ=              0.0000

  Exact polarizability:      16.973       0.000       2.143      -0.000      -0.000       2.143
 Approx polarizability:      36.302      -0.000       2.060      -0.000      -0.000       2.060

 ******    2 imaginary frequencies (negative Signs) ******

                      1                      2                      3
                      A                      A                      A
 Frequencies --  -1182.4609               -54.7440               944.7013
 Red. masses --      1.0580                 1.0536                 1.0311
 Frc consts  --      0.8715                 0.0019                 0.5422
 IR Inten    --     34.4714                 0.0739               111.1852

                      4
                      A
 Frequencies --    944.7013
 Red. masses --      1.0311
 Frc consts  --      0.5422
 IR Inten    --    111.1852

 - Thermochemistry -
 -------------------
 Temperature   298.150 Kelvin.  Pressure   1.00000 Atm.
 Atom     1 has atomic number  1 and mass   1.00783

 Molecular mass:    21.01405 amu.
 Principal axes and moments of inertia in atomic units:
                           1         2         3
     Eigenvalues --     0.00000 107.53402 107.53402
           X            1.00000  -0.00000   0.00000
           Y            0.00000   1.00000   0.00000
           Z            0.00000   0.00000   1.00000
 This molecule is a prolate symmetric top.
 Rotational symmetry number  1.
 Rotational temperature (Kelvin)      0.80546
 Rotational constant (GHZ):          16.782979
    2 imaginary frequencies ignored.
 Zero-point vibrational energy      11301.1 (Joules/Mol)
                                    2.70104 (Kcal/Mol)
 Vibrational temperatures:   1359.21  1359.21
          (Kelvin)

 Zero-point correction=                           0.004304 (Hartree/Particle)
 Thermal correction to Energy=                    0.006756
 Thermal correction to Enthalpy=                  0.007700
 Thermal correction to Gibbs Free Energy=        -0.016255
 Sum of electronic and zero-point Energies=           -100.829334
 Sum of electronic and thermal Energies=              -100.826883
 Sum of electronic and thermal Enthalpies=            -100.825939
 Sum of electronic and thermal Free Energies=         -100.849894

                     E (Thermal)             CV                S
                      KCal/Mol        Cal/Mol-Kelvin    Cal/Mol-Kelvin
 Total                    4.239              5.852             50.418
 Electronic               0.000              0.000              1.377
 Translational            0.889              2.981             35.068
 Rotational               0.592              1.987             13.739
 Vibrational              2.758              0.884              0.234

 Normal termination of Gaussian 16 at Fri Aug 22 16:32:51 2025.
