 Gaussian 16, Revision C.01,
 Gaussian 16:  ES64L-G16RevC.01  3-Jul-2019

 -----------------------------------------
 # sp b3lyp/6-311g** Force nosymm scf=(qc)
 -----------------------------------------

 -------------------
 Title Card Required
 -------------------
 Symbolic Z-matrix:
 Charge =  0 Multiplicity = 2

                          Input orientation:
 ---------------------------------------------------------------------
 Center     Atomic      Atomic             Coordinates (Angstroms)
 Number     Number       Type             X           Y           Z
 ---------------------------------------------------------------------
      1          1           0        0.000000    0.000000    0.000000
      2          1           0       -3.550000    0.000000    0.000000
      3          9           0        0.700000    0.000000    0.000000
 ---------------------------------------------------------------------

 SCF Done:  E(UB3LYP) =  -100.874771749     a.u. after    6 cycles

 Alpha  occ. eigenvalues --  -24.63197  -1.28231  -0.58588  -0.41763  -0.41763
 Alpha  occ. eigenvalues --   -0.33391
 Alpha virt. eigenvalues --    0.06451   0.24833   0.52433   0.93481   0.93481
 Alpha virt. eigenvalues --    0.95786   1.23883   1.24119   1.24119   1.31337
 Alpha virt. eigenvalues --    1.44061   1.44061   1.97870   2.14548   2.86575

  Beta  occ. eigenvalues --  -24.63197  -1.28229  -0.58587  -0.41763  -0.41763
  Beta virt. eigenvalues --   -0.05277   0.06887   0.39417   0.52421   0.93481
  Beta virt. eigenvalues --    0.93481   0.95778   1.30857   1.44061   1.44061
  Beta virt. eigenvalues --    1.50771   1.50771   1.50883   1.97879   2.44751

 Mulliken charges and spin densities:
               1          2
     1  H    0.262130   0.000545
     2  H    0.000692   0.999160
     3  F   -0.262822   0.000296
 Sum of Mulliken charges =   0.00000   1.00000

 Dipole moment (field-independent basis, Debye):
    X=             -1.5896    Y=             -0.0000    Z=             -0.0000  Tot=              1.5896
 Quadrupole moment (field-independent basis, Debye-Ang):
   XX=             -7.2896   YY=             -6.6630   ZZ=             -6.6630
   XY=             -0.0000   XZ=             -0.0000   YZ=             -0.0000

  Exact polarizability:       3.949      -0.000       2.447       0.000      -0.000       2.447
 Approx polarizability:       4.305       0.000       2.428       0.000      -0.000       2.428

 ******    3 imaginary frequencies (negative Signs) ******

                      1                      2                      3
                      A                      A                      A
 Frequencies --  -3562.4140             -3562.4140               -38.6340
 Red. masses --      1.0421                 1.0421                 1.0532
 Frc consts  --      7.7924                 7.7924                 0.0009
 IR Inten    --    214.7038               214.7038                 0.0242

                      4
                      A
 Frequencies --   9073.2324
 Red. masses --      1.0583
 Frc consts  --     51.3320
 IR Inten    --    105.5622

 - Thermochemistry -
 -------------------
 Temperature   298.150 Kelvin.  Pressure   1.00000 Atm.
 Atom     1 has atomic number  1 and mass   1.00783

 Molecular mass:    21.01405 amu.
 Principal axes and moments of inertia in atomic units:
                           1         2         3
     Eigenvalues --     0.00000  62.54131  62.54131
           X            1.00000  -0.00000   0.00000
           Y            0.00000   1.00000   0.00000
           Z            0.00000   0.00000   1.00000
 This molecule is a prolate symmetric top.
 Rotational symmetry number  1.
 Rotational temperature (Kelvin)      1.38491
 Rotational constant (GHZ):          28.856788
    3 imaginary frequencies ignored.
 Zero-point vibrational energy      54270.0 (Joules/Mol)
                                   12.97084 (Kcal/Mol)
 Vibrational temperatures:  13054.36
          (Kelvin)

 Zero-point correction=                           0.020670 (Hartree/Particle)
 Thermal correction to Energy=                    0.023031
 Thermal correction to Enthalpy=                  0.023975
 Thermal correction to Gibbs Free Energy=         0.000642
 Sum of electronic and zero-point Energies=           -100.854101
 Sum of electronic and thermal Energies=              -100.851741
 Sum of electronic and thermal Enthalpies=            -100.850797
 Sum of electronic and thermal Free Energies=         -100.874129

                     E (Thermal)             CV                S
                      KCal/Mol        Cal/Mol-Kelvin    Cal/Mol-Kelvin
 Total                   14.452              4.968             49.108
 Electronic               0.000              0.000              1.377
 Translational            0.889              2.981             35.068
 Rotational               0.592              1.987             12.662
 Vibrational             12.971              0.000              0.000

 Normal termination of Gaussian 16 at Fri Aug 22 15:47:25 2025.
