 Gaussian 16, Revision C.01,
 Gaussian 16:  ES64L-G16RevC.01  3-Jul-2019

 -----------------------------------------
 # sp b3lyp/6-311g** Force nosymm scf=(qc)
 -----------------------------------------

 -------------------
 Title Card Required
 -------------------
 Symbolic Z-matrix:
 Charge =  0 Multiplicity = 2

                          Input orientation:
 ---------------------------------------------------------------------
 Center     Atomic      Atomic             Coordinates (Angstroms)
 Number     Number       Type             X           Y           Z
 ---------------------------------------------------------------------
      1          1           0        0.000000    0.000000    0.000000
      2          1           0       -3.650000    0.000000    0.000000
      3          9           0        0.700000    0.000000    0.000000
 ---------------------------------------------------------------------

 SCF Done:  E(UB3LYP) =  -100.874761854     a.u. after    6 cycles

 Alpha  occ. eigenvalues --  -24.63199  -1.28232  -0.58589  -0.41764  -0.41764
 Alpha  occ. eigenvalues --   -0.33328
 Alpha virt. eigenvalues --    0.06445   0.24698   0.52463   0.93480   0.93480
 Alpha virt. eigenvalues --    0.95785   1.24004   1.24180   1.24180   1.31031
 Alpha virt. eigenvalues --    1.44059   1.44059   1.97806   2.14465   2.86571

  Beta  occ. eigenvalues --  -24.63198  -1.28231  -0.58588  -0.41764  -0.41764
  Beta virt. eigenvalues --   -0.05178   0.06791   0.39350   0.52440   0.93480
  Beta virt. eigenvalues --    0.93480   0.95778   1.30689   1.44059   1.44059
  Beta virt. eigenvalues --    1.50645   1.50645   1.50818   1.97824   2.44767

 Mulliken charges and spin densities:
               1          2
     1  H    0.262288   0.000454
     2  H    0.000571   0.999322
     3  F   -0.262859   0.000224
 Sum of Mulliken charges =   0.00000   1.00000

 Dipole moment (field-independent basis, Debye):
    X=             -1.5875    Y=             -0.0000    Z=             -0.0000  Tot=              1.5875
 Quadrupole moment (field-independent basis, Debye-Ang):
   XX=             -7.2997   YY=             -6.6631   ZZ=             -6.6631
   XY=             -0.0000   XZ=             -0.0000   YZ=             -0.0000

  Exact polarizability:       3.876      -0.000       2.446       0.000       0.000       2.446
 Approx polarizability:       4.240       0.000       2.426       0.000       0.000       2.426

 ******    3 imaginary frequencies (negative Signs) ******

                      1                      2                      3
                      A                      A                      A
 Frequencies --  -3564.5404             -3564.5404               -36.3756
 Red. masses --      1.0425                 1.0425                 1.0532
 Frc consts  --      7.8043                 7.8043                 0.0008
 IR Inten    --    215.3174               215.3174                 0.0181

                      4
                      A
 Frequencies --   9073.2203
 Red. masses --      1.0583
 Frc consts  --     51.3318
 IR Inten    --    104.9079

 - Thermochemistry -
 -------------------
 Temperature   298.150 Kelvin.  Pressure   1.00000 Atm.
 Atom     1 has atomic number  1 and mass   1.00783

 Molecular mass:    21.01405 amu.
 Principal axes and moments of inertia in atomic units:
                           1         2         3
     Eigenvalues --     0.00000  65.46385  65.46385
           X            1.00000  -0.00000   0.00000
           Y            0.00000   1.00000   0.00000
           Z            0.00000   0.00000   1.00000
 This molecule is a prolate symmetric top.
 Rotational symmetry number  1.
 Rotational temperature (Kelvin)      1.32308
 Rotational constant (GHZ):          27.568518
    3 imaginary frequencies ignored.
 Zero-point vibrational energy      54269.9 (Joules/Mol)
                                   12.97082 (Kcal/Mol)
 Vibrational temperatures:  13054.34
          (Kelvin)

 Zero-point correction=                           0.020670 (Hartree/Particle)
 Thermal correction to Energy=                    0.023031
 Thermal correction to Enthalpy=                  0.023975
 Thermal correction to Gibbs Free Energy=         0.000599
 Sum of electronic and zero-point Energies=           -100.854092
 Sum of electronic and thermal Energies=              -100.851731
 Sum of electronic and thermal Enthalpies=            -100.850787
 Sum of electronic and thermal Free Energies=         -100.874163

                     E (Thermal)             CV                S
                      KCal/Mol        Cal/Mol-Kelvin    Cal/Mol-Kelvin
 Total                   14.452              4.968             49.199
 Electronic               0.000              0.000              1.377
 Translational            0.889              2.981             35.068
 Rotational               0.592              1.987             12.753
 Vibrational             12.971              0.000              0.000

 Normal termination of Gaussian 16 at Fri Aug 22 15:47:28 2025.
