 Gaussian 16, Revision C.01,
 Gaussian 16:  ES64L-G16RevC.01  3-Jul-2019

 -----------------------------------------
 # sp b3lyp/6-311g** Force nosymm scf=(qc)
 -----------------------------------------

 -------------------
 Title Card Required
 -------------------
 Symbolic Z-matrix:
 Charge =  0 Multiplicity = 2

                          Input orientation:
 ---------------------------------------------------------------------
 Center     Atomic      Atomic             Coordinates (Angstroms)
 Number     Number       Type             X           Y           Z
 ---------------------------------------------------------------------
      1          1           0        0.000000    0.000000    0.000000
      2          1           0       -1.200000    0.000000    0.000000
      3          9           0        3.950000    0.000000    0.000000
 ---------------------------------------------------------------------

 SCF Done:  E(UB3LYP) =  -100.871535332     a.u. after   64 cycles

 Alpha  occ. eigenvalues --  -24.76210  -1.22112  -0.55315  -0.46490  -0.46472
 Alpha  occ. eigenvalues --   -0.36344
 Alpha virt. eigenvalues --   -0.04098   0.22842   0.34302   0.86052   0.90929
 Alpha virt. eigenvalues --    0.91354   1.00899   1.12897   1.12898   1.22145
 Alpha virt. eigenvalues --    1.54397   1.54398   2.07198   2.31555   2.54305

  Beta  occ. eigenvalues --  -24.73055  -1.13038  -0.43327  -0.43308  -0.36344
  Beta virt. eigenvalues --   -0.25966  -0.04096   0.22845   0.34313   0.92430
  Beta virt. eigenvalues --    0.92848   0.95518   1.05048   1.12897   1.12898
  Beta virt. eigenvalues --    1.22147   1.54396   1.54398   2.07200   2.31556

 Mulliken charges and spin densities:
               1          2
     1  H    0.000974  -0.000058
     2  H   -0.001889  -0.000042
     3  F    0.000915   1.000100
 Sum of Mulliken charges =   0.00000   1.00000

 Dipole moment (field-independent basis, Debye):
    X=              0.0209    Y=             -0.0000    Z=              0.0000  Tot=              0.0209
 Quadrupole moment (field-independent basis, Debye-Ang):
   XX=             -6.3412   YY=             -6.7969   ZZ=             -7.3250
   XY=             -0.0000   XZ=              0.0000   YZ=             -0.3423

  Exact polarizability:      15.772      -0.000       2.458       0.000      -0.186       2.170
 Approx polarizability:      23.897      -0.000       2.574       0.000      -0.231       2.218

 ******    2 imaginary frequencies (negative Signs) ******

                      1                      2                      3
                      A                      A                      A
 Frequencies --   -454.5844               -60.6795              1470.8629
 Red. masses --      1.0078                 1.1085                 1.0096
 Frc consts  --      0.1227                 0.0024                 1.2868
 IR Inten    --      0.0530                 0.0389                 0.0043

                      4
                      A
 Frequencies --   1473.4033
 Red. masses --      1.0096
 Frc consts  --      1.2913
 IR Inten    --      0.0011

 - Thermochemistry -
 -------------------
 Temperature   298.150 Kelvin.  Pressure   1.00000 Atm.
 Atom     1 has atomic number  1 and mass   1.00783

 Molecular mass:    21.01405 amu.
 Principal axes and moments of inertia in atomic units:
                           1         2         3
     Eigenvalues --     0.00000 137.31466 137.31466
           X            1.00000  -0.00000   0.00000
           Y            0.00000   1.00000   0.00000
           Z            0.00000   0.00000   1.00000
 This molecule is a prolate symmetric top.
 Rotational symmetry number  1.
 Rotational temperature (Kelvin)      0.63077
 Rotational constant (GHZ):          13.143107
    2 imaginary frequencies ignored.
 Zero-point vibrational energy      17610.6 (Joules/Mol)
                                    4.20904 (Kcal/Mol)
 Vibrational temperatures:   2116.24  2119.90
          (Kelvin)

 Zero-point correction=                           0.006708 (Hartree/Particle)
 Thermal correction to Energy=                    0.009079
 Thermal correction to Enthalpy=                  0.010023
 Thermal correction to Gibbs Free Energy=        -0.014065
 Sum of electronic and zero-point Energies=           -100.864828
 Sum of electronic and thermal Energies=              -100.862456
 Sum of electronic and thermal Enthalpies=            -100.861512
 Sum of electronic and thermal Free Energies=         -100.885600

                     E (Thermal)             CV                S
                      KCal/Mol        Cal/Mol-Kelvin    Cal/Mol-Kelvin
 Total                    5.697              5.133             50.697
 Electronic               0.000              0.000              1.377
 Translational            0.889              2.981             35.068
 Rotational               0.592              1.987             14.225
 Vibrational              4.216              0.165              0.026

 Normal termination of Gaussian 16 at Sat Aug 23 01:31:45 2025.
