 Gaussian 16, Revision C.01,
 Gaussian 16:  ES64L-G16RevC.01  3-Jul-2019

 -----------------------------------------
 # sp b3lyp/6-311g** Force nosymm scf=(qc)
 -----------------------------------------

 -------------------
 Title Card Required
 -------------------
 Symbolic Z-matrix:
 Charge =  0 Multiplicity = 2

                          Input orientation:
 ---------------------------------------------------------------------
 Center     Atomic      Atomic             Coordinates (Angstroms)
 Number     Number       Type             X           Y           Z
 ---------------------------------------------------------------------
      1          1           0        0.000000    0.000000    0.000000
      2          1           0       -1.600000    0.000000    0.000000
      3          9           0        3.650000    0.000000    0.000000
 ---------------------------------------------------------------------

 SCF Done:  E(UB3LYP) =  -100.806073346     a.u. after  389 cycles

 Alpha  occ. eigenvalues --  -24.76293  -1.22182  -0.55384  -0.46566  -0.46540
 Alpha  occ. eigenvalues --   -0.33267
 Alpha virt. eigenvalues --   -0.10248   0.25415   0.30559   0.85995   0.90872
 Alpha virt. eigenvalues --    0.91679   1.01061   1.06702   1.22406   1.22407
 Alpha virt. eigenvalues --    1.39505   1.39508   1.74579   2.19429   2.43964

  Beta  occ. eigenvalues --  -24.73138  -1.13109  -0.43408  -0.43376  -0.33260
  Beta virt. eigenvalues --   -0.26032  -0.10274   0.25396   0.30620   0.92373
  Beta virt. eigenvalues --    0.93139   0.95462   1.05168   1.06706   1.22399
  Beta virt. eigenvalues --    1.22402   1.39498   1.39500   1.74610   2.19579

 Mulliken charges and spin densities:
               1          2
     1  H    0.000756  -0.452214
     2  H   -0.002484   0.452147
     3  F    0.001728   1.000066
 Sum of Mulliken charges =   0.00000   1.00000

 Dipole moment (field-independent basis, Debye):
    X=              0.0373    Y=              0.0000    Z=              0.0000  Tot=              0.0373
 Quadrupole moment (field-independent basis, Debye-Ang):
   XX=             -6.4296   YY=             -7.7705   ZZ=             -6.9061
   XY=             -0.0000   XZ=              0.0001   YZ=             -0.0076

  Exact polarizability:      23.581      -0.000       2.027       0.000      -0.004       2.489
 Approx polarizability:      41.196      -0.000       2.005       0.000      -0.005       2.587

 ******    2 imaginary frequencies (negative Signs) ******

                      1                      2                      3
                      A                      A                      A
 Frequencies --  -2061.8785               -54.9285              1056.9167
 Red. masses --      1.0078                 1.1085                 1.0110
 Frc consts  --      2.5244                 0.0020                 0.6654
 IR Inten    --      0.0321                 0.1057                 0.0021

                      4
                      A
 Frequencies --   1058.9740
 Red. masses --      1.0110
 Frc consts  --      0.6680
 IR Inten    --      0.0003

 - Thermochemistry -
 -------------------
 Temperature   298.150 Kelvin.  Pressure   1.00000 Atm.
 Atom     1 has atomic number  1 and mass   1.00783

 Molecular mass:    21.01405 amu.
 Principal axes and moments of inertia in atomic units:
                           1         2         3
     Eigenvalues --     0.00000 133.47327 133.47327
           X            1.00000  -0.00000   0.00000
           Y            0.00000   1.00000   0.00000
           Z            0.00000   0.00000   1.00000
 This molecule is a prolate symmetric top.
 Rotational symmetry number  1.
 Rotational temperature (Kelvin)      0.64892
 Rotational constant (GHZ):          13.521368
    2 imaginary frequencies ignored.
 Zero-point vibrational energy      12655.8 (Joules/Mol)
                                    3.02482 (Kcal/Mol)
 Vibrational temperatures:   1520.67  1523.63
          (Kelvin)

 Zero-point correction=                           0.004820 (Hartree/Particle)
 Thermal correction to Energy=                    0.007240
 Thermal correction to Enthalpy=                  0.008184
 Thermal correction to Gibbs Free Energy=        -0.015935
 Sum of electronic and zero-point Energies=           -100.801253
 Sum of electronic and thermal Energies=              -100.798834
 Sum of electronic and thermal Enthalpies=            -100.797890
 Sum of electronic and thermal Free Energies=         -100.822008

                     E (Thermal)             CV                S
                      KCal/Mol        Cal/Mol-Kelvin    Cal/Mol-Kelvin
 Total                    4.543              5.604             50.762
 Electronic               0.000              0.000              1.377
 Translational            0.889              2.981             35.068
 Rotational               0.592              1.987             14.169
 Vibrational              3.062              0.636              0.148

 Normal termination of Gaussian 16 at Fri Aug 22 23:31:42 2025.
