 Gaussian 16, Revision C.01,
 Gaussian 16:  ES64L-G16RevC.01  3-Jul-2019

 -----------------------------------------
 # sp b3lyp/6-311g** Force nosymm scf=(qc)
 -----------------------------------------

 -------------------
 Title Card Required
 -------------------
 Symbolic Z-matrix:
 Charge =  0 Multiplicity = 2

                          Input orientation:
 ---------------------------------------------------------------------
 Center     Atomic      Atomic             Coordinates (Angstroms)
 Number     Number       Type             X           Y           Z
 ---------------------------------------------------------------------
      1          1           0        0.000000    0.000000    0.000000
      2          1           0       -1.400000    0.000000    0.000000
      3          9           0        1.800000    0.000000    0.000000
 ---------------------------------------------------------------------

 SCF Done:  E(UB3LYP) =  -100.857180719     a.u. after   11 cycles

 Alpha  occ. eigenvalues --  -24.68637  -1.15116  -0.48801  -0.40216  -0.40216
 Alpha  occ. eigenvalues --   -0.38975
 Alpha virt. eigenvalues --   -0.08173   0.21527   0.30843   0.88916   0.93325
 Alpha virt. eigenvalues --    0.93325   1.03490   1.13940   1.13940   1.38915
 Alpha virt. eigenvalues --    1.42448   1.42448   1.93017   2.22197   2.47256

  Beta  occ. eigenvalues --  -24.66273  -1.08535  -0.39050  -0.37892  -0.37892
  Beta virt. eigenvalues --   -0.23382  -0.05838   0.23664   0.31121   0.93283
  Beta virt. eigenvalues --    0.94052   0.94052   1.07363   1.16885   1.16885
  Beta virt. eigenvalues --    1.43419   1.43556   1.43556   1.95681   2.23440

 Mulliken charges and spin densities:
               1          2
     1  H    0.121358  -0.274497
     2  H    0.068833   0.535875
     3  F   -0.190192   0.738622
 Sum of Mulliken charges =   0.00000   1.00000

 Dipole moment (field-independent basis, Debye):
    X=             -2.1347    Y=             -0.0000    Z=              0.0000  Tot=              2.1347
 Quadrupole moment (field-independent basis, Debye-Ang):
   XX=             -7.7261   YY=             -7.4022   ZZ=             -7.4022
   XY=             -0.0000   XZ=              0.0000   YZ=              0.0000

  Exact polarizability:      45.276      -0.000       2.197       0.000      -0.000       2.197
 Approx polarizability:      70.667       0.000       2.149      -0.000       0.000       2.149

 ******    2 imaginary frequencies (negative Signs) ******

                      1                      2                      3
                      A                      A                      A
 Frequencies --  -2298.1540              -451.6839              1153.7195
 Red. masses --      1.0159                 1.0989                 1.0152
 Frc consts  --      3.1613                 0.1321                 0.7962
 IR Inten    --    973.2034                 0.8733                 4.1051

                      4
                      A
 Frequencies --   1153.7195
 Red. masses --      1.0152
 Frc consts  --      0.7962
 IR Inten    --      4.1051

 - Thermochemistry -
 -------------------
 Temperature   298.150 Kelvin.  Pressure   1.00000 Atm.
 Atom     1 has atomic number  1 and mass   1.00783

 Molecular mass:    21.01405 amu.
 Principal axes and moments of inertia in atomic units:
                           1         2         3
     Eigenvalues --     0.00000  44.19946  44.19946
           X            1.00000  -0.00000   0.00000
           Y            0.00000   1.00000   0.00000
           Z            0.00000   0.00000   1.00000
 This molecule is a prolate symmetric top.
 Rotational symmetry number  1.
 Rotational temperature (Kelvin)      1.95961
 Rotational constant (GHZ):          40.831746
    2 imaginary frequencies ignored.
 Zero-point vibrational energy      13801.6 (Joules/Mol)
                                    3.29865 (Kcal/Mol)
 Vibrational temperatures:   1659.95  1659.95
          (Kelvin)

 Zero-point correction=                           0.005257 (Hartree/Particle)
 Thermal correction to Energy=                    0.007658
 Thermal correction to Enthalpy=                  0.008602
 Thermal correction to Gibbs Free Energy=        -0.014451
 Sum of electronic and zero-point Energies=           -100.851924
 Sum of electronic and thermal Energies=              -100.849523
 Sum of electronic and thermal Enthalpies=            -100.848579
 Sum of electronic and thermal Free Energies=         -100.871632

                     E (Thermal)             CV                S
                      KCal/Mol        Cal/Mol-Kelvin    Cal/Mol-Kelvin
 Total                    4.805              5.442             48.518
 Electronic               0.000              0.000              1.377
 Translational            0.889              2.981             35.068
 Rotational               0.592              1.987             11.973
 Vibrational              3.324              0.474              0.100

 Normal termination of Gaussian 16 at Fri Aug 22 16:42:58 2025.
