 Gaussian 16, Revision C.01,
 Gaussian 16:  ES64L-G16RevC.01  3-Jul-2019

 -----------------------------------------
 # sp b3lyp/6-311g** Force nosymm scf=(qc)
 -----------------------------------------

 -------------------
 Title Card Required
 -------------------
 Symbolic Z-matrix:
 Charge =  0 Multiplicity = 2

                          Input orientation:
 ---------------------------------------------------------------------
 Center     Atomic      Atomic             Coordinates (Angstroms)
 Number     Number       Type             X           Y           Z
 ---------------------------------------------------------------------
      1          1           0        0.000000    0.000000    0.000000
      2          1           0       -1.400000    0.000000    0.000000
      3          9           0        2.000000    0.000000    0.000000
 ---------------------------------------------------------------------

 SCF Done:  E(UB3LYP) =  -100.848094561     a.u. after   15 cycles

 Alpha  occ. eigenvalues --  -24.70540  -1.16883  -0.50132  -0.41770  -0.41770
 Alpha  occ. eigenvalues --   -0.38256
 Alpha virt. eigenvalues --   -0.08897   0.22186   0.31655   0.86413   0.93314
 Alpha virt. eigenvalues --    0.93314   1.03566   1.14398   1.14398   1.31401
 Alpha virt. eigenvalues --    1.42329   1.42329   1.90407   2.22656   2.47855

  Beta  occ. eigenvalues --  -24.67894  -1.09427  -0.39149  -0.39149  -0.37785
  Beta virt. eigenvalues --   -0.24007  -0.07139   0.23841   0.31799   0.91239
  Beta virt. eigenvalues --    0.94400   0.94400   1.07362   1.16186   1.16186
  Beta virt. eigenvalues --    1.35452   1.43278   1.43278   1.92187   2.23797

 Mulliken charges and spin densities:
               1          2
     1  H    0.071441  -0.263334
     2  H    0.060632   0.432974
     3  F   -0.132073   0.830360
 Sum of Mulliken charges =   0.00000   1.00000

 Dipole moment (field-independent basis, Debye):
    X=             -1.7103    Y=              0.0000    Z=              0.0000  Tot=              1.7103
 Quadrupole moment (field-independent basis, Debye-Ang):
   XX=             -7.4218   YY=             -7.4926   ZZ=             -7.4926
   XY=              0.0000   XZ=              0.0000   YZ=              0.0000

  Exact polarizability:      49.708       0.000       2.139       0.000       0.000       2.139
 Approx polarizability:      76.634      -0.000       2.105      -0.000      -0.000       2.105

 ******    2 imaginary frequencies (negative Signs) ******

                      1                      2                      3
                      A                      A                      A
 Frequencies --  -2083.9376              -410.3863              1191.1191
 Red. masses --      1.0124                 1.1030                 1.0142
 Frc consts  --      2.5905                 0.1094                 0.8478
 IR Inten    --   1032.5270                 9.0960                 0.9349

                      4
                      A
 Frequencies --   1191.1191
 Red. masses --      1.0142
 Frc consts  --      0.8478
 IR Inten    --      0.9349

 - Thermochemistry -
 -------------------
 Temperature   298.150 Kelvin.  Pressure   1.00000 Atm.
 Atom     1 has atomic number  1 and mass   1.00783

 Molecular mass:    21.01405 amu.
 Principal axes and moments of inertia in atomic units:
                           1         2         3
     Eigenvalues --     0.00000  50.96736  50.96736
           X            1.00000  -0.00000   0.00000
           Y            0.00000   1.00000   0.00000
           Z            0.00000   0.00000   1.00000
 This molecule is a prolate symmetric top.
 Rotational symmetry number  1.
 Rotational temperature (Kelvin)      1.69940
 Rotational constant (GHZ):          35.409748
    2 imaginary frequencies ignored.
 Zero-point vibrational energy      14248.9 (Joules/Mol)
                                    3.40558 (Kcal/Mol)
 Vibrational temperatures:   1713.75  1713.75
          (Kelvin)

 Zero-point correction=                           0.005427 (Hartree/Particle)
 Thermal correction to Energy=                    0.007822
 Thermal correction to Enthalpy=                  0.008767
 Thermal correction to Gibbs Free Energy=        -0.014414
 Sum of electronic and zero-point Energies=           -100.842667
 Sum of electronic and thermal Energies=              -100.840272
 Sum of electronic and thermal Enthalpies=            -100.839328
 Sum of electronic and thermal Free Energies=         -100.862508

                     E (Thermal)             CV                S
                      KCal/Mol        Cal/Mol-Kelvin    Cal/Mol-Kelvin
 Total                    4.909              5.389             48.787
 Electronic               0.000              0.000              1.377
 Translational            0.889              2.981             35.068
 Rotational               0.592              1.987             12.256
 Vibrational              3.427              0.421              0.086

 Normal termination of Gaussian 16 at Fri Aug 22 16:55:57 2025.
