 Gaussian 16, Revision C.01,
 Gaussian 16:  ES64L-G16RevC.01  3-Jul-2019

 -----------------------------------------
 # sp b3lyp/6-311g** Force nosymm scf=(qc)
 -----------------------------------------

 -------------------
 Title Card Required
 -------------------
 Symbolic Z-matrix:
 Charge =  0 Multiplicity = 2

                          Input orientation:
 ---------------------------------------------------------------------
 Center     Atomic      Atomic             Coordinates (Angstroms)
 Number     Number       Type             X           Y           Z
 ---------------------------------------------------------------------
      1          1           0        0.000000    0.000000    0.000000
      2          1           0       -2.000000    0.000000    0.000000
      3          9           0        0.600000    0.000000    0.000000
 ---------------------------------------------------------------------

 SCF Done:  E(UB3LYP) =  -100.687282762     a.u. after    7 cycles

 Alpha  occ. eigenvalues --  -24.62675  -1.34693  -0.61104  -0.42923  -0.42923
 Alpha  occ. eigenvalues --   -0.35084
 Alpha virt. eigenvalues --    0.11034   0.24311   0.54734   0.92165   0.92165
 Alpha virt. eigenvalues --    0.93623   1.20260   1.22346   1.22346   1.50388
 Alpha virt. eigenvalues --    1.50388   1.56918   1.97685   2.18687   3.36924

  Beta  occ. eigenvalues --  -24.62648  -1.34610  -0.60997  -0.42907  -0.42907
  Beta virt. eigenvalues --   -0.09876   0.12435   0.35376   0.55914   0.92157
  Beta virt. eigenvalues --    0.92157   0.93738   1.30048   1.42478   1.42478
  Beta virt. eigenvalues --    1.50607   1.50607   1.65223   2.01065   2.44326

 Mulliken charges and spin densities:
               1          2
     1  H    0.221064   0.009985
     2  H    0.009184   0.986502
     3  F   -0.230248   0.003514
 Sum of Mulliken charges =   0.00000   1.00000

 Dipole moment (field-independent basis, Debye):
    X=             -1.5075    Y=             -0.0000    Z=             -0.0000  Tot=              1.5075
 Quadrupole moment (field-independent basis, Debye-Ang):
   XX=             -6.7434   YY=             -6.5219   ZZ=             -6.5219
   XY=             -0.0000   XZ=             -0.0000   YZ=              0.0000

  Exact polarizability:       5.739       0.000       2.482      -0.000       0.000       2.482
 Approx polarizability:       5.579       0.000       2.475      -0.000       0.000       2.475

 ******    2 imaginary frequencies (negative Signs) ******

                      1                      2                      3
                      A                      A                      A
 Frequencies --  -5799.2463             -5799.2463               375.3338
 Red. masses --      1.0362                 1.0362                 1.0533
 Frc consts  --     20.5327                20.5327                 0.0874
 IR Inten    --    203.6863               203.6863                 0.0056

                      4
                      A
 Frequencies --  13070.1949
 Red. masses --      1.0583
 Frc consts  --    106.5158
 IR Inten    --    117.3962

 - Thermochemistry -
 -------------------
 Temperature   298.150 Kelvin.  Pressure   1.00000 Atm.
 Atom     1 has atomic number  1 and mass   1.00783

 Molecular mass:    21.01405 amu.
 Principal axes and moments of inertia in atomic units:
                           1         2         3
     Eigenvalues --     0.00000  23.85745  23.85745
           X            1.00000  -0.00000   0.00000
           Y            0.00000   1.00000   0.00000
           Z            0.00000   0.00000   1.00000
 This molecule is a prolate symmetric top.
 Rotational symmetry number  1.
 Rotational temperature (Kelvin)      3.63048
 Rotational constant (GHZ):          75.646874
    2 imaginary frequencies ignored.
 Zero-point vibrational energy      80422.1 (Joules/Mol)
                                   19.22135 (Kcal/Mol)
 Warning -- explicit consideration of   1 degrees of freedom as
           vibrations may cause significant error
 Vibrational temperatures:    540.02 18805.10
          (Kelvin)

 Zero-point correction=                           0.030631 (Hartree/Particle)
 Thermal correction to Energy=                    0.033326
 Thermal correction to Enthalpy=                  0.034270
 Thermal correction to Gibbs Free Energy=         0.011345
 Sum of electronic and zero-point Energies=           -100.656652
 Sum of electronic and thermal Energies=              -100.653957
 Sum of electronic and thermal Enthalpies=            -100.653013
 Sum of electronic and thermal Free Energies=         -100.675938

                     E (Thermal)             CV                S
                      KCal/Mol        Cal/Mol-Kelvin    Cal/Mol-Kelvin
 Total                   20.912              6.491             48.251
 Electronic               0.000              0.000              1.377
 Translational            0.889              2.981             35.068
 Rotational               0.592              1.987             10.747
 Vibrational             19.431              1.523              1.058
 Vibration     1          0.746              1.523              1.058

 Normal termination of Gaussian 16 at Fri Aug 22 15:41:42 2025.
