 Gaussian 16, Revision C.01,
 Gaussian 16:  ES64L-G16RevC.01  3-Jul-2019

 -----------------------------------------
 # sp b3lyp/6-311g** Force nosymm scf=(qc)
 -----------------------------------------

 -------------------
 Title Card Required
 -------------------
 Symbolic Z-matrix:
 Charge =  0 Multiplicity = 2

                          Input orientation:
 ---------------------------------------------------------------------
 Center     Atomic      Atomic             Coordinates (Angstroms)
 Number     Number       Type             X           Y           Z
 ---------------------------------------------------------------------
      1          1           0        0.000000    0.000000    0.000000
      2          1           0       -2.650000    0.000000    0.000000
      3          9           0        0.500000    0.000000    0.000000
 ---------------------------------------------------------------------

 SCF Done:  E(UB3LYP) =  -100.269049436     a.u. after    6 cycles

 Alpha  occ. eigenvalues --  -24.63013  -1.42326  -0.63499  -0.44310  -0.44310
 Alpha  occ. eigenvalues --   -0.33986
 Alpha virt. eigenvalues --    0.09098   0.25757   0.62380   0.89066   0.90182
 Alpha virt. eigenvalues --    0.90182   1.19951   1.23555   1.23555   1.45870
 Alpha virt. eigenvalues --    1.58533   1.58533   1.99873   2.15175   3.76656

  Beta  occ. eigenvalues --  -24.63009  -1.42313  -0.63493  -0.44309  -0.44309
  Beta virt. eigenvalues --   -0.07050   0.10298   0.38873   0.61887   0.89140
  Beta virt. eigenvalues --    0.90168   0.90168   1.33618   1.47440   1.47440
  Beta virt. eigenvalues --    1.56699   1.58533   1.58533   1.99905   2.45386

 Mulliken charges and spin densities:
               1          2
     1  H    0.119872   0.002458
     2  H    0.003618   0.995703
     3  F   -0.123490   0.001839
 Sum of Mulliken charges =   0.00000   1.00000

 Dipole moment (field-independent basis, Debye):
    X=             -1.3331    Y=             -0.0000    Z=             -0.0000  Tot=              1.3331
 Quadrupole moment (field-independent basis, Debye-Ang):
   XX=             -6.5282   YY=             -6.4352   ZZ=             -6.4352
   XY=             -0.0000   XZ=             -0.0000   YZ=              0.0000

  Exact polarizability:       4.086      -0.000       2.428       0.000       0.000       2.428
 Approx polarizability:       4.094       0.000       2.409       0.000       0.000       2.409

 ******    2 imaginary frequencies (negative Signs) ******

                      1                      2                      3
                      A                      A                      A
 Frequencies --  -9553.6088             -9553.6088                97.0960
 Red. masses --      1.0427                 1.0427                 1.0532
 Frc consts  --     56.0722                56.0722                 0.0059
 IR Inten    --    270.4016               270.4016                 0.1098

                      4
                      A
 Frequencies --  19158.9856
 Red. masses --      1.0583
 Frc consts  --    228.8800
 IR Inten    --     82.5782

 - Thermochemistry -
 -------------------
 Temperature   298.150 Kelvin.  Pressure   1.00000 Atm.
 Atom     1 has atomic number  1 and mass   1.00783

 Molecular mass:    21.01405 amu.
 Principal axes and moments of inertia in atomic units:
                           1         2         3
     Eigenvalues --     0.00000  34.31136  34.31136
           X            1.00000  -0.00000   0.00000
           Y            0.00000   1.00000   0.00000
           Z            0.00000   0.00000   1.00000
 This molecule is a prolate symmetric top.
 Rotational symmetry number  1.
 Rotational temperature (Kelvin)      2.52435
 Rotational constant (GHZ):          52.598943
    2 imaginary frequencies ignored.
 Zero-point vibrational energy     115176.9 (Joules/Mol)
                                   27.52795 (Kcal/Mol)
 Warning -- explicit consideration of   1 degrees of freedom as
           vibrations may cause significant error
 Vibrational temperatures:    139.70 27565.51
          (Kelvin)

 Zero-point correction=                           0.043869 (Hartree/Particle)
 Thermal correction to Energy=                    0.046969
 Thermal correction to Enthalpy=                  0.047913
 Thermal correction to Gibbs Free Energy=         0.023479
 Sum of electronic and zero-point Energies=           -100.225181
 Sum of electronic and thermal Energies=              -100.222080
 Sum of electronic and thermal Enthalpies=            -100.221136
 Sum of electronic and thermal Free Energies=         -100.245570

                     E (Thermal)             CV                S
                      KCal/Mol        Cal/Mol-Kelvin    Cal/Mol-Kelvin
 Total                   29.474              6.919             51.427
 Electronic               0.000              0.000              1.377
 Translational            0.889              2.981             35.068
 Rotational               0.592              1.987             11.469
 Vibrational             27.992              1.951              3.512
 Vibration     1          0.603              1.951              3.512

 Normal termination of Gaussian 16 at Fri Aug 22 15:37:22 2025.
