 Gaussian 16, Revision C.01,
 Gaussian 16:  ES64L-G16RevC.01  3-Jul-2019

 -----------------------------------------
 # sp b3lyp/6-311g** Force nosymm scf=(qc)
 -----------------------------------------

 -------------------
 Title Card Required
 -------------------
 Symbolic Z-matrix:
 Charge =  0 Multiplicity = 2

                          Input orientation:
 ---------------------------------------------------------------------
 Center     Atomic      Atomic             Coordinates (Angstroms)
 Number     Number       Type             X           Y           Z
 ---------------------------------------------------------------------
      1          1           0        0.000000    0.000000    0.000000
      2          1           0       -1.200000    0.000000    0.000000
      3          9           0        0.950000    0.000000    0.000000
 ---------------------------------------------------------------------

 SCF Done:  E(UB3LYP) =  -100.966370642     a.u. after    6 cycles

 Alpha  occ. eigenvalues --  -24.63985  -1.17921  -0.56169  -0.39256  -0.39256
 Alpha  occ. eigenvalues --   -0.36761
 Alpha virt. eigenvalues --    0.12014   0.19454   0.41261   0.92489   0.92489
 Alpha virt. eigenvalues --    0.97763   1.09983   1.09983   1.34994   1.52002
 Alpha virt. eigenvalues --    1.52002   1.57990   2.15344   2.27558   2.80684

  Beta  occ. eigenvalues --  -24.63456  -1.16584  -0.52695  -0.38791  -0.38791
  Beta virt. eigenvalues --   -0.17133   0.13890   0.23758   0.46299   0.93369
  Beta virt. eigenvalues --    0.93369   0.98851   1.17722   1.17722   1.40060
  Beta virt. eigenvalues --    1.57408   1.57408   1.63896   2.20424   2.38817

 Mulliken charges and spin densities:
               1          2
     1  H    0.278960  -0.007489
     2  H    0.026792   0.875127
     3  F   -0.305752   0.132361
 Sum of Mulliken charges =   0.00000   1.00000

 Dipole moment (field-independent basis, Debye):
    X=             -2.0735    Y=              0.0000    Z=              0.0000  Tot=              2.0735
 Quadrupole moment (field-independent basis, Debye-Ang):
   XX=             -7.6002   YY=             -6.7207   ZZ=             -6.7207
   XY=              0.0000   XZ=              0.0000   YZ=              0.0000

  Exact polarizability:      12.985      -0.000       2.570       0.000      -0.000       2.570
 Approx polarizability:      14.285      -0.000       2.585       0.000      -0.000       2.585

 ******    2 imaginary frequencies (negative Signs) ******

                      1                      2                      3
                      A                      A                      A
 Frequencies --   -348.4888              -348.4888               905.7352
 Red. masses --      1.0210                 1.0210                 1.0458
 Frc consts  --      0.0731                 0.0731                 0.5055
 IR Inten    --     83.6985                83.6985                17.3857

                      4
                      A
 Frequencies --   3282.6669
 Red. masses --      1.0659
 Frc consts  --      6.7675
 IR Inten    --     99.3919

 - Thermochemistry -
 -------------------
 Temperature   298.150 Kelvin.  Pressure   1.00000 Atm.
 Atom     1 has atomic number  1 and mass   1.00783

 Molecular mass:    21.01405 amu.
 Principal axes and moments of inertia in atomic units:
                           1         2         3
     Eigenvalues --     0.00000  18.22577  18.22577
           X            1.00000  -0.00000   0.00000
           Y            0.00000   1.00000   0.00000
           Z            0.00000   0.00000   1.00000
 This molecule is a prolate symmetric top.
 Rotational symmetry number  1.
 Rotational temperature (Kelvin)      4.75228
 Rotational constant (GHZ):          99.021398
    2 imaginary frequencies ignored.
 Zero-point vibrational energy      25052.2 (Joules/Mol)
                                    5.98762 (Kcal/Mol)
 Vibrational temperatures:   1303.15  4723.03
          (Kelvin)

 Zero-point correction=                           0.009542 (Hartree/Particle)
 Thermal correction to Energy=                    0.011955
 Thermal correction to Enthalpy=                  0.012899
 Thermal correction to Gibbs Free Energy=        -0.009334
 Sum of electronic and zero-point Energies=           -100.956829
 Sum of electronic and thermal Energies=              -100.954415
 Sum of electronic and thermal Enthalpies=            -100.953471
 Sum of electronic and thermal Free Energies=         -100.975705

                     E (Thermal)             CV                S
                      KCal/Mol        Cal/Mol-Kelvin    Cal/Mol-Kelvin
 Total                    7.502              5.460             46.794
 Electronic               0.000              0.000              1.377
 Translational            0.889              2.981             35.068
 Rotational               0.592              1.987             10.212
 Vibrational              6.021              0.492              0.136

 Normal termination of Gaussian 16 at Fri Aug 22 15:57:36 2025.
