 Gaussian 16, Revision C.01,
 Gaussian 16:  ES64L-G16RevC.01  3-Jul-2019

 -----------------------------------------
 # sp b3lyp/6-311g** Force nosymm scf=(qc)
 -----------------------------------------

 -------------------
 Title Card Required
 -------------------
 Symbolic Z-matrix:
 Charge =  0 Multiplicity = 2

                          Input orientation:
 ---------------------------------------------------------------------
 Center     Atomic      Atomic             Coordinates (Angstroms)
 Number     Number       Type             X           Y           Z
 ---------------------------------------------------------------------
      1          1           0        0.000000    0.000000    0.000000
      2          1           0       -1.600000    0.000000    0.000000
      3          9           0        0.750000    0.000000    0.000000
 ---------------------------------------------------------------------

 SCF Done:  E(UB3LYP) =  -100.918980436     a.u. after    6 cycles

 Alpha  occ. eigenvalues --  -24.63289  -1.25476  -0.57955  -0.41084  -0.41084
 Alpha  occ. eigenvalues --   -0.36117
 Alpha virt. eigenvalues --    0.12160   0.22134   0.47928   0.93862   0.93862
 Alpha virt. eigenvalues --    0.96530   1.18733   1.18733   1.26959   1.44460
 Alpha virt. eigenvalues --    1.44460   1.56103   2.04438   2.15540   2.86829

  Beta  occ. eigenvalues --  -24.63179  -1.25174  -0.57297  -0.40997  -0.40997
  Beta virt. eigenvalues --   -0.12512   0.13630   0.30417   0.51295   0.93950
  Beta virt. eigenvalues --    0.93950   0.96771   1.32698   1.32698   1.34498
  Beta virt. eigenvalues --    1.48735   1.48735   1.63018   2.06695   2.35130

 Mulliken charges and spin densities:
               1          2
     1  H    0.249711   0.012887
     2  H    0.015800   0.966778
     3  F   -0.265511   0.020336
 Sum of Mulliken charges =   0.00000   1.00000

 Dipole moment (field-independent basis, Debye):
    X=             -1.7650    Y=             -0.0000    Z=              0.0000  Tot=              1.7650
 Quadrupole moment (field-independent basis, Debye-Ang):
   XX=             -7.1550   YY=             -6.6350   ZZ=             -6.6350
   XY=             -0.0000   XZ=             -0.0000   YZ=             -0.0000

  Exact polarizability:       7.805       0.000       2.533       0.000       0.000       2.533
 Approx polarizability:       7.706       0.000       2.538       0.000       0.000       2.538

 ******    2 imaginary frequencies (negative Signs) ******

                      1                      2                      3
                      A                      A                      A
 Frequencies --  -2650.0414             -2650.0414               650.4380
 Red. masses --      1.0291                 1.0291                 1.0534
 Frc consts  --      4.2581                 4.2581                 0.2626
 IR Inten    --    148.0430               148.0430                 0.6813

                      4
                      A
 Frequencies --   7559.6844
 Red. masses --      1.0582
 Frc consts  --     35.6309
 IR Inten    --    165.1012

 - Thermochemistry -
 -------------------
 Temperature   298.150 Kelvin.  Pressure   1.00000 Atm.
 Atom     1 has atomic number  1 and mass   1.00783

 Molecular mass:    21.01405 amu.
 Principal axes and moments of inertia in atomic units:
                           1         2         3
     Eigenvalues --     0.00000  20.24121  20.24121
           X            1.00000  -0.00000   0.00000
           Y            0.00000   1.00000   0.00000
           Z            0.00000   0.00000   1.00000
 This molecule is a prolate symmetric top.
 Rotational symmetry number  1.
 Rotational temperature (Kelvin)      4.27909
 Rotational constant (GHZ):          89.161705
    2 imaginary frequencies ignored.
 Zero-point vibrational energy      49107.4 (Joules/Mol)
                                   11.73696 (Kcal/Mol)
 Vibrational temperatures:    935.84 10876.70
          (Kelvin)

 Zero-point correction=                           0.018704 (Hartree/Particle)
 Thermal correction to Energy=                    0.021199
 Thermal correction to Enthalpy=                  0.022143
 Thermal correction to Gibbs Free Energy=        -0.000301
 Sum of electronic and zero-point Energies=           -100.900276
 Sum of electronic and thermal Energies=              -100.897782
 Sum of electronic and thermal Enthalpies=            -100.896838
 Sum of electronic and thermal Free Energies=         -100.919281

                     E (Thermal)             CV                S
                      KCal/Mol        Cal/Mol-Kelvin    Cal/Mol-Kelvin
 Total                   13.302              5.895             47.237
 Electronic               0.000              0.000              1.377
 Translational            0.889              2.981             35.068
 Rotational               0.592              1.987             10.421
 Vibrational             11.821              0.927              0.371

 Normal termination of Gaussian 16 at Fri Aug 22 15:48:29 2025.
