 Gaussian 16, Revision C.01,
 Gaussian 16:  ES64L-G16RevC.01  3-Jul-2019

 -----------------------------------------
 # sp b3lyp/6-311g** Force nosymm scf=(qc)
 -----------------------------------------

 -------------------
 Title Card Required
 -------------------
 Symbolic Z-matrix:
 Charge =  0 Multiplicity = 2

                          Input orientation:
 ---------------------------------------------------------------------
 Center     Atomic      Atomic             Coordinates (Angstroms)
 Number     Number       Type             X           Y           Z
 ---------------------------------------------------------------------
      1          1           0        0.000000    0.000000    0.000000
      2          1           0       -2.400000    0.000000    0.000000
      3          9           0        3.200000    0.000000    0.000000
 ---------------------------------------------------------------------

 SCF Done:  E(UB3LYP) =  -100.765020294     a.u. after   25 cycles

 Alpha  occ. eigenvalues --  -24.74816  -1.20819  -0.53935  -0.45286  -0.45286
 Alpha  occ. eigenvalues --   -0.32968
 Alpha virt. eigenvalues --   -0.10333   0.25600   0.33538   0.88745   0.91832
 Alpha virt. eigenvalues --    0.91832   1.02861   1.24733   1.24733   1.26126
 Alpha virt. eigenvalues --    1.39958   1.39958   1.42505   2.15136   2.36132

  Beta  occ. eigenvalues --  -24.71741  -1.11994  -0.42206  -0.42206  -0.33416
  Beta virt. eigenvalues --   -0.25201  -0.09536   0.25573   0.34543   0.93308
  Beta virt. eigenvalues --    0.93308   0.97709   1.06823   1.24178   1.24178
  Beta virt. eigenvalues --    1.25434   1.41226   1.41226   1.43754   2.16096

 Mulliken charges and spin densities:
               1          2
     1  H    0.017599  -0.934681
     2  H    0.005073   0.960035
     3  F   -0.022673   0.974646
 Sum of Mulliken charges =   0.00000   1.00000

 Dipole moment (field-independent basis, Debye):
    X=             -0.4304    Y=              0.0000    Z=             -0.0000  Tot=              0.4304
 Quadrupole moment (field-independent basis, Debye-Ang):
   XX=             -7.4912   YY=             -7.6689   ZZ=             -7.6689
   XY=              0.0000   XZ=              0.0000   YZ=              0.0000

  Exact polarizability:      43.614      -0.000       2.015       0.000      -0.000       2.015
 Approx polarizability:      35.691      -0.000       1.925       0.000      -0.000       1.925

 ******    2 imaginary frequencies (negative Signs) ******

                      1                      2                      3
                      A                      A                      A
 Frequencies --   -783.4263              -194.3393               293.0346
 Red. masses --      1.0083                 1.1079                 1.0148
 Frc consts  --      0.3646                 0.0247                 0.0513
 IR Inten    --     14.7117                15.0467                 0.2135

                      4
                      A
 Frequencies --    293.0346
 Red. masses --      1.0148
 Frc consts  --      0.0513
 IR Inten    --      0.2135

 - Thermochemistry -
 -------------------
 Temperature   298.150 Kelvin.  Pressure   1.00000 Atm.
 Atom     1 has atomic number  1 and mass   1.00783

 Molecular mass:    21.01405 amu.
 Principal axes and moments of inertia in atomic units:
                           1         2         3
     Eigenvalues --     0.00000 136.35208 136.35208
           X            1.00000  -0.00000   0.00000
           Y            0.00000   1.00000   0.00000
           Z            0.00000   0.00000   1.00000
 This molecule is a prolate symmetric top.
 Rotational symmetry number  1.
 Rotational temperature (Kelvin)      0.63522
 Rotational constant (GHZ):          13.235891
    2 imaginary frequencies ignored.
 Zero-point vibrational energy       3505.5 (Joules/Mol)
                                    0.83783 (Kcal/Mol)
 Warning -- explicit consideration of   2 degrees of freedom as
           vibrations may cause significant error
 Vibrational temperatures:    421.61   421.61
          (Kelvin)

 Zero-point correction=                           0.001335 (Hartree/Particle)
 Thermal correction to Energy=                    0.004553
 Thermal correction to Enthalpy=                  0.005498
 Thermal correction to Gibbs Free Energy=        -0.019955
 Sum of electronic and zero-point Energies=           -100.763685
 Sum of electronic and thermal Energies=              -100.760467
 Sum of electronic and thermal Enthalpies=            -100.759523
 Sum of electronic and thermal Free Energies=         -100.784975

                     E (Thermal)             CV                S
                      KCal/Mol        Cal/Mol-Kelvin    Cal/Mol-Kelvin
 Total                    2.857              8.341             53.569
 Electronic               0.000              0.000              1.377
 Translational            0.889              2.981             35.068
 Rotational               0.592              1.987             14.211
 Vibrational              1.376              3.373              2.913
 Vibration     1          0.688              1.687              1.456
 Vibration     2          0.688              1.687              1.456

 Normal termination of Gaussian 16 at Fri Aug 22 20:23:37 2025.
