 Gaussian 16, Revision C.01,
 Gaussian 16:  ES64L-G16RevC.01  3-Jul-2019

 -----------------------------------------
 # sp b3lyp/6-311g** Force nosymm scf=(qc)
 -----------------------------------------

 -------------------
 Title Card Required
 -------------------
 Symbolic Z-matrix:
 Charge =  0 Multiplicity = 2

                          Input orientation:
 ---------------------------------------------------------------------
 Center     Atomic      Atomic             Coordinates (Angstroms)
 Number     Number       Type             X           Y           Z
 ---------------------------------------------------------------------
      1          1           0        0.000000    0.000000    0.000000
      2          1           0       -0.700000    0.000000    0.000000
      3          9           0        0.950000    0.000000    0.000000
 ---------------------------------------------------------------------

 SCF Done:  E(UB3LYP) =  -100.911712252     a.u. after    6 cycles

 Alpha  occ. eigenvalues --  -24.66831  -1.21782  -0.64674  -0.41896  -0.41896
 Alpha  occ. eigenvalues --   -0.34406
 Alpha virt. eigenvalues --    0.14457   0.18171   0.61771   0.87030   0.87030
 Alpha virt. eigenvalues --    0.94634   1.10337   1.10337   1.45565   1.74422
 Alpha virt. eigenvalues --    1.79239   1.79239   1.99104   2.46624   3.79028

  Beta  occ. eigenvalues --  -24.65361  -1.18039  -0.57467  -0.40579  -0.40579
  Beta virt. eigenvalues --   -0.16660   0.16587   0.19615   0.67013   0.89044
  Beta virt. eigenvalues --    0.89044   0.97571   1.14687   1.14687   1.47661
  Beta virt. eigenvalues --    1.82737   1.83634   1.83634   2.00465   2.53650

 Mulliken charges and spin densities:
               1          2
     1  H    0.279218  -0.017525
     2  H   -0.046932   0.661803
     3  F   -0.232286   0.355722
 Sum of Mulliken charges =   0.00000   1.00000

 Dipole moment (field-independent basis, Debye):
    X=             -1.4057    Y=              0.0000    Z=             -0.0000  Tot=              1.4057
 Quadrupole moment (field-independent basis, Debye-Ang):
   XX=             -7.4571   YY=             -6.4967   ZZ=             -6.4967
   XY=              0.0000   XZ=             -0.0000   YZ=             -0.0000

  Exact polarizability:      12.354       0.000       2.531       0.000      -0.000       2.531
 Approx polarizability:      14.350       0.000       2.595      -0.000      -0.000       2.595

 ******    2 imaginary frequencies (negative Signs) ******

                      1                      2                      3
                      A                      A                      A
 Frequencies --  -2501.3213             -2501.3213              2581.5087
 Red. masses --      1.0147                 1.0147                 1.1074
 Frc consts  --      3.7403                 3.7403                 4.3483
 IR Inten    --     39.9183                39.9183                62.5725

                      4
                      A
 Frequencies --   4857.0970
 Red. masses --      1.0087
 Frc consts  --     14.0208
 IR Inten    --     61.0545

 - Thermochemistry -
 -------------------
 Temperature   298.150 Kelvin.  Pressure   1.00000 Atm.
 Atom     1 has atomic number  1 and mass   1.00783

 Molecular mass:    21.01405 amu.
 Principal axes and moments of inertia in atomic units:
                           1         2         3
     Eigenvalues --     0.00000  11.87958  11.87958
           X            1.00000  -0.00000   0.00000
           Y            0.00000   1.00000   0.00000
           Z            0.00000   0.00000   1.00000
 This molecule is a prolate symmetric top.
 Rotational symmetry number  1.
 Rotational temperature (Kelvin)      7.29099
 Rotational constant (GHZ):         151.919573
    2 imaginary frequencies ignored.
 Zero-point vibrational energy      44492.7 (Joules/Mol)
                                   10.63402 (Kcal/Mol)
 Vibrational temperatures:   3714.22  6988.28
          (Kelvin)

 Zero-point correction=                           0.016946 (Hartree/Particle)
 Thermal correction to Energy=                    0.019307
 Thermal correction to Enthalpy=                  0.020251
 Thermal correction to Gibbs Free Energy=        -0.001513
 Sum of electronic and zero-point Energies=           -100.894766
 Sum of electronic and thermal Energies=              -100.892405
 Sum of electronic and thermal Enthalpies=            -100.891461
 Sum of electronic and thermal Free Energies=         -100.913226

                     E (Thermal)             CV                S
                      KCal/Mol        Cal/Mol-Kelvin    Cal/Mol-Kelvin
 Total                   12.115              4.969             45.807
 Electronic               0.000              0.000              1.377
 Translational            0.889              2.981             35.068
 Rotational               0.592              1.987              9.362
 Vibrational             10.634              0.001              0.000

 Normal termination of Gaussian 16 at Fri Aug 22 15:57:15 2025.
