 Gaussian 16, Revision C.01,
 Gaussian 16:  ES64L-G16RevC.01  3-Jul-2019

 -----------------------------------------
 # sp b3lyp/6-311g** Force nosymm scf=(qc)
 -----------------------------------------

 -------------------
 Title Card Required
 -------------------
 Symbolic Z-matrix:
 Charge =  0 Multiplicity = 2

                          Input orientation:
 ---------------------------------------------------------------------
 Center     Atomic      Atomic             Coordinates (Angstroms)
 Number     Number       Type             X           Y           Z
 ---------------------------------------------------------------------
      1          1           0        0.000000    0.000000    0.000000
      2          1           0       -2.400000    0.000000    0.000000
      3          9           0        0.650000    0.000000    0.000000
 ---------------------------------------------------------------------

 SCF Done:  E(UB3LYP) =  -100.800810903     a.u. after    6 cycles

 Alpha  occ. eigenvalues --  -24.62887  -1.31261  -0.59796  -0.42303  -0.42303
 Alpha  occ. eigenvalues --   -0.34536
 Alpha virt. eigenvalues --    0.08765   0.25454   0.54948   0.92935   0.92935
 Alpha virt. eigenvalues --    0.94734   1.16893   1.23015   1.23015   1.46957
 Alpha virt. eigenvalues --    1.46957   1.47184   1.95154   2.15339   3.09746

  Beta  occ. eigenvalues --  -24.62876  -1.31230  -0.59760  -0.42297  -0.42297
  Beta virt. eigenvalues --   -0.08516   0.10187   0.37956   0.54614   0.92928
  Beta virt. eigenvalues --    0.92928   0.94888   1.28511   1.45132   1.45132
  Beta virt. eigenvalues --    1.46963   1.46963   1.59184   1.95728   2.43783

 Mulliken charges and spin densities:
               1          2
     1  H    0.248086   0.004343
     2  H    0.005319   0.992398
     3  F   -0.253405   0.003259
 Sum of Mulliken charges =   0.00000   1.00000

 Dipole moment (field-independent basis, Debye):
    X=             -1.5672    Y=             -0.0000    Z=              0.0000  Tot=              1.5672
 Quadrupole moment (field-independent basis, Debye-Ang):
   XX=             -6.9456   YY=             -6.5983   ZZ=             -6.5983
   XY=             -0.0000   XZ=              0.0000   YZ=             -0.0000

  Exact polarizability:       5.326      -0.000       2.474       0.000      -0.000       2.474
 Approx polarizability:       5.360       0.000       2.460      -0.000       0.000       2.460

 ******    2 imaginary frequencies (negative Signs) ******

                      1                      2                      3
                      A                      A                      A
 Frequencies --  -4554.0079             -4554.0079               152.4064
 Red. masses --      1.0378                 1.0378                 1.0533
 Frc consts  --     12.6805                12.6805                 0.0144
 IR Inten    --    207.8378               207.8378                 0.1989

                      4
                      A
 Frequencies --  10872.9957
 Red. masses --      1.0583
 Frc consts  --     73.7158
 IR Inten    --    118.5399

 - Thermochemistry -
 -------------------
 Temperature   298.150 Kelvin.  Pressure   1.00000 Atm.
 Atom     1 has atomic number  1 and mass   1.00783

 Molecular mass:    21.01405 amu.
 Principal axes and moments of inertia in atomic units:
                           1         2         3
     Eigenvalues --     0.00000  32.63737  32.63737
           X            1.00000  -0.00000   0.00000
           Y            0.00000   1.00000   0.00000
           Z            0.00000   0.00000   1.00000
 This molecule is a prolate symmetric top.
 Rotational symmetry number  1.
 Rotational temperature (Kelvin)      2.65383
 Rotational constant (GHZ):          55.296773
    2 imaginary frequencies ignored.
 Zero-point vibrational energy      65946.5 (Joules/Mol)
                                   15.76160 (Kcal/Mol)
 Warning -- explicit consideration of   1 degrees of freedom as
           vibrations may cause significant error
 Vibrational temperatures:    219.28 15643.82
          (Kelvin)

 Zero-point correction=                           0.025118 (Hartree/Particle)
 Thermal correction to Energy=                    0.028117
 Thermal correction to Enthalpy=                  0.029062
 Thermal correction to Gibbs Free Energy=         0.005088
 Sum of electronic and zero-point Energies=           -100.775693
 Sum of electronic and thermal Energies=              -100.772694
 Sum of electronic and thermal Enthalpies=            -100.771749
 Sum of electronic and thermal Free Energies=         -100.795723

                     E (Thermal)             CV                S
                      KCal/Mol        Cal/Mol-Kelvin    Cal/Mol-Kelvin
 Total                   17.644              6.868             50.457
 Electronic               0.000              0.000              1.377
 Translational            0.889              2.981             35.068
 Rotational               0.592              1.987             11.370
 Vibrational             16.163              1.900              2.642
 Vibration     1          0.619              1.900              2.642

 Normal termination of Gaussian 16 at Fri Aug 22 15:44:20 2025.
