 Gaussian 16, Revision C.01,
 Gaussian 16:  ES64L-G16RevC.01  3-Jul-2019

 -----------------------------------------
 # sp b3lyp/6-311g** Force nosymm scf=(qc)
 -----------------------------------------

 -------------------
 Title Card Required
 -------------------
 Symbolic Z-matrix:
 Charge =  0 Multiplicity = 2

                          Input orientation:
 ---------------------------------------------------------------------
 Center     Atomic      Atomic             Coordinates (Angstroms)
 Number     Number       Type             X           Y           Z
 ---------------------------------------------------------------------
      1          1           0        0.000000    0.000000    0.000000
      2          1           0       -2.700000    0.000000    0.000000
      3          9           0        1.750000    0.000000    0.000000
 ---------------------------------------------------------------------

 SCF Done:  E(UB3LYP) =  -100.806831866     a.u. after   11 cycles

 Alpha  occ. eigenvalues --  -24.63720  -1.08233  -0.40297  -0.35513  -0.35513
 Alpha  occ. eigenvalues --   -0.35374
 Alpha virt. eigenvalues --   -0.19265   0.21389   0.26688   0.95498   0.95565
 Alpha virt. eigenvalues --    0.95565   1.08195   1.21986   1.21986   1.23478
 Alpha virt. eigenvalues --    1.26771   1.26771   1.68708   2.12989   2.15973

  Beta  occ. eigenvalues --  -24.63800  -1.08453  -0.40198  -0.35592  -0.35592
  Beta virt. eigenvalues --   -0.19669  -0.08808   0.24594   0.35802   0.95618
  Beta virt. eigenvalues --    0.95618   0.95753   1.08298   1.27547   1.27547
  Beta virt. eigenvalues --    1.42818   1.42818   1.43165   1.69356   2.17066

 Mulliken charges and spin densities:
               1          2
     1  H    0.306765   0.046150
     2  H    0.019357   0.979584
     3  F   -0.326122  -0.025734
 Sum of Mulliken charges =  -0.00000   1.00000

 Dipole moment (field-independent basis, Debye):
    X=             -3.0710    Y=             -0.0000    Z=             -0.0000  Tot=              3.0710
 Quadrupole moment (field-independent basis, Debye-Ang):
   XX=            -10.2846   YY=             -7.4444   ZZ=             -7.4444
   XY=             -0.0000   XZ=             -0.0000   YZ=              0.0000

  Exact polarizability:      30.198      -0.000       2.088      -0.000      -0.000       2.088
 Approx polarizability:      61.900      -0.000       2.001      -0.000      -0.000       2.001

 ******    2 imaginary frequencies (negative Signs) ******

                      1                      2                      3
                      A                      A                      A
 Frequencies --  -1226.6395              -223.1887               819.4659
 Red. masses --      1.0515                 1.0601                 1.0240
 Frc consts  --      0.9322                 0.0311                 0.4051
 IR Inten    --    143.6328                 7.3867                82.9905

                      4
                      A
 Frequencies --    819.4659
 Red. masses --      1.0240
 Frc consts  --      0.4051
 IR Inten    --     82.9905

 - Thermochemistry -
 -------------------
 Temperature   298.150 Kelvin.  Pressure   1.00000 Atm.
 Atom     1 has atomic number  1 and mass   1.00783

 Molecular mass:    21.01405 amu.
 Principal axes and moments of inertia in atomic units:
                           1         2         3
     Eigenvalues --     0.00000  75.65632  75.65632
           X            1.00000  -0.00000   0.00000
           Y            0.00000   1.00000   0.00000
           Z            0.00000   0.00000   1.00000
 This molecule is a prolate symmetric top.
 Rotational symmetry number  1.
 Rotational temperature (Kelvin)      1.14483
 Rotational constant (GHZ):          23.854467
    2 imaginary frequencies ignored.
 Zero-point vibrational energy       9803.0 (Joules/Mol)
                                    2.34297 (Kcal/Mol)
 Vibrational temperatures:   1179.03  1179.03
          (Kelvin)

 Zero-point correction=                           0.003734 (Hartree/Particle)
 Thermal correction to Energy=                    0.006240
 Thermal correction to Enthalpy=                  0.007184
 Thermal correction to Gibbs Free Energy=        -0.016511
 Sum of electronic and zero-point Energies=           -100.803098
 Sum of electronic and thermal Energies=              -100.800592
 Sum of electronic and thermal Enthalpies=            -100.799648
 Sum of electronic and thermal Free Energies=         -100.823342

                     E (Thermal)             CV                S
                      KCal/Mol        Cal/Mol-Kelvin    Cal/Mol-Kelvin
 Total                    3.916              6.206             49.870
 Electronic               0.000              0.000              1.377
 Translational            0.889              2.981             35.068
 Rotational               0.592              1.987             13.041
 Vibrational              2.435              1.238              0.384

 Normal termination of Gaussian 16 at Fri Aug 22 16:41:07 2025.
