 Gaussian 16, Revision C.01,
 Gaussian 16:  ES64L-G16RevC.01  3-Jul-2019

 -----------------------------------------
 # sp b3lyp/6-311g** Force nosymm scf=(qc)
 -----------------------------------------

 -------------------
 Title Card Required
 -------------------
 Symbolic Z-matrix:
 Charge =  0 Multiplicity = 2

                          Input orientation:
 ---------------------------------------------------------------------
 Center     Atomic      Atomic             Coordinates (Angstroms)
 Number     Number       Type             X           Y           Z
 ---------------------------------------------------------------------
      1          1           0        0.000000    0.000000    0.000000
      2          1           0       -0.850000    0.000000    0.000000
      3          9           0        0.800000    0.000000    0.000000
 ---------------------------------------------------------------------

 SCF Done:  E(UB3LYP) =  -100.897186525     a.u. after    6 cycles

 Alpha  occ. eigenvalues --  -24.65759  -1.26555  -0.64061  -0.42696  -0.42696
 Alpha  occ. eigenvalues --   -0.33743
 Alpha virt. eigenvalues --    0.16117   0.18255   0.65861   0.88001   0.88001
 Alpha virt. eigenvalues --    0.94402   1.08769   1.08769   1.45140   1.72614
 Alpha virt. eigenvalues --    1.72614   1.77602   2.15508   2.34831   3.78207

  Beta  occ. eigenvalues --  -24.64954  -1.24366  -0.59470  -0.42000  -0.42000
  Beta virt. eigenvalues --   -0.14756   0.17239   0.22382   0.71383   0.89939
  Beta virt. eigenvalues --    0.89939   0.96103   1.14392   1.14392   1.46657
  Beta virt. eigenvalues --    1.78078   1.78078   1.85911   2.19455   2.45325

 Mulliken charges and spin densities:
               1          2
     1  H    0.263236  -0.015766
     2  H   -0.034289   0.851886
     3  F   -0.228947   0.163880
 Sum of Mulliken charges =   0.00000   1.00000

 Dipole moment (field-independent basis, Debye):
    X=             -1.3295    Y=             -0.0000    Z=             -0.0000  Tot=              1.3295
 Quadrupole moment (field-independent basis, Debye-Ang):
   XX=             -7.5105   YY=             -6.5142   ZZ=             -6.5142
   XY=             -0.0000   XZ=             -0.0000   YZ=             -0.0000

  Exact polarizability:      10.084       0.000       2.562      -0.000       0.000       2.562
 Approx polarizability:      10.633       0.000       2.624       0.000       0.000       2.624

 ******    2 imaginary frequencies (negative Signs) ******

                      1                      2                      3
                      A                      A                      A
 Frequencies --  -2594.1490             -2594.1490              2577.5281
 Red. masses --      1.0187                 1.0187                 1.0623
 Frc consts  --      4.0391                 4.0391                 4.1583
 IR Inten    --     89.0560                89.0560               118.5120

                      4
                      A
 Frequencies --   6214.9362
 Red. masses --      1.0493
 Frc consts  --     23.8792
 IR Inten    --     40.3321

 - Thermochemistry -
 -------------------
 Temperature   298.150 Kelvin.  Pressure   1.00000 Atm.
 Atom     1 has atomic number  1 and mass   1.00783

 Molecular mass:    21.01405 amu.
 Principal axes and moments of inertia in atomic units:
                           1         2         3
     Eigenvalues --     0.00000  11.06559  11.06559
           X            1.00000  -0.00000   0.00000
           Y            0.00000   1.00000   0.00000
           Z            0.00000   0.00000   1.00000
 This molecule is a prolate symmetric top.
 Rotational symmetry number  1.
 Rotational temperature (Kelvin)      7.82732
 Rotational constant (GHZ):         163.094844
    2 imaginary frequencies ignored.
 Zero-point vibrational energy      52590.6 (Joules/Mol)
                                   12.56946 (Kcal/Mol)
 Vibrational temperatures:   3708.49  8941.91
          (Kelvin)

 Zero-point correction=                           0.020031 (Hartree/Particle)
 Thermal correction to Energy=                    0.022391
 Thermal correction to Enthalpy=                  0.023335
 Thermal correction to Gibbs Free Energy=         0.001638
 Sum of electronic and zero-point Energies=           -100.877156
 Sum of electronic and thermal Energies=              -100.874795
 Sum of electronic and thermal Enthalpies=            -100.873851
 Sum of electronic and thermal Free Energies=         -100.895549

                     E (Thermal)             CV                S
                      KCal/Mol        Cal/Mol-Kelvin    Cal/Mol-Kelvin
 Total                   14.051              4.969             45.666
 Electronic               0.000              0.000              1.377
 Translational            0.889              2.981             35.068
 Rotational               0.592              1.987              9.221
 Vibrational             12.569              0.001              0.000

 Normal termination of Gaussian 16 at Fri Aug 22 15:50:18 2025.
