 Gaussian 16, Revision C.01,
 Gaussian 16:  ES64L-G16RevC.01  3-Jul-2019

 -----------------------------------------
 # sp b3lyp/6-311g** Force nosymm scf=(qc)
 -----------------------------------------

 -------------------
 Title Card Required
 -------------------
 Symbolic Z-matrix:
 Charge =  0 Multiplicity = 2

                          Input orientation:
 ---------------------------------------------------------------------
 Center     Atomic      Atomic             Coordinates (Angstroms)
 Number     Number       Type             X           Y           Z
 ---------------------------------------------------------------------
      1          1           0        0.000000    0.000000    0.000000
      2          1           0       -2.450000    0.000000    0.000000
      3          9           0        3.050000    0.000000    0.000000
 ---------------------------------------------------------------------

 SCF Done:  E(UB3LYP) =  -100.765096542     a.u. after   22 cycles

 Alpha  occ. eigenvalues --  -24.74341  -1.20379  -0.53459  -0.44886  -0.44886
 Alpha  occ. eigenvalues --   -0.33070
 Alpha virt. eigenvalues --   -0.10485   0.25448   0.33498   0.89351   0.92123
 Alpha virt. eigenvalues --    0.92123   1.03655   1.24604   1.24604   1.26344
 Alpha virt. eigenvalues --    1.39820   1.39820   1.41941   2.15225   2.36272

  Beta  occ. eigenvalues --  -24.71298  -1.11653  -0.41840  -0.41840  -0.33695
  Beta virt. eigenvalues --   -0.24937  -0.09421   0.25564   0.34679   0.93590
  Beta virt. eigenvalues --    0.93590   0.98179   1.07577   1.23843   1.23843
  Beta virt. eigenvalues --    1.25405   1.41540   1.41540   1.43603   2.16245

 Mulliken charges and spin densities:
               1          2
     1  H    0.026132  -0.930149
     2  H    0.005827   0.965794
     3  F   -0.031958   0.964354
 Sum of Mulliken charges =  -0.00000   1.00000

 Dipole moment (field-independent basis, Debye):
    X=             -0.5683    Y=             -0.0000    Z=             -0.0000  Tot=              0.5683
 Quadrupole moment (field-independent basis, Debye-Ang):
   XX=             -7.8002   YY=             -7.6587   ZZ=             -7.6587
   XY=             -0.0000   XZ=             -0.0000   YZ=              0.0000

  Exact polarizability:      44.688      -0.000       2.014      -0.000      -0.000       2.014
 Approx polarizability:      39.027      -0.000       1.923      -0.000       0.000       1.923

 ******    2 imaginary frequencies (negative Signs) ******

                      1                      2                      3
                      A                      A                      A
 Frequencies --   -744.4138              -226.5048               279.0424
 Red. masses --      1.0091                 1.1069                 1.0155
 Frc consts  --      0.3295                 0.0335                 0.0466
 IR Inten    --     20.4624                19.0509                 0.5078

                      4
                      A
 Frequencies --    279.0424
 Red. masses --      1.0155
 Frc consts  --      0.0466
 IR Inten    --      0.5078

 - Thermochemistry -
 -------------------
 Temperature   298.150 Kelvin.  Pressure   1.00000 Atm.
 Atom     1 has atomic number  1 and mass   1.00783

 Molecular mass:    21.01405 amu.
 Principal axes and moments of inertia in atomic units:
                           1         2         3
     Eigenvalues --     0.00000 129.73179 129.73179
           X            1.00000  -0.00000   0.00000
           Y            0.00000   1.00000   0.00000
           Z            0.00000   0.00000   1.00000
 This molecule is a prolate symmetric top.
 Rotational symmetry number  1.
 Rotational temperature (Kelvin)      0.66764
 Rotational constant (GHZ):          13.911326
    2 imaginary frequencies ignored.
 Zero-point vibrational energy       3338.1 (Joules/Mol)
                                    0.79782 (Kcal/Mol)
 Warning -- explicit consideration of   2 degrees of freedom as
           vibrations may cause significant error
 Vibrational temperatures:    401.48   401.48
          (Kelvin)

 Zero-point correction=                           0.001271 (Hartree/Particle)
 Thermal correction to Energy=                    0.004526
 Thermal correction to Enthalpy=                  0.005470
 Thermal correction to Gibbs Free Energy=        -0.020015
 Sum of electronic and zero-point Energies=           -100.763825
 Sum of electronic and thermal Energies=              -100.760571
 Sum of electronic and thermal Enthalpies=            -100.759626
 Sum of electronic and thermal Free Energies=         -100.785111

                     E (Thermal)             CV                S
                      KCal/Mol        Cal/Mol-Kelvin    Cal/Mol-Kelvin
 Total                    2.840              8.393             53.637
 Electronic               0.000              0.000              1.377
 Translational            0.889              2.981             35.068
 Rotational               0.592              1.987             14.112
 Vibrational              1.359              3.425              3.079
 Vibration     1          0.679              1.712              1.540
 Vibration     2          0.679              1.712              1.540

 Normal termination of Gaussian 16 at Fri Aug 22 19:44:10 2025.
