 Gaussian 16, Revision C.01,
 Gaussian 16:  ES64L-G16RevC.01  3-Jul-2019

 -----------------------------------------
 # sp b3lyp/6-311g** Force nosymm scf=(qc)
 -----------------------------------------

 -------------------
 Title Card Required
 -------------------
 Symbolic Z-matrix:
 Charge =  0 Multiplicity = 2

                          Input orientation:
 ---------------------------------------------------------------------
 Center     Atomic      Atomic             Coordinates (Angstroms)
 Number     Number       Type             X           Y           Z
 ---------------------------------------------------------------------
      1          1           0        0.000000    0.000000    0.000000
      2          1           0       -2.550000    0.000000    0.000000
      3          9           0        1.050000    0.000000    0.000000
 ---------------------------------------------------------------------

 SCF Done:  E(UB3LYP) =  -100.958705620     a.u. after    6 cycles

 Alpha  occ. eigenvalues --  -24.64114  -1.14770  -0.50563  -0.38320  -0.38320
 Alpha  occ. eigenvalues --   -0.34987
 Alpha virt. eigenvalues --    0.00067   0.25008   0.32232   0.93918   0.93918
 Alpha virt. eigenvalues --    0.99083   1.20462   1.22559   1.22559   1.35652
 Alpha virt. eigenvalues --    1.35652   1.36128   1.85401   2.13678   2.33679

  Beta  occ. eigenvalues --  -24.64090  -1.14711  -0.50463  -0.38299  -0.38299
  Beta virt. eigenvalues --   -0.10044   0.01913   0.32218   0.37125   0.93920
  Beta virt. eigenvalues --    0.93920   0.99146   1.29287   1.35611   1.35611
  Beta virt. eigenvalues --    1.44257   1.44257   1.48659   1.85548   2.33233

 Mulliken charges and spin densities:
               1          2
     1  H    0.326008   0.002250
     2  H    0.007099   0.990467
     3  F   -0.333107   0.007283
 Sum of Mulliken charges =   0.00000   1.00000

 Dipole moment (field-independent basis, Debye):
    X=             -2.1864    Y=              0.0000    Z=             -0.0000  Tot=              2.1864
 Quadrupole moment (field-independent basis, Debye-Ang):
   XX=             -8.1363   YY=             -7.0004   ZZ=             -7.0004
   XY=              0.0000   XZ=             -0.0000   YZ=             -0.0000

  Exact polarizability:       9.517       0.000       2.407      -0.000       0.000       2.407
 Approx polarizability:      11.183      -0.000       2.379      -0.000       0.000       2.379

 ******    1 imaginary frequencies (negative Signs) ******

                      1                      2                      3
                      A                      A                      A
 Frequencies --   -110.6821              1101.4836              1101.4836
 Red. masses --      1.0526                 1.0312                 1.0312
 Frc consts  --      0.0076                 0.7371                 0.7371
 IR Inten    --      1.2294               149.4427               149.4427

                      4
                      A
 Frequencies --   2435.7751
 Red. masses --      1.0590
 Frc consts  --      3.7018
 IR Inten    --    120.0798

 - Thermochemistry -
 -------------------
 Temperature   298.150 Kelvin.  Pressure   1.00000 Atm.
 Atom     1 has atomic number  1 and mass   1.00783

 Molecular mass:    21.01405 amu.
 Principal axes and moments of inertia in atomic units:
                           1         2         3
     Eigenvalues --     0.00000  46.87886  46.87886
           X            1.00000  -0.00000   0.00000
           Y            0.00000   1.00000   0.00000
           Z            0.00000   0.00000   1.00000
 This molecule is a prolate symmetric top.
 Rotational symmetry number  1.
 Rotational temperature (Kelvin)      1.84761
 Rotational constant (GHZ):          38.497972
    1 imaginary frequencies ignored.
 Zero-point vibrational energy      27745.8 (Joules/Mol)
                                    6.63142 (Kcal/Mol)
 Vibrational temperatures:   1584.79  1584.79  3504.54
          (Kelvin)

 Zero-point correction=                           0.010568 (Hartree/Particle)
 Thermal correction to Energy=                    0.012978
 Thermal correction to Enthalpy=                  0.013922
 Thermal correction to Gibbs Free Energy=        -0.009197
 Sum of electronic and zero-point Energies=           -100.948138
 Sum of electronic and thermal Energies=              -100.945728
 Sum of electronic and thermal Enthalpies=            -100.944783
 Sum of electronic and thermal Free Energies=         -100.967903

                     E (Thermal)             CV                S
                      KCal/Mol        Cal/Mol-Kelvin    Cal/Mol-Kelvin
 Total                    8.144              5.528             48.659
 Electronic               0.000              0.000              1.377
 Translational            0.889              2.981             35.068
 Rotational               0.592              1.987             12.090
 Vibrational              6.663              0.560              0.124

 Normal termination of Gaussian 16 at Fri Aug 22 16:03:18 2025.
