 Gaussian 16, Revision C.01,
 Gaussian 16:  ES64L-G16RevC.01  3-Jul-2019

 -----------------------------------------
 # sp b3lyp/6-311g** Force nosymm scf=(qc)
 -----------------------------------------

 -------------------
 Title Card Required
 -------------------
 Symbolic Z-matrix:
 Charge =  0 Multiplicity = 2

                          Input orientation:
 ---------------------------------------------------------------------
 Center     Atomic      Atomic             Coordinates (Angstroms)
 Number     Number       Type             X           Y           Z
 ---------------------------------------------------------------------
      1          1           0        0.000000    0.000000    0.000000
      2          1           0       -1.800000    0.000000    0.000000
      3          9           0        1.450000    0.000000    0.000000
 ---------------------------------------------------------------------

 SCF Done:  E(UB3LYP) =  -100.874270270     a.u. after   13 cycles

 Alpha  occ. eigenvalues --  -24.63734  -1.10133  -0.45305  -0.37659  -0.36156
 Alpha  occ. eigenvalues --   -0.36156
 Alpha virt. eigenvalues --   -0.09032   0.22323   0.27829   0.94044   0.94044
 Alpha virt. eigenvalues --    0.99312   1.04172   1.18693   1.18693   1.35214
 Alpha virt. eigenvalues --    1.35214   1.41527   1.73425   2.12138   2.31930

  Beta  occ. eigenvalues --  -24.62973  -1.08127  -0.42267  -0.35435  -0.35435
  Beta virt. eigenvalues --   -0.19144  -0.05175   0.25915   0.31050   0.93927
  Beta virt. eigenvalues --    0.93927   1.03888   1.06535   1.29335   1.29335
  Beta virt. eigenvalues --    1.37841   1.37841   1.50084   1.75323   2.18510

 Mulliken charges and spin densities:
               1          2
     1  H    0.297410  -0.138489
     2  H    0.056489   0.901902
     3  F   -0.353899   0.236587
 Sum of Mulliken charges =   0.00000   1.00000

 Dipole moment (field-independent basis, Debye):
    X=             -3.0344    Y=             -0.0000    Z=              0.0000  Tot=              3.0344
 Quadrupole moment (field-independent basis, Debye-Ang):
   XX=             -8.5498   YY=             -7.2417   ZZ=             -7.2417
   XY=             -0.0000   XZ=              0.0000   YZ=             -0.0000

  Exact polarizability:      28.543      -0.000       2.273       0.000      -0.000       2.273
 Approx polarizability:      39.618      -0.000       2.213       0.000       0.000       2.213

 ******    2 imaginary frequencies (negative Signs) ******

                      1                      2                      3
                      A                      A                      A
 Frequencies --  -2021.4863              -393.4061              1025.0343
 Red. masses --      1.0298                 1.0831                 1.0208
 Frc consts  --      2.4794                 0.0988                 0.6319
 IR Inten    --     16.6834                 1.1328                59.9146

                      4
                      A
 Frequencies --   1025.0343
 Red. masses --      1.0208
 Frc consts  --      0.6319
 IR Inten    --     59.9146

 - Thermochemistry -
 -------------------
 Temperature   298.150 Kelvin.  Pressure   1.00000 Atm.
 Atom     1 has atomic number  1 and mass   1.00783

 Molecular mass:    21.01405 amu.
 Principal axes and moments of inertia in atomic units:
                           1         2         3
     Eigenvalues --     0.00000  41.76856  41.76856
           X            1.00000  -0.00000   0.00000
           Y            0.00000   1.00000   0.00000
           Z            0.00000   0.00000   1.00000
 This molecule is a prolate symmetric top.
 Rotational symmetry number  1.
 Rotational temperature (Kelvin)      2.07366
 Rotational constant (GHZ):          43.208130
    2 imaginary frequencies ignored.
 Zero-point vibrational energy      12262.1 (Joules/Mol)
                                    2.93072 (Kcal/Mol)
 Vibrational temperatures:   1474.80  1474.80
          (Kelvin)

 Zero-point correction=                           0.004670 (Hartree/Particle)
 Thermal correction to Energy=                    0.007098
 Thermal correction to Enthalpy=                  0.008042
 Thermal correction to Gibbs Free Energy=        -0.014990
 Sum of electronic and zero-point Energies=           -100.869600
 Sum of electronic and thermal Energies=              -100.867173
 Sum of electronic and thermal Enthalpies=            -100.866228
 Sum of electronic and thermal Free Energies=         -100.889260

                     E (Thermal)             CV                S
                      KCal/Mol        Cal/Mol-Kelvin    Cal/Mol-Kelvin
 Total                    4.454              5.669             48.475
 Electronic               0.000              0.000              1.377
 Translational            0.889              2.981             35.068
 Rotational               0.592              1.987             11.860
 Vibrational              2.973              0.701              0.169

 Normal termination of Gaussian 16 at Fri Aug 22 16:22:38 2025.
