 Gaussian 16, Revision C.01,
 Gaussian 16:  ES64L-G16RevC.01  3-Jul-2019

 -----------------------------------------
 # sp b3lyp/6-311g** Force nosymm scf=(qc)
 -----------------------------------------

 -------------------
 Title Card Required
 -------------------
 Symbolic Z-matrix:
 Charge =  0 Multiplicity = 2

                          Input orientation:
 ---------------------------------------------------------------------
 Center     Atomic      Atomic             Coordinates (Angstroms)
 Number     Number       Type             X           Y           Z
 ---------------------------------------------------------------------
      1          1           0        0.000000    0.000000    0.000000
      2          1           0       -1.000000    0.000000    0.000000
      3          9           0        1.000000    0.000000    0.000000
 ---------------------------------------------------------------------

 SCF Done:  E(UB3LYP) =  -100.959292966     a.u. after    6 cycles

 Alpha  occ. eigenvalues --  -24.64925  -1.17694  -0.58098  -0.39654  -0.39654
 Alpha  occ. eigenvalues --   -0.36458
 Alpha virt. eigenvalues --    0.12526   0.18754   0.44465   0.90006   0.90006
 Alpha virt. eigenvalues --    0.97332   1.08186   1.08186   1.41833   1.61584
 Alpha virt. eigenvalues --    1.61584   1.64948   2.19176   2.30360   2.95453

  Beta  occ. eigenvalues --  -24.63973  -1.15294  -0.52532  -0.38802  -0.38802
  Beta virt. eigenvalues --   -0.18507   0.14517   0.21558   0.49860   0.91576
  Beta virt. eigenvalues --    0.91576   0.99298   1.13881   1.13881   1.44694
  Beta virt. eigenvalues --    1.66334   1.66334   1.72728   2.19935   2.42673

 Mulliken charges and spin densities:
               1          2
     1  H    0.279015  -0.021995
     2  H    0.015857   0.776154
     3  F   -0.294872   0.245841
 Sum of Mulliken charges =   0.00000   1.00000

 Dipole moment (field-independent basis, Debye):
    X=             -1.9556    Y=              0.0000    Z=             -0.0000  Tot=              1.9556
 Quadrupole moment (field-independent basis, Debye-Ang):
   XX=             -7.6308   YY=             -6.6864   ZZ=             -6.6864
   XY=              0.0000   XZ=             -0.0000   YZ=              0.0000

  Exact polarizability:      14.802      -0.000       2.573       0.000       0.000       2.573
 Approx polarizability:      17.452       0.000       2.600      -0.000       0.000       2.600

 ******    2 imaginary frequencies (negative Signs) ******

                      1                      2                      3
                      A                      A                      A
 Frequencies --   -500.6853              -500.6853              1373.5297
 Red. masses --      1.0179                 1.0179                 1.0299
 Frc consts  --      0.1504                 0.1504                 1.1448
 IR Inten    --     56.6137                56.6137                72.9611

                      4
                      A
 Frequencies --   2254.5622
 Red. masses --      1.0830
 Frc consts  --      3.2434
 IR Inten    --     13.9449

 - Thermochemistry -
 -------------------
 Temperature   298.150 Kelvin.  Pressure   1.00000 Atm.
 Atom     1 has atomic number  1 and mass   1.00783

 Molecular mass:    21.01405 amu.
 Principal axes and moments of inertia in atomic units:
                           1         2         3
     Eigenvalues --     0.00000  16.44158  16.44158
           X            1.00000  -0.00000   0.00000
           Y            0.00000   1.00000   0.00000
           Z            0.00000   0.00000   1.00000
 This molecule is a prolate symmetric top.
 Rotational symmetry number  1.
 Rotational temperature (Kelvin)      5.26798
 Rotational constant (GHZ):         109.766893
    2 imaginary frequencies ignored.
 Zero-point vibrational energy      21700.8 (Joules/Mol)
                                    5.18662 (Kcal/Mol)
 Vibrational temperatures:   1976.20  3243.81
          (Kelvin)

 Zero-point correction=                           0.008265 (Hartree/Particle)
 Thermal correction to Energy=                    0.010634
 Thermal correction to Enthalpy=                  0.011579
 Thermal correction to Gibbs Free Energy=        -0.010502
 Sum of electronic and zero-point Energies=           -100.951028
 Sum of electronic and thermal Energies=              -100.948659
 Sum of electronic and thermal Enthalpies=            -100.947714
 Sum of electronic and thermal Free Energies=         -100.969795

                     E (Thermal)             CV                S
                      KCal/Mol        Cal/Mol-Kelvin    Cal/Mol-Kelvin
 Total                    6.673              5.088             46.473
 Electronic               0.000              0.000              1.377
 Translational            0.889              2.981             35.068
 Rotational               0.592              1.987             10.007
 Vibrational              5.192              0.120              0.021

 Normal termination of Gaussian 16 at Fri Aug 22 15:59:51 2025.
