 Gaussian 16, Revision C.01,
 Gaussian 16:  ES64L-G16RevC.01  3-Jul-2019

 -----------------------------------------
 # sp b3lyp/6-311g** Force nosymm scf=(qc)
 -----------------------------------------

 -------------------
 Title Card Required
 -------------------
 Symbolic Z-matrix:
 Charge =  0 Multiplicity = 2

                          Input orientation:
 ---------------------------------------------------------------------
 Center     Atomic      Atomic             Coordinates (Angstroms)
 Number     Number       Type             X           Y           Z
 ---------------------------------------------------------------------
      1          1           0        0.000000    0.000000    0.000000
      2          1           0       -0.600000    0.000000    0.000000
      3          9           0        0.800000    0.000000    0.000000
 ---------------------------------------------------------------------

 SCF Done:  E(UB3LYP) =  -100.798722478     a.u. after    6 cycles

 Alpha  occ. eigenvalues --  -24.67891  -1.30433  -0.69833  -0.44761  -0.44761
 Alpha  occ. eigenvalues --   -0.30248
 Alpha virt. eigenvalues --    0.16135   0.17586   0.75758   0.85755   0.85755
 Alpha virt. eigenvalues --    0.92319   1.11188   1.11188   1.44565   1.69475
 Alpha virt. eigenvalues --    1.88817   1.88817   1.94698   2.93172   3.76194

  Beta  occ. eigenvalues --  -24.66602  -1.26891  -0.63904  -0.43630  -0.43630
  Beta virt. eigenvalues --   -0.12341   0.17770   0.20342   0.80355   0.87754
  Beta virt. eigenvalues --    0.87754   0.95114   1.15735   1.15735   1.46662
  Beta virt. eigenvalues --    1.75659   1.93835   1.93835   1.99352   2.99570

 Mulliken charges and spin densities:
               1          2
     1  H    0.275920  -0.046160
     2  H   -0.110944   0.791027
     3  F   -0.164976   0.255132
 Sum of Mulliken charges =   0.00000   1.00000

 Dipole moment (field-independent basis, Debye):
    X=             -0.8918    Y=              0.0000    Z=             -0.0000  Tot=              0.8918
 Quadrupole moment (field-independent basis, Debye-Ang):
   XX=             -7.4663   YY=             -6.4172   ZZ=             -6.4172
   XY=              0.0000   XZ=             -0.0000   YZ=             -0.0000

  Exact polarizability:       9.826       0.000       2.494       0.000       0.000       2.494
 Approx polarizability:      10.445      -0.000       2.584       0.000       0.000       2.584

 ******    2 imaginary frequencies (negative Signs) ******

                      1                      2                      3
                      A                      A                      A
 Frequencies --  -4216.5109             -4216.5109              4077.1407
 Red. masses --      1.0148                 1.0148                 1.0991
 Frc consts  --     10.6304                10.6304                10.7647
 IR Inten    --     73.6919                73.6919               235.6233

                      4
                      A
 Frequencies --   7958.4004
 Red. masses --      1.0157
 Frc consts  --     37.9036
 IR Inten    --      2.3687

 - Thermochemistry -
 -------------------
 Temperature   298.150 Kelvin.  Pressure   1.00000 Atm.
 Atom     1 has atomic number  1 and mass   1.00783

 Molecular mass:    21.01405 amu.
 Principal axes and moments of inertia in atomic units:
                           1         2         3
     Eigenvalues --     0.00000   8.52200   8.52200
           X            1.00000  -0.00000   0.00000
           Y            0.00000   1.00000   0.00000
           Z            0.00000   0.00000   1.00000
 This molecule is a prolate symmetric top.
 Rotational symmetry number  1.
 Rotational temperature (Kelvin)     10.16356
 Rotational constant (GHZ):         211.774255
    2 imaginary frequencies ignored.
 Zero-point vibrational energy      71988.5 (Joules/Mol)
                                   17.20567 (Kcal/Mol)
 Vibrational temperatures:   5866.10 11450.36
          (Kelvin)

 Zero-point correction=                           0.027419 (Hartree/Particle)
 Thermal correction to Energy=                    0.029779
 Thermal correction to Enthalpy=                  0.030724
 Thermal correction to Gibbs Free Energy=         0.009273
 Sum of electronic and zero-point Energies=           -100.771303
 Sum of electronic and thermal Energies=              -100.768943
 Sum of electronic and thermal Enthalpies=            -100.767999
 Sum of electronic and thermal Free Energies=         -100.789450

                     E (Thermal)             CV                S
                      KCal/Mol        Cal/Mol-Kelvin    Cal/Mol-Kelvin
 Total                   18.687              4.968             45.147
 Electronic               0.000              0.000              1.377
 Translational            0.889              2.981             35.068
 Rotational               0.592              1.987              8.702
 Vibrational             17.206              0.000              0.000

 Normal termination of Gaussian 16 at Fri Aug 22 15:50:07 2025.
