 Gaussian 16, Revision C.01,
 Gaussian 16:  ES64L-G16RevC.01  3-Jul-2019

 -----------------------------------------
 # sp b3lyp/6-311g** Force nosymm scf=(qc)
 -----------------------------------------

 -------------------
 Title Card Required
 -------------------
 Symbolic Z-matrix:
 Charge =  0 Multiplicity = 2

                          Input orientation:
 ---------------------------------------------------------------------
 Center     Atomic      Atomic             Coordinates (Angstroms)
 Number     Number       Type             X           Y           Z
 ---------------------------------------------------------------------
      1          1           0        0.000000    0.000000    0.000000
      2          1           0       -2.000000    0.000000    0.000000
      3          9           0        2.700000    0.000000    0.000000
 ---------------------------------------------------------------------

 SCF Done:  E(UB3LYP) =  -100.778919789     a.u. after   20 cycles

 Alpha  occ. eigenvalues --  -24.73032  -1.19157  -0.52146  -0.43783  -0.43783
 Alpha  occ. eigenvalues --   -0.34318
 Alpha virt. eigenvalues --   -0.12324   0.25122   0.31912   0.90316   0.92907
 Alpha virt. eigenvalues --    0.92907   1.05555   1.18153   1.23630   1.23630
 Alpha virt. eigenvalues --    1.35880   1.35880   1.49445   2.11781   2.35891

  Beta  occ. eigenvalues --  -24.70087  -1.10740  -0.40840  -0.40840  -0.34553
  Beta virt. eigenvalues --   -0.24262  -0.11413   0.26330   0.32132   0.94333
  Beta virt. eigenvalues --    0.94333   0.98333   1.08965   1.19167   1.23363
  Beta virt. eigenvalues --    1.23363   1.37336   1.37336   1.50393   2.12822

 Mulliken charges and spin densities:
               1          2
     1  H    0.036515  -0.797148
     2  H    0.022869   0.865054
     3  F   -0.059384   0.932094
 Sum of Mulliken charges =   0.00000   1.00000

 Dipole moment (field-independent basis, Debye):
    X=             -1.0387    Y=              0.0000    Z=             -0.0000  Tot=              1.0387
 Quadrupole moment (field-independent basis, Debye-Ang):
   XX=             -7.8413   YY=             -7.6859   ZZ=             -7.6859
   XY=             -0.0000   XZ=              0.0000   YZ=              0.0000

  Exact polarizability:      60.474      -0.000       2.005       0.000      -0.000       2.005
 Approx polarizability:      61.111      -0.000       1.929       0.000      -0.000       1.929

 ******    2 imaginary frequencies (negative Signs) ******

                      1                      2                      3
                      A                      A                      A
 Frequencies --  -1380.1877              -325.3266               556.0852
 Red. masses --      1.0084                 1.1078                 1.0147
 Frc consts  --      1.1318                 0.0691                 0.1849
 IR Inten    --     60.9051                43.3626                 0.6384

                      4
                      A
 Frequencies --    556.0852
 Red. masses --      1.0147
 Frc consts  --      0.1849
 IR Inten    --      0.6384

 - Thermochemistry -
 -------------------
 Temperature   298.150 Kelvin.  Pressure   1.00000 Atm.
 Atom     1 has atomic number  1 and mass   1.00783

 Molecular mass:    21.01405 amu.
 Principal axes and moments of inertia in atomic units:
                           1         2         3
     Eigenvalues --     0.00000  96.28692  96.28692
           X            1.00000  -0.00000   0.00000
           Y            0.00000   1.00000   0.00000
           Z            0.00000   0.00000   1.00000
 This molecule is a prolate symmetric top.
 Rotational symmetry number  1.
 Rotational temperature (Kelvin)      0.89954
 Rotational constant (GHZ):          18.743369
    2 imaginary frequencies ignored.
 Zero-point vibrational energy       6652.3 (Joules/Mol)
                                    1.58993 (Kcal/Mol)
 Warning -- explicit consideration of   2 degrees of freedom as
           vibrations may cause significant error
 Vibrational temperatures:    800.08   800.08
          (Kelvin)

 Zero-point correction=                           0.002534 (Hartree/Particle)
 Thermal correction to Energy=                    0.005266
 Thermal correction to Enthalpy=                  0.006210
 Thermal correction to Gibbs Free Energy=        -0.018035
 Sum of electronic and zero-point Energies=           -100.776386
 Sum of electronic and thermal Energies=              -100.773654
 Sum of electronic and thermal Enthalpies=            -100.772710
 Sum of electronic and thermal Free Energies=         -100.796955

                     E (Thermal)             CV                S
                      KCal/Mol        Cal/Mol-Kelvin    Cal/Mol-Kelvin
 Total                    3.304              7.221             51.029
 Electronic               0.000              0.000              1.377
 Translational            0.889              2.981             35.068
 Rotational               0.592              1.987             13.520
 Vibrational              1.823              2.253              1.063
 Vibration     1          0.912              1.126              0.532
 Vibration     2          0.912              1.126              0.532

 Normal termination of Gaussian 16 at Fri Aug 22 18:25:23 2025.
