 Gaussian 16, Revision C.01,
 Gaussian 16:  ES64L-G16RevC.01  3-Jul-2019

 -----------------------------------------
 # sp b3lyp/6-311g** Force nosymm scf=(qc)
 -----------------------------------------

 -------------------
 Title Card Required
 -------------------
 Symbolic Z-matrix:
 Charge =  0 Multiplicity = 2

                          Input orientation:
 ---------------------------------------------------------------------
 Center     Atomic      Atomic             Coordinates (Angstroms)
 Number     Number       Type             X           Y           Z
 ---------------------------------------------------------------------
      1          1           0        0.000000    0.000000    0.000000
      2          1           0       -1.750000    0.000000    0.000000
      3          9           0        0.700000    0.000000    0.000000
 ---------------------------------------------------------------------

 SCF Done:  E(UB3LYP) =  -100.873037177     a.u. after    6 cycles

 Alpha  occ. eigenvalues --  -24.63075  -1.28197  -0.58869  -0.41667  -0.41667
 Alpha  occ. eigenvalues --   -0.35751
 Alpha virt. eigenvalues --    0.11667   0.23041   0.49976   0.93507   0.93507
 Alpha virt. eigenvalues --    0.96102   1.20748   1.20748   1.23751   1.45079
 Alpha virt. eigenvalues --    1.45079   1.57224   2.01253   2.16181   2.94143

  Beta  occ. eigenvalues --  -24.63009  -1.28010  -0.58519  -0.41619  -0.41619
  Beta virt. eigenvalues --   -0.11452   0.13127   0.32473   0.52451   0.93536
  Beta virt. eigenvalues --    0.93536   0.96258   1.32006   1.37442   1.37442
  Beta virt. eigenvalues --    1.47615   1.47615   1.64925   2.03853   2.38183

 Mulliken charges and spin densities:
               1          2
     1  H    0.244218   0.012714
     2  H    0.013044   0.976545
     3  F   -0.257262   0.010741
 Sum of Mulliken charges =   0.00000   1.00000

 Dipole moment (field-independent basis, Debye):
    X=             -1.6789    Y=              0.0000    Z=             -0.0000  Tot=              1.6789
 Quadrupole moment (field-independent basis, Debye-Ang):
   XX=             -7.0166   YY=             -6.6050   ZZ=             -6.6050
   XY=              0.0000   XZ=             -0.0000   YZ=             -0.0000

  Exact polarizability:       6.964       0.000       2.516      -0.000       0.000       2.516
 Approx polarizability:       6.819      -0.000       2.515       0.000       0.000       2.515

 ******    2 imaginary frequencies (negative Signs) ******

                      1                      2                      3
                      A                      A                      A
 Frequencies --  -3486.2018             -3486.2018               531.2905
 Red. masses --      1.0317                 1.0317                 1.0533
 Frc consts  --      7.3875                 7.3875                 0.1752
 IR Inten    --    166.4078               166.4078                 0.0959

                      4
                      A
 Frequencies --   9063.9620
 Red. masses --      1.0582
 Frc consts  --     51.2226
 IR Inten    --    148.7542

 - Thermochemistry -
 -------------------
 Temperature   298.150 Kelvin.  Pressure   1.00000 Atm.
 Atom     1 has atomic number  1 and mass   1.00783

 Molecular mass:    21.01405 amu.
 Principal axes and moments of inertia in atomic units:
                           1         2         3
     Eigenvalues --     0.00000  21.65387  21.65387
           X            1.00000  -0.00000   0.00000
           Y            0.00000   1.00000   0.00000
           Z            0.00000   0.00000   1.00000
 This molecule is a prolate symmetric top.
 Rotational symmetry number  1.
 Rotational temperature (Kelvin)      3.99993
 Rotational constant (GHZ):          83.344969
    2 imaginary frequencies ignored.
 Zero-point vibrational energy      57392.4 (Joules/Mol)
                                   13.71710 (Kcal/Mol)
 Warning -- explicit consideration of   1 degrees of freedom as
           vibrations may cause significant error
 Vibrational temperatures:    764.41 13041.02
          (Kelvin)

 Zero-point correction=                           0.021860 (Hartree/Particle)
 Thermal correction to Energy=                    0.024422
 Thermal correction to Enthalpy=                  0.025366
 Thermal correction to Gibbs Free Energy=         0.002757
 Sum of electronic and zero-point Energies=           -100.851178
 Sum of electronic and thermal Energies=              -100.848615
 Sum of electronic and thermal Enthalpies=            -100.847671
 Sum of electronic and thermal Free Energies=         -100.870280

                     E (Thermal)             CV                S
                      KCal/Mol        Cal/Mol-Kelvin    Cal/Mol-Kelvin
 Total                   15.325              6.149             47.584
 Electronic               0.000              0.000              1.377
 Translational            0.889              2.981             35.068
 Rotational               0.592              1.987             10.555
 Vibrational             13.844              1.181              0.584
 Vibration     1          0.886              1.181              0.584

 Normal termination of Gaussian 16 at Fri Aug 22 15:46:15 2025.
