 Gaussian 16, Revision C.01,
 Gaussian 16:  ES64L-G16RevC.01  3-Jul-2019

 -----------------------------------------
 # sp b3lyp/6-311g** Force nosymm scf=(qc)
 -----------------------------------------

 -------------------
 Title Card Required
 -------------------
 Symbolic Z-matrix:
 Charge =  0 Multiplicity = 2

                          Input orientation:
 ---------------------------------------------------------------------
 Center     Atomic      Atomic             Coordinates (Angstroms)
 Number     Number       Type             X           Y           Z
 ---------------------------------------------------------------------
      1          1           0        0.000000    0.000000    0.000000
      2          1           0       -3.800000    0.000000    0.000000
      3          9           0        2.800000    0.000000    0.000000
 ---------------------------------------------------------------------

 SCF Done:  E(UB3LYP) =  -100.762628017     a.u. after   21 cycles

 Alpha  occ. eigenvalues --  -24.73273  -1.19392  -0.52390  -0.43995  -0.43995
 Alpha  occ. eigenvalues --   -0.32587
 Alpha virt. eigenvalues --   -0.08627   0.23737   0.35977   0.89837   0.92756
 Alpha virt. eigenvalues --    0.92756   1.05024   1.24913   1.24913   1.24959
 Alpha virt. eigenvalues --    1.43007   1.43007   1.44269   2.14372   2.39717

  Beta  occ. eigenvalues --  -24.70304  -1.10901  -0.41027  -0.41027  -0.34281
  Beta virt. eigenvalues --   -0.24299  -0.06180   0.23812   0.38095   0.94196
  Beta virt. eigenvalues --    0.94196   0.98051   1.08391   1.23029   1.23029
  Beta virt. eigenvalues --    1.24581   1.46332   1.46526   1.46526   2.13920

 Mulliken charges and spin densities:
               1          2
     1  H    0.054152  -0.939027
     2  H    0.000276   0.999020
     3  F   -0.054428   0.940008
 Sum of Mulliken charges =  -0.00000   1.00000

 Dipole moment (field-independent basis, Debye):
    X=             -0.7860    Y=             -0.0000    Z=             -0.0000  Tot=              0.7860
 Quadrupole moment (field-independent basis, Debye-Ang):
   XX=             -8.7494   YY=             -7.5949   ZZ=             -7.5949
   XY=             -0.0000   XZ=             -0.0000   YZ=              0.0000

  Exact polarizability:      31.513      -0.000       2.025      -0.000      -0.000       2.025
 Approx polarizability:      35.673      -0.000       1.923      -0.000      -0.000       1.923

 ******    2 imaginary frequencies (negative Signs) ******

                      1                      2                      3
                      A                      A                      A
 Frequencies --   -450.5085               -86.1281               164.1737
 Red. masses --      1.0544                 1.0572                 1.0220
 Frc consts  --      0.1261                 0.0046                 0.0162
 IR Inten    --     54.9363                 0.1156                 2.8303

                      4
                      A
 Frequencies --    164.1737
 Red. masses --      1.0220
 Frc consts  --      0.0162
 IR Inten    --      2.8303

 - Thermochemistry -
 -------------------
 Temperature   298.150 Kelvin.  Pressure   1.00000 Atm.
 Atom     1 has atomic number  1 and mass   1.00783

 Molecular mass:    21.01405 amu.
 Principal axes and moments of inertia in atomic units:
                           1         2         3
     Eigenvalues --     0.00000 169.73749 169.73749
           X            1.00000  -0.00000   0.00000
           Y            0.00000   1.00000   0.00000
           Z            0.00000   0.00000   1.00000
 This molecule is a prolate symmetric top.
 Rotational symmetry number  1.
 Rotational temperature (Kelvin)      0.51028
 Rotational constant (GHZ):          10.632543
    2 imaginary frequencies ignored.
 Zero-point vibrational energy       1964.0 (Joules/Mol)
                                    0.46940 (Kcal/Mol)
 Warning -- explicit consideration of   2 degrees of freedom as
           vibrations may cause significant error
 Vibrational temperatures:    236.21   236.21
          (Kelvin)

 Zero-point correction=                           0.000748 (Hartree/Particle)
 Thermal correction to Energy=                    0.004347
 Thermal correction to Enthalpy=                  0.005291
 Thermal correction to Gibbs Free Energy=        -0.021361
 Sum of electronic and zero-point Energies=           -100.761880
 Sum of electronic and thermal Energies=              -100.758281
 Sum of electronic and thermal Enthalpies=            -100.757337
 Sum of electronic and thermal Free Energies=         -100.783989

                     E (Thermal)             CV                S
                      KCal/Mol        Cal/Mol-Kelvin    Cal/Mol-Kelvin
 Total                    2.728              8.741             56.094
 Electronic               0.000              0.000              1.377
 Translational            0.889              2.981             35.068
 Rotational               0.592              1.987             14.646
 Vibrational              1.246              3.773              5.002
 Vibration     1          0.623              1.886              2.501
 Vibration     2          0.623              1.886              2.501

 Normal termination of Gaussian 16 at Fri Aug 22 18:44:54 2025.
