 Gaussian 16, Revision C.01,
 Gaussian 16:  ES64L-G16RevC.01  3-Jul-2019

 -----------------------------------------
 # sp b3lyp/6-311g** Force nosymm scf=(qc)
 -----------------------------------------

 -------------------
 Title Card Required
 -------------------
 Symbolic Z-matrix:
 Charge =  0 Multiplicity = 2

                          Input orientation:
 ---------------------------------------------------------------------
 Center     Atomic      Atomic             Coordinates (Angstroms)
 Number     Number       Type             X           Y           Z
 ---------------------------------------------------------------------
      1          1           0        0.000000    0.000000    0.000000
      2          1           0       -1.250000    0.000000    0.000000
      3          9           0        3.050000    0.000000    0.000000
 ---------------------------------------------------------------------

 SCF Done:  E(UB3LYP) =  -100.863197081     a.u. after   92 cycles

 Alpha  occ. eigenvalues --  -24.76657  -1.22484  -0.55675  -0.46918  -0.46825
 Alpha  occ. eigenvalues --   -0.35659
 Alpha virt. eigenvalues --   -0.04947   0.23340   0.33675   0.85776   0.90649
 Alpha virt. eigenvalues --    0.93242   1.03425   1.14224   1.14230   1.18909
 Alpha virt. eigenvalues --    1.51980   1.51987   2.03861   2.30812   2.54701

  Beta  occ. eigenvalues --  -24.73497  -1.13400  -0.43757  -0.43657  -0.35648
  Beta virt. eigenvalues --   -0.26302  -0.04932   0.23360   0.33745   0.92148
  Beta virt. eigenvalues --    0.94896   0.95234   1.07328   1.14223   1.14229
  Beta virt. eigenvalues --    1.18916   1.51979   1.51986   2.03870   2.30815

 Mulliken charges and spin densities:
               1          2
     1  H   -0.001097  -0.000126
     2  H   -0.006087  -0.000816
     3  F    0.007184   1.000942
 Sum of Mulliken charges =   0.00000   1.00000

 Dipole moment (field-independent basis, Debye):
    X=              0.0997    Y=              0.0000    Z=             -0.0000  Tot=              0.0997
 Quadrupole moment (field-independent basis, Debye-Ang):
   XX=             -6.1585   YY=             -6.6890   ZZ=             -7.5501
   XY=              0.0000   XZ=             -0.0000   YZ=             -0.0332

  Exact polarizability:      17.542       0.000       2.540      -0.000      -0.018       2.080
 Approx polarizability:      27.073       0.000       2.680      -0.000      -0.022       2.102

 ******    1 imaginary frequencies (negative Signs) ******

                      1                      2                      3
                      A                      A                      A
 Frequencies --   -788.8702                31.0904              1430.9185
 Red. masses --      1.0078                 1.1085                 1.0107
 Frc consts  --      0.3695                 0.0006                 1.2192
 IR Inten    --      0.8909                 0.5212                 0.0028

                      4
                      A
 Frequencies --   1432.8614
 Red. masses --      1.0107
 Frc consts  --      1.2226
 IR Inten    --      0.0026

 - Thermochemistry -
 -------------------
 Temperature   298.150 Kelvin.  Pressure   1.00000 Atm.
 Atom     1 has atomic number  1 and mass   1.00783

 Molecular mass:    21.01405 amu.
 Principal axes and moments of inertia in atomic units:
                           1         2         3
     Eigenvalues --     0.00000  90.70079  90.70079
           X            1.00000  -0.00000   0.00000
           Y            0.00000   1.00000   0.00000
           Z            0.00000   0.00000   1.00000
 This molecule is a prolate symmetric top.
 Rotational symmetry number  1.
 Rotational temperature (Kelvin)      0.95494
 Rotational constant (GHZ):          19.897746
    1 imaginary frequencies ignored.
 Zero-point vibrational energy      17315.2 (Joules/Mol)
                                    4.13842 (Kcal/Mol)
 Warning -- explicit consideration of   1 degrees of freedom as
           vibrations may cause significant error
 Vibrational temperatures:     44.73  2058.77  2061.57
          (Kelvin)

 Zero-point correction=                           0.006595 (Hartree/Particle)
 Thermal correction to Energy=                    0.009844
 Thermal correction to Enthalpy=                  0.010788
 Thermal correction to Gibbs Free Energy=        -0.015647
 Sum of electronic and zero-point Energies=           -100.856602
 Sum of electronic and thermal Energies=              -100.853353
 Sum of electronic and thermal Enthalpies=            -100.852409
 Sum of electronic and thermal Free Energies=         -100.878844

                     E (Thermal)             CV                S
                      KCal/Mol        Cal/Mol-Kelvin    Cal/Mol-Kelvin
 Total                    6.177              7.141             55.637
 Electronic               0.000              0.000              1.377
 Translational            0.889              2.981             35.068
 Rotational               0.592              1.987             13.401
 Vibrational              4.696              2.173              5.790
 Vibration     1          0.594              1.983              5.759

 Normal termination of Gaussian 16 at Fri Aug 22 19:40:58 2025.
