 Gaussian 16, Revision C.01,
 Gaussian 16:  ES64L-G16RevC.01  3-Jul-2019

 -----------------------------------------
 # sp b3lyp/6-311g** Force nosymm scf=(qc)
 -----------------------------------------

 -------------------
 Title Card Required
 -------------------
 Symbolic Z-matrix:
 Charge =  0 Multiplicity = 2

                          Input orientation:
 ---------------------------------------------------------------------
 Center     Atomic      Atomic             Coordinates (Angstroms)
 Number     Number       Type             X           Y           Z
 ---------------------------------------------------------------------
      1          1           0        0.000000    0.000000    0.000000
      2          1           0       -2.500000    0.000000    0.000000
      3          9           0        0.900000    0.000000    0.000000
 ---------------------------------------------------------------------

 SCF Done:  E(UB3LYP) =  -100.971782826     a.u. after    5 cycles

 Alpha  occ. eigenvalues --  -24.63897  -1.18961  -0.53825  -0.39567  -0.39567
 Alpha  occ. eigenvalues --   -0.34828
 Alpha virt. eigenvalues --    0.04442   0.25258   0.39436   0.94417   0.94417
 Alpha virt. eigenvalues --    0.97642   1.19038   1.22722   1.22722   1.37356
 Alpha virt. eigenvalues --    1.37356   1.39427   2.01300   2.13739   2.37511

  Beta  occ. eigenvalues --  -24.63881  -1.18920  -0.53756  -0.39553  -0.39553
  Beta virt. eigenvalues --   -0.09321   0.06074   0.36875   0.40004   0.94419
  Beta virt. eigenvalues --    0.94419   0.97746   1.28690   1.37329   1.37329
  Beta virt. eigenvalues --    1.44724   1.44724   1.52729   2.01213   2.36622

 Mulliken charges and spin densities:
               1          2
     1  H    0.290942   0.003464
     2  H    0.005954   0.991412
     3  F   -0.296896   0.005123
 Sum of Mulliken charges =   0.00000   1.00000

 Dipole moment (field-independent basis, Debye):
    X=             -1.9605    Y=              0.0000    Z=              0.0000  Tot=              1.9605
 Quadrupole moment (field-independent basis, Debye-Ang):
   XX=             -7.6942   YY=             -6.8613   ZZ=             -6.8613
   XY=              0.0000   XZ=              0.0000   YZ=             -0.0000

  Exact polarizability:       7.450       0.000       2.454      -0.000      -0.000       2.454
 Approx polarizability:       8.111      -0.000       2.436      -0.000      -0.000       2.436

 ******    3 imaginary frequencies (negative Signs) ******

                      1                      2                      3
                      A                      A                      A
 Frequencies --   -625.5512              -625.5512               -11.3463
 Red. masses --      1.0334                 1.0334                 1.0531
 Frc consts  --      0.2382                 0.2382                 0.0001
 IR Inten    --    167.1234               167.1234                 0.6185

                      4
                      A
 Frequencies --   4425.0649
 Red. masses --      1.0584
 Frc consts  --     12.2110
 IR Inten    --    128.4164

 - Thermochemistry -
 -------------------
 Temperature   298.150 Kelvin.  Pressure   1.00000 Atm.
 Atom     1 has atomic number  1 and mass   1.00783

 Molecular mass:    21.01405 amu.
 Principal axes and moments of inertia in atomic units:
                           1         2         3
     Eigenvalues --     0.00000  41.32823  41.32823
           X            1.00000  -0.00000   0.00000
           Y            0.00000   1.00000   0.00000
           Z            0.00000   0.00000   1.00000
 This molecule is a prolate symmetric top.
 Rotational symmetry number  1.
 Rotational temperature (Kelvin)      2.09576
 Rotational constant (GHZ):          43.668481
    3 imaginary frequencies ignored.
 Zero-point vibrational energy      26467.8 (Joules/Mol)
                                    6.32595 (Kcal/Mol)
 Vibrational temperatures:   6366.68
          (Kelvin)

 Zero-point correction=                           0.010081 (Hartree/Particle)
 Thermal correction to Energy=                    0.012442
 Thermal correction to Enthalpy=                  0.013386
 Thermal correction to Gibbs Free Energy=        -0.009556
 Sum of electronic and zero-point Energies=           -100.961702
 Sum of electronic and thermal Energies=              -100.959341
 Sum of electronic and thermal Enthalpies=            -100.958397
 Sum of electronic and thermal Free Energies=         -100.981339

                     E (Thermal)             CV                S
                      KCal/Mol        Cal/Mol-Kelvin    Cal/Mol-Kelvin
 Total                    7.807              4.968             48.285
 Electronic               0.000              0.000              1.377
 Translational            0.889              2.981             35.068
 Rotational               0.592              1.987             11.839
 Vibrational              6.326              0.000              0.000

 Normal termination of Gaussian 16 at Fri Aug 22 15:56:09 2025.
