 Gaussian 16, Revision C.01,
 Gaussian 16:  ES64L-G16RevC.01  3-Jul-2019

 -----------------------------------------
 # sp b3lyp/6-311g** Force nosymm scf=(qc)
 -----------------------------------------

 -------------------
 Title Card Required
 -------------------
 Symbolic Z-matrix:
 Charge =  0 Multiplicity = 2

                          Input orientation:
 ---------------------------------------------------------------------
 Center     Atomic      Atomic             Coordinates (Angstroms)
 Number     Number       Type             X           Y           Z
 ---------------------------------------------------------------------
      1          1           0        0.000000    0.000000    0.000000
      2          1           0       -3.300000    0.000000    0.000000
      3          9           0        1.300000    0.000000    0.000000
 ---------------------------------------------------------------------

 SCF Done:  E(UB3LYP) =  -100.901315362     a.u. after    7 cycles

 Alpha  occ. eigenvalues --  -24.64351  -1.11099  -0.46051  -0.37052  -0.37052
 Alpha  occ. eigenvalues --   -0.34110
 Alpha virt. eigenvalues --   -0.08871   0.21713   0.28458   0.93021   0.93021
 Alpha virt. eigenvalues --    1.02069   1.21579   1.23410   1.23410   1.23638
 Alpha virt. eigenvalues --    1.33821   1.33821   1.70780   2.13862   2.24778

  Beta  occ. eigenvalues --  -24.64341  -1.11072  -0.46021  -0.37043  -0.37043
  Beta virt. eigenvalues --   -0.10044  -0.05796   0.25346   0.38176   0.93019
  Beta virt. eigenvalues --    0.93019   1.02099   1.21747   1.33792   1.33792
  Beta virt. eigenvalues --    1.45828   1.46326   1.46326   1.70832   2.24618

 Mulliken charges and spin densities:
               1          2
     1  H    0.357193  -0.000787
     2  H    0.002279   0.997479
     3  F   -0.359473   0.003308
 Sum of Mulliken charges =   0.00000   1.00000

 Dipole moment (field-independent basis, Debye):
    X=             -2.4255    Y=              0.0000    Z=              0.0000  Tot=              2.4255
 Quadrupole moment (field-independent basis, Debye-Ang):
   XX=             -9.1490   YY=             -7.1998   ZZ=             -7.1998
   XY=              0.0000   XZ=              0.0000   YZ=             -0.0000

  Exact polarizability:      11.801       0.000       2.281      -0.000      -0.000       2.281
 Approx polarizability:      17.880       0.000       2.226       0.000       0.000       2.226

 ******    2 imaginary frequencies (negative Signs) ******

                      1                      2                      3
                      A                      A                      A
 Frequencies --   -616.6322               -80.6808              1156.8413
 Red. masses --      1.0551                 1.0565                 1.0319
 Frc consts  --      0.2364                 0.0041                 0.8137
 IR Inten    --     64.3971                 0.0696               134.2443

                      4
                      A
 Frequencies --   1156.8413
 Red. masses --      1.0319
 Frc consts  --      0.8137
 IR Inten    --    134.2443

 - Thermochemistry -
 -------------------
 Temperature   298.150 Kelvin.  Pressure   1.00000 Atm.
 Atom     1 has atomic number  1 and mass   1.00783

 Molecular mass:    21.01405 amu.
 Principal axes and moments of inertia in atomic units:
                           1         2         3
     Eigenvalues --     0.00000  76.22890  76.22890
           X            1.00000  -0.00000   0.00000
           Y            0.00000   1.00000   0.00000
           Z            0.00000   0.00000   1.00000
 This molecule is a prolate symmetric top.
 Rotational symmetry number  1.
 Rotational temperature (Kelvin)      1.13623
 Rotational constant (GHZ):          23.675289
    2 imaginary frequencies ignored.
 Zero-point vibrational energy      13838.9 (Joules/Mol)
                                    3.30758 (Kcal/Mol)
 Vibrational temperatures:   1664.44  1664.44
          (Kelvin)

 Zero-point correction=                           0.005271 (Hartree/Particle)
 Thermal correction to Energy=                    0.007671
 Thermal correction to Enthalpy=                  0.008615
 Thermal correction to Gibbs Free Energy=        -0.014951
 Sum of electronic and zero-point Energies=           -100.896044
 Sum of electronic and thermal Energies=              -100.893644
 Sum of electronic and thermal Enthalpies=            -100.892700
 Sum of electronic and thermal Free Energies=         -100.916266

                     E (Thermal)             CV                S
                      KCal/Mol        Cal/Mol-Kelvin    Cal/Mol-Kelvin
 Total                    4.814              5.438             49.600
 Electronic               0.000              0.000              1.377
 Translational            0.889              2.981             35.068
 Rotational               0.592              1.987             13.056
 Vibrational              3.333              0.470              0.099

 Normal termination of Gaussian 16 at Fri Aug 22 16:15:56 2025.
