 Gaussian 16, Revision C.01,
 Gaussian 16:  ES64L-G16RevC.01  3-Jul-2019

 -----------------------------------------
 # sp b3lyp/6-311g** Force nosymm scf=(qc)
 -----------------------------------------

 -------------------
 Title Card Required
 -------------------
 Symbolic Z-matrix:
 Charge =  0 Multiplicity = 2

                          Input orientation:
 ---------------------------------------------------------------------
 Center     Atomic      Atomic             Coordinates (Angstroms)
 Number     Number       Type             X           Y           Z
 ---------------------------------------------------------------------
      1          1           0        0.000000    0.000000    0.000000
      2          1           0       -0.550000    0.000000    0.000000
      3          9           0        0.850000    0.000000    0.000000
 ---------------------------------------------------------------------

 SCF Done:  E(UB3LYP) =  -100.793137233     a.u. after    6 cycles

 Alpha  occ. eigenvalues --  -24.68039  -1.28294  -0.70220  -0.44261  -0.44261
 Alpha  occ. eigenvalues --   -0.30606
 Alpha virt. eigenvalues --    0.15370   0.17776   0.74570   0.85818   0.85818
 Alpha virt. eigenvalues --    0.92342   1.12179   1.12179   1.47001   1.70393
 Alpha virt. eigenvalues --    1.90343   1.90541   1.90541   2.95271   3.76702

  Beta  occ. eigenvalues --  -24.66508  -1.24228  -0.63469  -0.42902  -0.42902
  Beta virt. eigenvalues --   -0.12765   0.17822   0.19158   0.79182   0.87810
  Beta virt. eigenvalues --    0.87810   0.95456   1.16386   1.16386   1.48977
  Beta virt. eigenvalues --    1.76354   1.94762   1.95226   1.95226   3.01419

 Mulliken charges and spin densities:
               1          2
     1  H    0.277996  -0.041954
     2  H   -0.113875   0.717005
     3  F   -0.164121   0.324949
 Sum of Mulliken charges =   0.00000   1.00000

 Dipole moment (field-independent basis, Debye):
    X=             -0.9503    Y=             -0.0000    Z=              0.0000  Tot=              0.9503
 Quadrupole moment (field-independent basis, Debye-Ang):
   XX=             -7.4016   YY=             -6.3834   ZZ=             -6.3834
   XY=             -0.0000   XZ=              0.0000   YZ=              0.0000

  Exact polarizability:      10.173       0.000       2.480       0.000      -0.000       2.480
 Approx polarizability:      11.077       0.000       2.571      -0.000      -0.000       2.571

 ******    2 imaginary frequencies (negative Signs) ******

                      1                      2                      3
                      A                      A                      A
 Frequencies --  -4674.4860             -4674.4860              3713.6922
 Red. masses --      1.0135                 1.0135                 1.1070
 Frc consts  --     13.0483                13.0483                 8.9948
 IR Inten    --     52.7607                52.7607               186.3425

                      4
                      A
 Frequencies --   8544.6384
 Red. masses --      1.0091
 Frc consts  --     43.4090
 IR Inten    --      1.8096

 - Thermochemistry -
 -------------------
 Temperature   298.150 Kelvin.  Pressure   1.00000 Atm.
 Atom     1 has atomic number  1 and mass   1.00783

 Molecular mass:    21.01405 amu.
 Principal axes and moments of inertia in atomic units:
                           1         2         3
     Eigenvalues --     0.00000   8.78052   8.78052
           X            1.00000  -0.00000   0.00000
           Y            0.00000   1.00000   0.00000
           Z            0.00000   0.00000   1.00000
 This molecule is a prolate symmetric top.
 Rotational symmetry number  1.
 Rotational temperature (Kelvin)      9.86433
 Rotational constant (GHZ):         205.539266
    2 imaginary frequencies ignored.
 Zero-point vibrational energy      73321.1 (Joules/Mol)
                                   17.52416 (Kcal/Mol)
 Vibrational temperatures:   5343.17 12293.83
          (Kelvin)

 Zero-point correction=                           0.027927 (Hartree/Particle)
 Thermal correction to Energy=                    0.030287
 Thermal correction to Enthalpy=                  0.031231
 Thermal correction to Gibbs Free Energy=         0.009752
 Sum of electronic and zero-point Energies=           -100.765211
 Sum of electronic and thermal Energies=              -100.762850
 Sum of electronic and thermal Enthalpies=            -100.761906
 Sum of electronic and thermal Free Energies=         -100.783385

                     E (Thermal)             CV                S
                      KCal/Mol        Cal/Mol-Kelvin    Cal/Mol-Kelvin
 Total                   19.005              4.968             45.206
 Electronic               0.000              0.000              1.377
 Translational            0.889              2.981             35.068
 Rotational               0.592              1.987              8.761
 Vibrational             17.524              0.000              0.000

 Normal termination of Gaussian 16 at Fri Aug 22 15:52:27 2025.
