 Gaussian 16, Revision C.01,
 Gaussian 16:  ES64L-G16RevC.01  3-Jul-2019

 -----------------------------------------
 # sp b3lyp/6-311g** Force nosymm scf=(qc)
 -----------------------------------------

 -------------------
 Title Card Required
 -------------------
 Symbolic Z-matrix:
 Charge =  0 Multiplicity = 2

                          Input orientation:
 ---------------------------------------------------------------------
 Center     Atomic      Atomic             Coordinates (Angstroms)
 Number     Number       Type             X           Y           Z
 ---------------------------------------------------------------------
      1          1           0        0.000000    0.000000    0.000000
      2          1           0       -1.800000    0.000000    0.000000
      3          9           0        2.000000    0.000000    0.000000
 ---------------------------------------------------------------------

 SCF Done:  E(UB3LYP) =  -100.809549977     a.u. after   11 cycles

 Alpha  occ. eigenvalues --  -24.68456  -1.14804  -0.47659  -0.39944  -0.39944
 Alpha  occ. eigenvalues --   -0.37062
 Alpha virt. eigenvalues --   -0.12843   0.23400   0.30742   0.86249   0.94752
 Alpha virt. eigenvalues --    0.94752   1.03624   1.20465   1.20465   1.27847
 Alpha virt. eigenvalues --    1.34248   1.34248   1.65720   2.12926   2.35204

  Beta  occ. eigenvalues --  -24.66021  -1.07985  -0.37541  -0.37541  -0.37315
  Beta virt. eigenvalues --   -0.22085  -0.11319   0.25978   0.30596   0.89304
  Beta virt. eigenvalues --    0.95561   0.95561   1.07636   1.22692   1.22692
  Beta virt. eigenvalues --    1.34640   1.35262   1.35262   1.65513   2.13759

 Mulliken charges and spin densities:
               1          2
     1  H    0.123261  -0.563038
     2  H    0.055209   0.797964
     3  F   -0.178470   0.765074
 Sum of Mulliken charges =  -0.00000   1.00000

 Dipole moment (field-independent basis, Debye):
    X=             -2.2514    Y=              0.0000    Z=             -0.0000  Tot=              2.2514
 Quadrupole moment (field-independent basis, Debye-Ang):
   XX=             -8.3683   YY=             -7.5531   ZZ=             -7.5531
   XY=              0.0000   XZ=             -0.0000   YZ=              0.0000

  Exact polarizability:      52.801       0.000       2.073      -0.000      -0.000       2.073
 Approx polarizability:      68.696       0.000       1.994      -0.000      -0.000       1.994

 ******    2 imaginary frequencies (negative Signs) ******

                      1                      2                      3
                      A                      A                      A
 Frequencies --  -1854.6746              -577.7841               779.7404
 Red. masses --      1.0142                 1.1009                 1.0167
 Frc consts  --      2.0555                 0.2165                 0.3642
 IR Inten    --    234.6733                32.4384                 7.5370

                      4
                      A
 Frequencies --    779.7404
 Red. masses --      1.0167
 Frc consts  --      0.3642
 IR Inten    --      7.5370

 - Thermochemistry -
 -------------------
 Temperature   298.150 Kelvin.  Pressure   1.00000 Atm.
 Atom     1 has atomic number  1 and mass   1.00783

 Molecular mass:    21.01405 amu.
 Principal axes and moments of inertia in atomic units:
                           1         2         3
     Eigenvalues --     0.00000  60.55922  60.55922
           X            1.00000  -0.00000   0.00000
           Y            0.00000   1.00000   0.00000
           Z            0.00000   0.00000   1.00000
 This molecule is a prolate symmetric top.
 Rotational symmetry number  1.
 Rotational temperature (Kelvin)      1.43024
 Rotational constant (GHZ):          29.801262
    2 imaginary frequencies ignored.
 Zero-point vibrational energy       9327.8 (Joules/Mol)
                                    2.22939 (Kcal/Mol)
 Vibrational temperatures:   1121.87  1121.87
          (Kelvin)

 Zero-point correction=                           0.003553 (Hartree/Particle)
 Thermal correction to Energy=                    0.006082
 Thermal correction to Enthalpy=                  0.007026
 Thermal correction to Gibbs Free Energy=        -0.016489
 Sum of electronic and zero-point Energies=           -100.805997
 Sum of electronic and thermal Energies=              -100.803468
 Sum of electronic and thermal Enthalpies=            -100.802524
 Sum of electronic and thermal Free Energies=         -100.826039

                     E (Thermal)             CV                S
                      KCal/Mol        Cal/Mol-Kelvin    Cal/Mol-Kelvin
 Total                    3.817              6.337             49.493
 Electronic               0.000              0.000              1.377
 Translational            0.889              2.981             35.068
 Rotational               0.592              1.987             12.598
 Vibrational              2.335              1.369              0.449

 Normal termination of Gaussian 16 at Fri Aug 22 16:56:19 2025.
