 Gaussian 16, Revision C.01,
 Gaussian 16:  ES64L-G16RevC.01  3-Jul-2019

 -----------------------------------------
 # sp b3lyp/6-311g** Force nosymm scf=(qc)
 -----------------------------------------

 -------------------
 Title Card Required
 -------------------
 Symbolic Z-matrix:
 Charge =  0 Multiplicity = 2

                          Input orientation:
 ---------------------------------------------------------------------
 Center     Atomic      Atomic             Coordinates (Angstroms)
 Number     Number       Type             X           Y           Z
 ---------------------------------------------------------------------
      1          1           0        0.000000    0.000000    0.000000
      2          1           0       -2.750000    0.000000    0.000000
      3          9           0        2.700000    0.000000    0.000000
 ---------------------------------------------------------------------

 SCF Done:  E(UB3LYP) =  -100.765851976     a.u. after   21 cycles

 Alpha  occ. eigenvalues --  -24.72840  -1.18984  -0.51951  -0.43628  -0.43628
 Alpha  occ. eigenvalues --   -0.33178
 Alpha virt. eigenvalues --   -0.10605   0.24758   0.34033   0.90177   0.93012
 Alpha virt. eigenvalues --    0.93012   1.05761   1.24401   1.24401   1.26054
 Alpha virt. eigenvalues --    1.40174   1.40174   1.42104   2.15385   2.36294

  Beta  occ. eigenvalues --  -24.69906  -1.10602  -0.40697  -0.40697  -0.34621
  Beta virt. eigenvalues --   -0.24050  -0.08524   0.25251   0.35750   0.94436
  Beta virt. eigenvalues --    0.94436   0.98187   1.09154   1.22795   1.22795
  Beta virt. eigenvalues --    1.26200   1.43368   1.43368   1.43930   2.15383

 Mulliken charges and spin densities:
               1          2
     1  H    0.059208  -0.914087
     2  H    0.004666   0.985538
     3  F   -0.063874   0.928549
 Sum of Mulliken charges =   0.00000   1.00000

 Dipole moment (field-independent basis, Debye):
    X=             -0.9435    Y=             -0.0000    Z=              0.0000  Tot=              0.9435
 Quadrupole moment (field-independent basis, Debye-Ang):
   XX=             -8.6686   YY=             -7.6148   ZZ=             -7.6148
   XY=              0.0000   XZ=              0.0000   YZ=              0.0000

  Exact polarizability:      38.991       0.000       2.017       0.000      -0.000       2.017
 Approx polarizability:      41.642       0.000       1.919       0.000       0.000       1.919

 ******    2 imaginary frequencies (negative Signs) ******

                      1                      2                      3
                      A                      A                      A
 Frequencies --   -616.4990              -258.4572               236.8406
 Red. masses --      1.0253                 1.0881                 1.0182
 Frc consts  --      0.2296                 0.0428                 0.0336
 IR Inten    --     50.9861                11.7717                 3.0464

                      4
                      A
 Frequencies --    236.8407
 Red. masses --      1.0182
 Frc consts  --      0.0336
 IR Inten    --      3.0464

 - Thermochemistry -
 -------------------
 Temperature   298.150 Kelvin.  Pressure   1.00000 Atm.
 Atom     1 has atomic number  1 and mass   1.00783

 Molecular mass:    21.01405 amu.
 Principal axes and moments of inertia in atomic units:
                           1         2         3
     Eigenvalues --     0.00000 121.67134 121.67134
           X            1.00000  -0.00000   0.00000
           Y            0.00000   1.00000   0.00000
           Z            0.00000   0.00000   1.00000
 This molecule is a prolate symmetric top.
 Rotational symmetry number  1.
 Rotational temperature (Kelvin)      0.71187
 Rotational constant (GHZ):          14.832920
    2 imaginary frequencies ignored.
 Zero-point vibrational energy       2833.2 (Joules/Mol)
                                    0.67716 (Kcal/Mol)
 Warning -- explicit consideration of   2 degrees of freedom as
           vibrations may cause significant error
 Vibrational temperatures:    340.76   340.76
          (Kelvin)

 Zero-point correction=                           0.001079 (Hartree/Particle)
 Thermal correction to Energy=                    0.004450
 Thermal correction to Enthalpy=                  0.005394
 Thermal correction to Gibbs Free Energy=        -0.020302
 Sum of electronic and zero-point Energies=           -100.764773
 Sum of electronic and thermal Energies=              -100.761402
 Sum of electronic and thermal Enthalpies=            -100.760458
 Sum of electronic and thermal Free Energies=         -100.786154

                     E (Thermal)             CV                S
                      KCal/Mol        Cal/Mol-Kelvin    Cal/Mol-Kelvin
 Total                    2.792              8.537             54.083
 Electronic               0.000              0.000              1.377
 Translational            0.889              2.981             35.068
 Rotational               0.592              1.987             13.985
 Vibrational              1.311              3.569              3.653
 Vibration     1          0.656              1.784              1.826
 Vibration     2          0.656              1.784              1.826

 Normal termination of Gaussian 16 at Fri Aug 22 18:26:10 2025.
