 Gaussian 16, Revision C.01,
 Gaussian 16:  ES64L-G16RevC.01  3-Jul-2019

 -----------------------------------------
 # sp b3lyp/6-311g** Force nosymm scf=(qc)
 -----------------------------------------

 -------------------
 Title Card Required
 -------------------
 Symbolic Z-matrix:
 Charge =  0 Multiplicity = 2

                          Input orientation:
 ---------------------------------------------------------------------
 Center     Atomic      Atomic             Coordinates (Angstroms)
 Number     Number       Type             X           Y           Z
 ---------------------------------------------------------------------
      1          1           0        0.000000    0.000000    0.000000
      2          1           0       -3.850000    0.000000    0.000000
      3          9           0        1.900000    0.000000    0.000000
 ---------------------------------------------------------------------

 SCF Done:  E(UB3LYP) =  -100.781377010     a.u. after   12 cycles

 Alpha  occ. eigenvalues --  -24.64130  -1.08441  -0.39250  -0.35762  -0.35762
 Alpha  occ. eigenvalues --   -0.33766
 Alpha virt. eigenvalues --   -0.21935   0.19861   0.26870   0.90501   0.96432
 Alpha virt. eigenvalues --    0.96432   1.08335   1.23703   1.23735   1.23735
 Alpha virt. eigenvalues --    1.24521   1.24521   1.59887   2.11523   2.16101

  Beta  occ. eigenvalues --  -24.64133  -1.08449  -0.39247  -0.35765  -0.35765
  Beta virt. eigenvalues --   -0.21952  -0.06586   0.22419   0.37960   0.90523
  Beta virt. eigenvalues --    0.96434   0.96434   1.08340   1.24562   1.24562
  Beta virt. eigenvalues --    1.45877   1.46232   1.46232   1.59925   2.13974

 Mulliken charges and spin densities:
               1          2
     1  H    0.302480   0.002252
     2  H    0.001388   0.998552
     3  F   -0.303867  -0.000804
 Sum of Mulliken charges =   0.00000   1.00000

 Dipole moment (field-independent basis, Debye):
    X=             -2.9184    Y=             -0.0000    Z=             -0.0000  Tot=              2.9184
 Quadrupole moment (field-independent basis, Debye-Ang):
   XX=            -11.4855   YY=             -7.4946   ZZ=             -7.4946
   XY=             -0.0000   XZ=             -0.0000   YZ=              0.0000

  Exact polarizability:      24.594       0.000       2.036       0.000      -0.000       2.036
 Approx polarizability:      72.976      -0.000       1.942      -0.000      -0.000       1.942

 ******    2 imaginary frequencies (negative Signs) ******

                      1                      2                      3
                      A                      A                      A
 Frequencies --  -1122.2572               -69.2400               737.4109
 Red. masses --      1.0578                 1.0538                 1.0283
 Frc consts  --      0.7849                 0.0030                 0.3294
 IR Inten    --     29.6645                 0.2216                90.2930

                      4
                      A
 Frequencies --    737.4109
 Red. masses --      1.0283
 Frc consts  --      0.3294
 IR Inten    --     90.2930

 - Thermochemistry -
 -------------------
 Temperature   298.150 Kelvin.  Pressure   1.00000 Atm.
 Atom     1 has atomic number  1 and mass   1.00783

 Molecular mass:    21.01405 amu.
 Principal axes and moments of inertia in atomic units:
                           1         2         3
     Eigenvalues --     0.00000 121.88325 121.88325
           X            1.00000  -0.00000   0.00000
           Y            0.00000   1.00000   0.00000
           Z            0.00000   0.00000   1.00000
 This molecule is a prolate symmetric top.
 Rotational symmetry number  1.
 Rotational temperature (Kelvin)      0.71063
 Rotational constant (GHZ):          14.807130
    2 imaginary frequencies ignored.
 Zero-point vibrational energy       8821.4 (Joules/Mol)
                                    2.10836 (Kcal/Mol)
 Vibrational temperatures:   1060.97  1060.97
          (Kelvin)

 Zero-point correction=                           0.003360 (Hartree/Particle)
 Thermal correction to Energy=                    0.005917
 Thermal correction to Enthalpy=                  0.006862
 Thermal correction to Gibbs Free Energy=        -0.017353
 Sum of electronic and zero-point Energies=           -100.778017
 Sum of electronic and thermal Energies=              -100.775460
 Sum of electronic and thermal Enthalpies=            -100.774515
 Sum of electronic and thermal Free Energies=         -100.798730

                     E (Thermal)             CV                S
                      KCal/Mol        Cal/Mol-Kelvin    Cal/Mol-Kelvin
 Total                    3.713              6.487             50.963
 Electronic               0.000              0.000              1.377
 Translational            0.889              2.981             35.068
 Rotational               0.592              1.987             13.988
 Vibrational              2.232              1.519              0.529

 Normal termination of Gaussian 16 at Fri Aug 22 16:51:34 2025.
