 Gaussian 16, Revision C.01,
 Gaussian 16:  ES64L-G16RevC.01  3-Jul-2019

 -----------------------------------------
 # sp b3lyp/6-311g** Force nosymm scf=(qc)
 -----------------------------------------

 -------------------
 Title Card Required
 -------------------
 Symbolic Z-matrix:
 Charge =  0 Multiplicity = 2

                          Input orientation:
 ---------------------------------------------------------------------
 Center     Atomic      Atomic             Coordinates (Angstroms)
 Number     Number       Type             X           Y           Z
 ---------------------------------------------------------------------
      1          1           0        0.000000    0.000000    0.000000
      2          1           0       -3.000000    0.000000    0.000000
      3          9           0        3.900000    0.000000    0.000000
 ---------------------------------------------------------------------

 SCF Done:  E(UB3LYP) =  -100.759553109     a.u. after   34 cycles

 Alpha  occ. eigenvalues --  -24.75836  -1.21767  -0.54961  -0.46147  -0.46147
 Alpha  occ. eigenvalues --   -0.32351
 Alpha virt. eigenvalues --   -0.07711   0.25055   0.36476   0.86689   0.91197
 Alpha virt. eigenvalues --    0.91197   1.01152   1.25185   1.25185   1.25887
 Alpha virt. eigenvalues --    1.44346   1.44375   1.44375   2.15806   2.39564

  Beta  occ. eigenvalues --  -24.72694  -1.12731  -0.42996  -0.42996  -0.32552
  Beta virt. eigenvalues --   -0.25713  -0.07467   0.24889   0.36807   0.92695
  Beta virt. eigenvalues --    0.92695   0.96043   1.05270   1.24965   1.24965
  Beta virt. eigenvalues --    1.25648   1.44714   1.44741   1.44741   2.15854

 Mulliken charges and spin densities:
               1          2
     1  H    0.002986  -0.988670
     2  H    0.000298   0.992347
     3  F   -0.003284   0.996323
 Sum of Mulliken charges =   0.00000   1.00000

 Dipole moment (field-independent basis, Debye):
    X=             -0.0705    Y=             -0.0000    Z=              0.0000  Tot=              0.0705
 Quadrupole moment (field-independent basis, Debye-Ang):
   XX=             -6.8946   YY=             -7.6364   ZZ=             -7.6364
   XY=             -0.0000   XZ=              0.0000   YZ=              0.0000

  Exact polarizability:      15.286      -0.000       2.029      -0.000       0.000       2.029
 Approx polarizability:      11.386      -0.000       1.934       0.000      -0.000       1.934

 ******    2 imaginary frequencies (negative Signs) ******

                      1                      2                      3
                      A                      A                      A
 Frequencies --   -336.9433               -79.6862               119.2568
 Red. masses --      1.0082                 1.1081                 1.0151
 Frc consts  --      0.0674                 0.0041                 0.0085
 IR Inten    --      1.0329                 0.9329                 0.0078

                      4
                      A
 Frequencies --    119.2568
 Red. masses --      1.0151
 Frc consts  --      0.0085
 IR Inten    --      0.0078

 - Thermochemistry -
 -------------------
 Temperature   298.150 Kelvin.  Pressure   1.00000 Atm.
 Atom     1 has atomic number  1 and mass   1.00783

 Molecular mass:    21.01405 amu.
 Principal axes and moments of inertia in atomic units:
                           1         2         3
     Eigenvalues --     0.00000 205.95685 205.95685
           X            1.00000  -0.00000   0.00000
           Y            0.00000   1.00000   0.00000
           Z            0.00000   0.00000   1.00000
 This molecule is a prolate symmetric top.
 Rotational symmetry number  1.
 Rotational temperature (Kelvin)      0.42054
 Rotational constant (GHZ):           8.762715
    2 imaginary frequencies ignored.
 Zero-point vibrational energy       1426.6 (Joules/Mol)
                                    0.34097 (Kcal/Mol)
 Warning -- explicit consideration of   2 degrees of freedom as
           vibrations may cause significant error
 Vibrational temperatures:    171.58   171.58
          (Kelvin)

 Zero-point correction=                           0.000543 (Hartree/Particle)
 Thermal correction to Energy=                    0.004301
 Thermal correction to Enthalpy=                  0.005245
 Thermal correction to Gibbs Free Energy=        -0.022171
 Sum of electronic and zero-point Energies=           -100.759010
 Sum of electronic and thermal Energies=              -100.755252
 Sum of electronic and thermal Enthalpies=            -100.754308
 Sum of electronic and thermal Free Energies=         -100.781724

                     E (Thermal)             CV                S
                      KCal/Mol        Cal/Mol-Kelvin    Cal/Mol-Kelvin
 Total                    2.699              8.835             57.701
 Electronic               0.000              0.000              1.377
 Translational            0.889              2.981             35.068
 Rotational               0.592              1.987             15.031
 Vibrational              1.217              3.867              6.225
 Vibration     1          0.609              1.933              3.112
 Vibration     2          0.609              1.933              3.112

 Normal termination of Gaussian 16 at Sat Aug 23 01:26:15 2025.
