 Gaussian 16, Revision C.01,
 Gaussian 16:  ES64L-G16RevC.01  3-Jul-2019

 -----------------------------------------
 # sp b3lyp/6-311g** Force nosymm scf=(qc)
 -----------------------------------------

 -------------------
 Title Card Required
 -------------------
 Symbolic Z-matrix:
 Charge =  0 Multiplicity = 2

                          Input orientation:
 ---------------------------------------------------------------------
 Center     Atomic      Atomic             Coordinates (Angstroms)
 Number     Number       Type             X           Y           Z
 ---------------------------------------------------------------------
      1          1           0        0.000000    0.000000    0.000000
      2          1           0       -1.200000    0.000000    0.000000
      3          9           0        2.200000    0.000000    0.000000
 ---------------------------------------------------------------------

 SCF Done:  E(UB3LYP) =  -100.875213753     a.u. after   12 cycles

 Alpha  occ. eigenvalues --  -24.73628  -1.19760  -0.53040  -0.44343  -0.44343
 Alpha  occ. eigenvalues --   -0.38511
 Alpha virt. eigenvalues --   -0.04707   0.22165   0.34633   0.88313   0.92040
 Alpha virt. eigenvalues --    0.92040   1.07428   1.10764   1.10764   1.30814
 Alpha virt. eigenvalues --    1.52299   1.52299   2.06073   2.29452   2.53987

  Beta  occ. eigenvalues --  -24.70692  -1.11393  -0.41415  -0.41415  -0.38153
  Beta virt. eigenvalues --   -0.25302  -0.03593   0.22825   0.35097   0.93404
  Beta virt. eigenvalues --    0.93404   0.95604   1.10352   1.11546   1.11546
  Beta virt. eigenvalues --    1.33466   1.52898   1.52898   2.07032   2.30372

 Mulliken charges and spin densities:
               1          2
     1  H    0.017628  -0.083397
     2  H    0.040710   0.158710
     3  F   -0.058338   0.924686
 Sum of Mulliken charges =  -0.00000   1.00000

 Dipole moment (field-independent basis, Debye):
    X=             -0.8672    Y=             -0.0000    Z=             -0.0000  Tot=              0.8672
 Quadrupole moment (field-independent basis, Debye-Ang):
   XX=             -6.5547   YY=             -7.4243   ZZ=             -7.4243
   XY=             -0.0000   XZ=             -0.0000   YZ=             -0.0000

  Exact polarizability:      40.772      -0.000       2.138      -0.000       0.000       2.138
 Approx polarizability:      55.346       0.000       2.140       0.000      -0.000       2.140

 ******    2 imaginary frequencies (negative Signs) ******

                      1                      2                      3
                      A                      A                      A
 Frequencies --  -1114.2229              -132.0994              1406.1814
 Red. masses --      1.0171                 1.0975                 1.0123
 Frc consts  --      0.7440                 0.0113                 1.1793
 IR Inten    --    693.6862                 0.2089                 0.0044

                      4
                      A
 Frequencies --   1406.1814
 Red. masses --      1.0123
 Frc consts  --      1.1793
 IR Inten    --      0.0044

 - Thermochemistry -
 -------------------
 Temperature   298.150 Kelvin.  Pressure   1.00000 Atm.
 Atom     1 has atomic number  1 and mass   1.00783

 Molecular mass:    21.01405 amu.
 Principal axes and moments of inertia in atomic units:
                           1         2         3
     Eigenvalues --     0.00000  53.61079  53.61079
           X            1.00000  -0.00000   0.00000
           Y            0.00000   1.00000   0.00000
           Z            0.00000   0.00000   1.00000
 This molecule is a prolate symmetric top.
 Rotational symmetry number  1.
 Rotational temperature (Kelvin)      1.61561
 Rotational constant (GHZ):          33.663770
    2 imaginary frequencies ignored.
 Zero-point vibrational energy      16821.7 (Joules/Mol)
                                    4.02047 (Kcal/Mol)
 Vibrational temperatures:   2023.18  2023.18
          (Kelvin)

 Zero-point correction=                           0.006407 (Hartree/Particle)
 Thermal correction to Energy=                    0.008782
 Thermal correction to Enthalpy=                  0.009726
 Thermal correction to Gibbs Free Energy=        -0.013478
 Sum of electronic and zero-point Energies=           -100.868807
 Sum of electronic and thermal Energies=              -100.866432
 Sum of electronic and thermal Enthalpies=            -100.865488
 Sum of electronic and thermal Free Energies=         -100.888691

                     E (Thermal)             CV                S
                      KCal/Mol        Cal/Mol-Kelvin    Cal/Mol-Kelvin
 Total                    5.511              5.175             48.837
 Electronic               0.000              0.000              1.377
 Translational            0.889              2.981             35.068
 Rotational               0.592              1.987             12.356
 Vibrational              4.030              0.207              0.035

 Normal termination of Gaussian 16 at Fri Aug 22 17:10:53 2025.
