 Gaussian 16, Revision C.01,
 Gaussian 16:  ES64L-G16RevC.01  3-Jul-2019

 -----------------------------------------
 # sp b3lyp/6-311g** Force nosymm scf=(qc)
 -----------------------------------------

 -------------------
 Title Card Required
 -------------------
 Symbolic Z-matrix:
 Charge =  0 Multiplicity = 2

                          Input orientation:
 ---------------------------------------------------------------------
 Center     Atomic      Atomic             Coordinates (Angstroms)
 Number     Number       Type             X           Y           Z
 ---------------------------------------------------------------------
      1          1           0        0.000000    0.000000    0.000000
      2          1           0       -0.850000    0.000000    0.000000
      3          9           0        3.250000    0.000000    0.000000
 ---------------------------------------------------------------------

 SCF Done:  E(UB3LYP) =  -100.928169292     a.u. after  160 cycles

 Alpha  occ. eigenvalues --  -24.76485  -1.22320  -0.55517  -0.46736  -0.46668
 Alpha  occ. eigenvalues --   -0.41181
 Alpha virt. eigenvalues --    0.03832   0.20491   0.43203   0.85917   0.90792
 Alpha virt. eigenvalues --    0.93360   1.03102   1.08306   1.08311   1.49205
 Alpha virt. eigenvalues --    1.75648   1.75653   2.12751   2.38201   2.87690

  Beta  occ. eigenvalues --  -24.73325  -1.13238  -0.43592  -0.43501  -0.41155
  Beta virt. eigenvalues --   -0.26148   0.03854   0.20508   0.43277   0.92291
  Beta virt. eigenvalues --    0.94985   0.95378   1.07020   1.08306   1.08310
  Beta virt. eigenvalues --    1.49215   1.75647   1.75653   2.12772   2.38206

 Mulliken charges and spin densities:
               1          2
     1  H   -0.002726  -0.000647
     2  H   -0.003396  -0.000103
     3  F    0.006121   1.000750
 Sum of Mulliken charges =   0.00000   1.00000

 Dipole moment (field-independent basis, Debye):
    X=              0.0696    Y=             -0.0000    Z=             -0.0000  Tot=              0.0696
 Quadrupole moment (field-independent basis, Debye-Ang):
   XX=             -6.1589   YY=             -6.3983   ZZ=             -6.9198
   XY=              0.0000   XZ=              0.0000   YZ=              0.3444

  Exact polarizability:       9.919       0.000       2.378       0.000       0.184       2.099
 Approx polarizability:      11.900       0.000       2.541       0.000       0.231       2.191

                      1                      2                      3
                      A                      A                      A
 Frequencies --     36.3608              1327.5028              1328.4396
 Red. masses --      1.1085                 1.0092                 1.0092
 Frc consts  --      0.0009                 1.0478                 1.0493
 IR Inten    --      0.2116                 0.0015                 0.0011

                      4
                      A
 Frequencies --   3136.1124
 Red. masses --      1.0078
 Frc consts  --      5.8401
 IR Inten    --      0.2065

 - Thermochemistry -
 -------------------
 Temperature   298.150 Kelvin.  Pressure   1.00000 Atm.
 Atom     1 has atomic number  1 and mass   1.00783

 Molecular mass:    21.01405 amu.
 Principal axes and moments of inertia in atomic units:
                           1         2         3
     Eigenvalues --     0.00000  89.18920  89.18920
           X            1.00000  -0.00000   0.00000
           Y            0.00000   1.00000   0.00000
           Z            0.00000   0.00000   1.00000
 This molecule is a prolate symmetric top.
 Rotational symmetry number  1.
 Rotational temperature (Kelvin)      0.97113
 Rotational constant (GHZ):          20.234974
 Zero-point vibrational energy      34861.7 (Joules/Mol)
                                    8.33214 (Kcal/Mol)
 Warning -- explicit consideration of   1 degrees of freedom as
           vibrations may cause significant error
 Vibrational temperatures:     52.32  1909.98  1911.33  4512.17
          (Kelvin)

 Zero-point correction=                           0.013278 (Hartree/Particle)
 Thermal correction to Energy=                    0.016522
 Thermal correction to Enthalpy=                  0.017467
 Thermal correction to Gibbs Free Energy=        -0.008813
 Sum of electronic and zero-point Energies=           -100.914891
 Sum of electronic and thermal Energies=              -100.911647
 Sum of electronic and thermal Enthalpies=            -100.910703
 Sum of electronic and thermal Free Energies=         -100.936982

                     E (Thermal)             CV                S
                      KCal/Mol        Cal/Mol-Kelvin    Cal/Mol-Kelvin
 Total                   10.368              7.220             55.310
 Electronic               0.000              0.000              1.377
 Translational            0.889              2.981             35.068
 Rotational               0.592              1.987             13.368
 Vibrational              8.887              2.252              5.497
 Vibration     1          0.594              1.982              5.448

 Normal termination of Gaussian 16 at Fri Aug 22 20:27:47 2025.
