 Gaussian 16, Revision C.01,
 Gaussian 16:  ES64L-G16RevC.01  3-Jul-2019

 -----------------------------------------
 # sp b3lyp/6-311g** Force nosymm scf=(qc)
 -----------------------------------------

 -------------------
 Title Card Required
 -------------------
 Symbolic Z-matrix:
 Charge =  0 Multiplicity = 2

                          Input orientation:
 ---------------------------------------------------------------------
 Center     Atomic      Atomic             Coordinates (Angstroms)
 Number     Number       Type             X           Y           Z
 ---------------------------------------------------------------------
      1          1           0        0.000000    0.000000    0.000000
      2          1           0       -3.000000    0.000000    0.000000
      3          9           0        2.250000    0.000000    0.000000
 ---------------------------------------------------------------------

 SCF Done:  E(UB3LYP) =  -100.773779045     a.u. after   23 cycles

 Alpha  occ. eigenvalues --  -24.67186  -1.08660  -0.38486  -0.38486  -0.36736
 Alpha  occ. eigenvalues --   -0.33166
 Alpha virt. eigenvalues --   -0.22064   0.21587   0.27737   0.92662   0.95696
 Alpha virt. eigenvalues --    0.95696   1.08575   1.21540   1.21540   1.24032
 Alpha virt. eigenvalues --    1.24032   1.24607   1.39735   2.12743   2.14761

  Beta  occ. eigenvalues --  -24.69838  -1.16153  -0.48903  -0.41118  -0.41118
  Beta virt. eigenvalues --   -0.12598  -0.04615   0.32546   0.39597   0.89118
  Beta virt. eigenvalues --    0.94549   0.94549   1.06677   1.38063   1.38063
  Beta virt. eigenvalues --    1.47597   1.47597   1.47758   1.50774   2.34009

 Mulliken charges and spin densities:
               1          2
     1  H    0.134508   0.839814
     2  H    0.004165   0.995919
     3  F   -0.138672  -0.835733
 Sum of Mulliken charges =   0.00000   1.00000

 Dipole moment (field-independent basis, Debye):
    X=             -1.6278    Y=             -0.0000    Z=             -0.0000  Tot=              1.6278
 Quadrupole moment (field-independent basis, Debye-Ang):
   XX=             -9.7913   YY=             -7.5203   ZZ=             -7.5203
   XY=             -0.0000   XZ=             -0.0000   YZ=             -0.0000

  Exact polarizability:      34.197      -0.000       2.036       0.000      -0.000       2.036
 Approx polarizability:      45.921      -0.000       1.928      -0.000       0.000       1.928

 ******    1 imaginary frequencies (negative Signs) ******

                      1                      2                      3
                      A                      A                      A
 Frequencies --   -786.3936               146.0513               324.6570
 Red. masses --      1.0629                 1.0487                 1.0218
 Frc consts  --      0.3873                 0.0132                 0.0635
 IR Inten    --     75.2715                 1.9566                16.4266

                      4
                      A
 Frequencies --    324.6570
 Red. masses --      1.0218
 Frc consts  --      0.0635
 IR Inten    --     16.4266

 - Thermochemistry -
 -------------------
 Temperature   298.150 Kelvin.  Pressure   1.00000 Atm.
 Atom     1 has atomic number  1 and mass   1.00783

 Molecular mass:    21.01405 amu.
 Principal axes and moments of inertia in atomic units:
                           1         2         3
     Eigenvalues --     0.00000 107.70851 107.70851
           X            1.00000  -0.00000   0.00000
           Y            0.00000   1.00000   0.00000
           Z            0.00000   0.00000   1.00000
 This molecule is a prolate symmetric top.
 Rotational symmetry number  1.
 Rotational temperature (Kelvin)      0.80415
 Rotational constant (GHZ):          16.755790
    1 imaginary frequencies ignored.
 Zero-point vibrational energy       4757.3 (Joules/Mol)
                                    1.13703 (Kcal/Mol)
 Warning -- explicit consideration of   3 degrees of freedom as
           vibrations may cause significant error
 Vibrational temperatures:    210.14   467.11   467.11
          (Kelvin)

 Zero-point correction=                           0.001812 (Hartree/Particle)
 Thermal correction to Energy=                    0.005603
 Thermal correction to Enthalpy=                  0.006547
 Thermal correction to Gibbs Free Energy=        -0.019815
 Sum of electronic and zero-point Energies=           -100.771967
 Sum of electronic and thermal Energies=              -100.768176
 Sum of electronic and thermal Enthalpies=            -100.767232
 Sum of electronic and thermal Free Energies=         -100.793594

                     E (Thermal)             CV                S
                      KCal/Mol        Cal/Mol-Kelvin    Cal/Mol-Kelvin
 Total                    3.516             10.127             55.484
 Electronic               0.000              0.000              1.377
 Translational            0.889              2.981             35.068
 Rotational               0.592              1.987             13.743
 Vibrational              2.035              5.159              5.296
 Vibration     1          0.617              1.907              2.723
 Vibration     2          0.709              1.626              1.287
 Vibration     3          0.709              1.626              1.287

 Normal termination of Gaussian 16 at Fri Aug 22 17:17:20 2025.
