 Gaussian 16, Revision C.01,
 Gaussian 16:  ES64L-G16RevC.01  3-Jul-2019

 -----------------------------------------
 # sp b3lyp/6-311g** Force nosymm scf=(qc)
 -----------------------------------------

 -------------------
 Title Card Required
 -------------------
 Symbolic Z-matrix:
 Charge =  0 Multiplicity = 2

                          Input orientation:
 ---------------------------------------------------------------------
 Center     Atomic      Atomic             Coordinates (Angstroms)
 Number     Number       Type             X           Y           Z
 ---------------------------------------------------------------------
      1          1           0        0.000000    0.000000    0.000000
      2          1           0       -0.550000    0.000000    0.000000
      3          9           0        3.900000    0.000000    0.000000
 ---------------------------------------------------------------------

 SCF Done:  E(UB3LYP) =  -100.893943123     a.u. after   64 cycles

 Alpha  occ. eigenvalues --  -24.76183  -1.22069  -0.55274  -0.47920  -0.46443
 Alpha  occ. eigenvalues --   -0.46429
 Alpha virt. eigenvalues --    0.09194   0.18586   0.53788   0.86104   0.90981
 Alpha virt. eigenvalues --    0.92094   1.01294   1.11042   1.11045   1.61020
 Alpha virt. eigenvalues --    1.81556   1.96165   1.96168   2.36430   3.64949

  Beta  occ. eigenvalues --  -24.73027  -1.12994  -0.47918  -0.43280  -0.43265
  Beta virt. eigenvalues --   -0.25921   0.09203   0.18590   0.53828   0.92482
  Beta virt. eigenvalues --    0.93582   0.95570   1.05407   1.11042   1.11044
  Beta virt. eigenvalues --    1.61024   1.81568   1.96165   1.96168   2.36430

 Mulliken charges and spin densities:
               1          2
     1  H   -0.000600  -0.000266
     2  H   -0.001291   0.000063
     3  F    0.001891   1.000203
 Sum of Mulliken charges =   0.00000   1.00000

 Dipole moment (field-independent basis, Debye):
    X=              0.0249    Y=             -0.0000    Z=             -0.0000  Tot=              0.0249
 Quadrupole moment (field-independent basis, Debye-Ang):
   XX=             -6.2120   YY=             -6.6472   ZZ=             -5.8122
   XY=             -0.0000   XZ=             -0.0000   YZ=             -0.1119

  Exact polarizability:       5.754       0.000       1.842       0.000      -0.060       2.292
 Approx polarizability:       6.196       0.000       1.925       0.000      -0.075       2.488

 ******    3 imaginary frequencies (negative Signs) ******

                      1                      2                      3
                      A                      A                      A
 Frequencies --  -3700.9626             -3700.4534               -50.0677
 Red. masses --      1.0083                 1.0083                 1.1085
 Frc consts  --      8.1368                 8.1346                 0.0016
 IR Inten    --      0.0004                 0.0004                 0.0591

                      4
                      A
 Frequencies --   8343.2013
 Red. masses --      1.0078
 Frc consts  --     41.3334
 IR Inten    --      0.0233

 - Thermochemistry -
 -------------------
 Temperature   298.150 Kelvin.  Pressure   1.00000 Atm.
 Atom     1 has atomic number  1 and mass   1.00783

 Molecular mass:    21.01405 amu.
 Principal axes and moments of inertia in atomic units:
                           1         2         3
     Eigenvalues --     0.00000 113.97570 113.97570
           X            1.00000  -0.00000   0.00000
           Y            0.00000   1.00000   0.00000
           Z            0.00000   0.00000   1.00000
 This molecule is a prolate symmetric top.
 Rotational symmetry number  1.
 Rotational temperature (Kelvin)      0.75993
 Rotational constant (GHZ):          15.834438
    3 imaginary frequencies ignored.
 Zero-point vibrational energy      49903.4 (Joules/Mol)
                                   11.92721 (Kcal/Mol)
 Vibrational temperatures:  12004.01
          (Kelvin)

 Zero-point correction=                           0.019007 (Hartree/Particle)
 Thermal correction to Energy=                    0.021368
 Thermal correction to Enthalpy=                  0.022312
 Thermal correction to Gibbs Free Energy=        -0.001588
 Sum of electronic and zero-point Energies=           -100.874936
 Sum of electronic and thermal Energies=              -100.872575
 Sum of electronic and thermal Enthalpies=            -100.871631
 Sum of electronic and thermal Free Energies=         -100.895531

                     E (Thermal)             CV                S
                      KCal/Mol        Cal/Mol-Kelvin    Cal/Mol-Kelvin
 Total                   13.408              4.968             50.300
 Electronic               0.000              0.000              1.377
 Translational            0.889              2.981             35.068
 Rotational               0.592              1.987             13.855
 Vibrational             11.927              0.000              0.000

 Normal termination of Gaussian 16 at Sat Aug 23 01:12:26 2025.
