 Gaussian 16, Revision C.01,
 Gaussian 16:  ES64L-G16RevC.01  3-Jul-2019

 -----------------------------------------
 # sp b3lyp/6-311g** Force nosymm scf=(qc)
 -----------------------------------------

 -------------------
 Title Card Required
 -------------------
 Symbolic Z-matrix:
 Charge =  0 Multiplicity = 2

                          Input orientation:
 ---------------------------------------------------------------------
 Center     Atomic      Atomic             Coordinates (Angstroms)
 Number     Number       Type             X           Y           Z
 ---------------------------------------------------------------------
      1          1           0        0.000000    0.000000    0.000000
      2          1           0       -1.600000    0.000000    0.000000
      3          9           0        3.950000    0.000000    0.000000
 ---------------------------------------------------------------------

 SCF Done:  E(UB3LYP) =  -100.805928364     a.u. after   26 cycles

 Alpha  occ. eigenvalues --  -24.76203  -1.22108  -0.55311  -0.46484  -0.46468
 Alpha  occ. eigenvalues --   -0.33292
 Alpha virt. eigenvalues --   -0.10278   0.25401   0.30613   0.86052   0.90929
 Alpha virt. eigenvalues --    0.91271   1.00867   1.06677   1.22382   1.22383
 Alpha virt. eigenvalues --    1.39484   1.39486   1.74440   2.19338   2.43664

  Beta  occ. eigenvalues --  -24.73048  -1.13035  -0.43323  -0.43305  -0.33288
  Beta virt. eigenvalues --   -0.25963  -0.10297   0.25396   0.30626   0.92430
  Beta virt. eigenvalues --    0.92750   0.95519   1.05008   1.06677   1.22378
  Beta virt. eigenvalues --    1.22380   1.39479   1.39480   1.74451   2.19398

 Mulliken charges and spin densities:
               1          2
     1  H    0.000987  -0.452745
     2  H   -0.001723   0.452714
     3  F    0.000736   1.000031
 Sum of Mulliken charges =   0.00000   1.00000

 Dipole moment (field-independent basis, Debye):
    X=              0.0216    Y=              0.0000    Z=             -0.0000  Tot=              0.0216
 Quadrupole moment (field-independent basis, Debye-Ang):
   XX=             -6.4691   YY=             -7.7688   ZZ=             -6.9042
   XY=             -0.0000   XZ=              0.0000   YZ=             -0.0062

  Exact polarizability:      23.407       0.000       2.028       0.000      -0.003       2.492
 Approx polarizability:      41.037      -0.000       2.004       0.000      -0.004       2.587

 ******    2 imaginary frequencies (negative Signs) ******

                      1                      2                      3
                      A                      A                      A
 Frequencies --  -2062.4288               -56.9031              1058.4746
 Red. masses --      1.0078                 1.1085                 1.0106
 Frc consts  --      2.5258                 0.0021                 0.6671
 IR Inten    --      0.0129                 0.0347                 0.0016

                      4
                      A
 Frequencies --   1059.3172
 Red. masses --      1.0106
 Frc consts  --      0.6682
 IR Inten    --      0.0007

 - Thermochemistry -
 -------------------
 Temperature   298.150 Kelvin.  Pressure   1.00000 Atm.
 Atom     1 has atomic number  1 and mass   1.00783

 Molecular mass:    21.01405 amu.
 Principal axes and moments of inertia in atomic units:
                           1         2         3
     Eigenvalues --     0.00000 151.43422 151.43422
           X            1.00000  -0.00000   0.00000
           Y            0.00000   1.00000   0.00000
           Z            0.00000   0.00000   1.00000
 This molecule is a prolate symmetric top.
 Rotational symmetry number  1.
 Rotational temperature (Kelvin)      0.57196
 Rotational constant (GHZ):          11.917658
    2 imaginary frequencies ignored.
 Zero-point vibrational energy      12667.2 (Joules/Mol)
                                    3.02754 (Kcal/Mol)
 Vibrational temperatures:   1522.91  1524.12
          (Kelvin)

 Zero-point correction=                           0.004825 (Hartree/Particle)
 Thermal correction to Energy=                    0.007244
 Thermal correction to Enthalpy=                  0.008188
 Thermal correction to Gibbs Free Energy=        -0.016050
 Sum of electronic and zero-point Energies=           -100.801104
 Sum of electronic and thermal Energies=              -100.798685
 Sum of electronic and thermal Enthalpies=            -100.797740
 Sum of electronic and thermal Free Energies=         -100.821978

                     E (Thermal)             CV                S
                      KCal/Mol        Cal/Mol-Kelvin    Cal/Mol-Kelvin
 Total                    4.546              5.602             51.013
 Electronic               0.000              0.000              1.377
 Translational            0.889              2.981             35.068
 Rotational               0.592              1.987             14.420
 Vibrational              3.064              0.634              0.147

 Normal termination of Gaussian 16 at Sat Aug 23 01:35:01 2025.
