 Gaussian 16, Revision C.01,
 Gaussian 16:  ES64L-G16RevC.01  3-Jul-2019

 -----------------------------------------
 # sp b3lyp/6-311g** Force nosymm scf=(qc)
 -----------------------------------------

 -------------------
 Title Card Required
 -------------------
 Symbolic Z-matrix:
 Charge =  0 Multiplicity = 2

                          Input orientation:
 ---------------------------------------------------------------------
 Center     Atomic      Atomic             Coordinates (Angstroms)
 Number     Number       Type             X           Y           Z
 ---------------------------------------------------------------------
      1          1           0        0.000000    0.000000    0.000000
      2          1           0       -1.600000    0.000000    0.000000
      3          9           0        1.650000    0.000000    0.000000
 ---------------------------------------------------------------------

 SCF Done:  E(UB3LYP) =  -100.851405261     a.u. after   15 cycles

 Alpha  occ. eigenvalues --  -24.65875  -1.12333  -0.46383  -0.38572  -0.37859
 Alpha  occ. eigenvalues --   -0.37859
 Alpha virt. eigenvalues --   -0.09844   0.21684   0.29290   0.90728   0.94115
 Alpha virt. eigenvalues --    0.94115   1.03513   1.17035   1.17035   1.37433
 Alpha virt. eigenvalues --    1.37433   1.39560   1.81806   2.16783   2.39034

  Beta  occ. eigenvalues --  -24.64081  -1.07437  -0.39878  -0.36119  -0.36119
  Beta virt. eigenvalues --   -0.21869  -0.07075   0.24691   0.29890   0.94242
  Beta virt. eigenvalues --    0.94242   0.94528   1.07128   1.22713   1.22713
  Beta virt. eigenvalues --    1.38275   1.38275   1.45471   1.84432   2.18561

 Mulliken charges and spin densities:
               1          2
     1  H    0.203909  -0.322251
     2  H    0.070650   0.761946
     3  F   -0.274559   0.560304
 Sum of Mulliken charges =   0.00000   1.00000

 Dipole moment (field-independent basis, Debye):
    X=             -2.7592    Y=              0.0000    Z=              0.0000  Tot=              2.7592
 Quadrupole moment (field-independent basis, Debye-Ang):
   XX=             -8.2802   YY=             -7.3589   ZZ=             -7.3589
   XY=             -0.0000   XZ=             -0.0000   YZ=              0.0000

  Exact polarizability:      41.972      -0.000       2.212      -0.000       0.000       2.212
 Approx polarizability:      60.662       0.000       2.142       0.000      -0.000       2.142

 ******    2 imaginary frequencies (negative Signs) ******

                      1                      2                      3
                      A                      A                      A
 Frequencies --  -2418.7825              -563.7872               987.9131
 Red. masses --      1.0218                 1.0920                 1.0176
 Frc consts  --      3.5223                 0.2045                 0.5851
 IR Inten    --    403.6196                 0.1141                19.6757

                      4
                      A
 Frequencies --    987.9131
 Red. masses --      1.0176
 Frc consts  --      0.5851
 IR Inten    --     19.6757

 - Thermochemistry -
 -------------------
 Temperature   298.150 Kelvin.  Pressure   1.00000 Atm.
 Atom     1 has atomic number  1 and mass   1.00783

 Molecular mass:    21.01405 amu.
 Principal axes and moments of inertia in atomic units:
                           1         2         3
     Eigenvalues --     0.00000  43.66854  43.66854
           X            1.00000  -0.00000   0.00000
           Y            0.00000   1.00000   0.00000
           Z            0.00000   0.00000   1.00000
 This molecule is a prolate symmetric top.
 Rotational symmetry number  1.
 Rotational temperature (Kelvin)      1.98344
 Rotational constant (GHZ):          41.328182
    2 imaginary frequencies ignored.
 Zero-point vibrational energy      11818.1 (Joules/Mol)
                                    2.82459 (Kcal/Mol)
 Vibrational temperatures:   1421.39  1421.39
          (Kelvin)

 Zero-point correction=                           0.004501 (Hartree/Particle)
 Thermal correction to Energy=                    0.006939
 Thermal correction to Enthalpy=                  0.007883
 Thermal correction to Gibbs Free Energy=        -0.015204
 Sum of electronic and zero-point Energies=           -100.846904
 Sum of electronic and thermal Energies=              -100.844466
 Sum of electronic and thermal Enthalpies=            -100.843522
 Sum of electronic and thermal Free Energies=         -100.866609

                     E (Thermal)             CV                S
                      KCal/Mol        Cal/Mol-Kelvin    Cal/Mol-Kelvin
 Total                    4.354              5.749             48.590
 Electronic               0.000              0.000              1.377
 Translational            0.889              2.981             35.068
 Rotational               0.592              1.987             11.949
 Vibrational              2.873              0.781              0.196

 Normal termination of Gaussian 16 at Fri Aug 22 16:33:55 2025.
