 Gaussian 16, Revision C.01,
 Gaussian 16:  ES64L-G16RevC.01  3-Jul-2019

 -----------------------------------------
 # sp b3lyp/6-311g** Force nosymm scf=(qc)
 -----------------------------------------

 -------------------
 Title Card Required
 -------------------
 Symbolic Z-matrix:
 Charge =  0 Multiplicity = 2

                          Input orientation:
 ---------------------------------------------------------------------
 Center     Atomic      Atomic             Coordinates (Angstroms)
 Number     Number       Type             X           Y           Z
 ---------------------------------------------------------------------
      1          1           0        0.000000    0.000000    0.000000
      2          1           0       -1.450000    0.000000    0.000000
      3          9           0        1.800000    0.000000    0.000000
 ---------------------------------------------------------------------

 SCF Done:  E(UB3LYP) =  -100.851449228     a.u. after   12 cycles

 Alpha  occ. eigenvalues --  -24.68261  -1.14730  -0.48334  -0.39883  -0.39883
 Alpha  occ. eigenvalues --   -0.38808
 Alpha virt. eigenvalues --   -0.08978   0.21649   0.30563   0.88191   0.93605
 Alpha virt. eigenvalues --    0.93605   1.03293   1.14934   1.14934   1.37588
 Alpha virt. eigenvalues --    1.40724   1.40724   1.89538   2.21012   2.45320

  Beta  occ. eigenvalues --  -24.65946  -1.08295  -0.38904  -0.37610  -0.37610
  Beta virt. eigenvalues --   -0.23146  -0.06676   0.23954   0.30744   0.92251
  Beta virt. eigenvalues --    0.94263   0.94263   1.07280   1.18100   1.18100
  Beta virt. eigenvalues --    1.41728   1.41728   1.42295   1.92132   2.22080

 Mulliken charges and spin densities:
               1          2
     1  H    0.129588  -0.306417
     2  H    0.069556   0.582830
     3  F   -0.199145   0.723587
 Sum of Mulliken charges =   0.00000   1.00000

 Dipole moment (field-independent basis, Debye):
    X=             -2.2381    Y=              0.0000    Z=              0.0000  Tot=              2.2381
 Quadrupole moment (field-independent basis, Debye-Ang):
   XX=             -7.8384   YY=             -7.4179   ZZ=             -7.4179
   XY=              0.0000   XZ=              0.0000   YZ=             -0.0000

  Exact polarizability:      46.157       0.000       2.186       0.000       0.000       2.186
 Approx polarizability:      71.372      -0.000       2.132      -0.000       0.000       2.132

 ******    2 imaginary frequencies (negative Signs) ******

                      1                      2                      3
                      A                      A                      A
 Frequencies --  -2321.9677              -493.3519              1105.7727
 Red. masses --      1.0159                 1.0989                 1.0155
 Frc consts  --      3.2270                 0.1576                 0.7316
 IR Inten    --    848.8297                 1.9698                 5.2531

                      4
                      A
 Frequencies --   1105.7727
 Red. masses --      1.0155
 Frc consts  --      0.7316
 IR Inten    --      5.2531

 - Thermochemistry -
 -------------------
 Temperature   298.150 Kelvin.  Pressure   1.00000 Atm.
 Atom     1 has atomic number  1 and mass   1.00783

 Molecular mass:    21.01405 amu.
 Principal axes and moments of inertia in atomic units:
                           1         2         3
     Eigenvalues --     0.00000  45.27341  45.27341
           X            1.00000  -0.00000   0.00000
           Y            0.00000   1.00000   0.00000
           Z            0.00000   0.00000   1.00000
 This molecule is a prolate symmetric top.
 Rotational symmetry number  1.
 Rotational temperature (Kelvin)      1.91313
 Rotational constant (GHZ):          39.863163
    2 imaginary frequencies ignored.
 Zero-point vibrational energy      13228.0 (Joules/Mol)
                                    3.16156 (Kcal/Mol)
 Vibrational temperatures:   1590.96  1590.96
          (Kelvin)

 Zero-point correction=                           0.005038 (Hartree/Particle)
 Thermal correction to Energy=                    0.007447
 Thermal correction to Enthalpy=                  0.008392
 Thermal correction to Gibbs Free Energy=        -0.014694
 Sum of electronic and zero-point Energies=           -100.846411
 Sum of electronic and thermal Energies=              -100.844002
 Sum of electronic and thermal Enthalpies=            -100.843058
 Sum of electronic and thermal Free Energies=         -100.866143

                     E (Thermal)             CV                S
                      KCal/Mol        Cal/Mol-Kelvin    Cal/Mol-Kelvin
 Total                    4.673              5.518             48.588
 Electronic               0.000              0.000              1.377
 Translational            0.889              2.981             35.068
 Rotational               0.592              1.987             12.020
 Vibrational              3.192              0.550              0.122

 Normal termination of Gaussian 16 at Fri Aug 22 16:43:01 2025.
