 Gaussian 16, Revision C.01,
 Gaussian 16:  ES64L-G16RevC.01  3-Jul-2019

 -----------------------------------------
 # sp b3lyp/6-311g** Force nosymm scf=(qc)
 -----------------------------------------

 -------------------
 Title Card Required
 -------------------
 Symbolic Z-matrix:
 Charge =  0 Multiplicity = 2

                          Input orientation:
 ---------------------------------------------------------------------
 Center     Atomic      Atomic             Coordinates (Angstroms)
 Number     Number       Type             X           Y           Z
 ---------------------------------------------------------------------
      1          1           0        0.000000    0.000000    0.000000
      2          1           0       -1.000000    0.000000    0.000000
      3          9           0        1.350000    0.000000    0.000000
 ---------------------------------------------------------------------

 SCF Done:  E(UB3LYP) =  -100.933509346     a.u. after    8 cycles

 Alpha  occ. eigenvalues --  -24.67344  -1.15149  -0.53926  -0.39828  -0.39828
 Alpha  occ. eigenvalues --   -0.39458
 Alpha virt. eigenvalues --    0.05389   0.19548   0.35323   0.89675   0.89675
 Alpha virt. eigenvalues --    0.98883   1.07803   1.07803   1.26079   1.63217
 Alpha virt. eigenvalues --    1.63319   1.63319   2.23053   2.31920   2.47602

  Beta  occ. eigenvalues --  -24.65410  -1.09998  -0.45985  -0.37987  -0.37987
  Beta virt. eigenvalues --   -0.22421   0.07933   0.21355   0.38297   0.90701
  Beta virt. eigenvalues --    0.90701   1.03357   1.11815   1.11815   1.30317
  Beta virt. eigenvalues --    1.65811   1.65811   1.66984   2.26559   2.36284

 Mulliken charges and spin densities:
               1          2
     1  H    0.213433  -0.088450
     2  H    0.044976   0.512773
     3  F   -0.258408   0.575677
 Sum of Mulliken charges =   0.00000   1.00000

 Dipole moment (field-independent basis, Debye):
    X=             -1.9881    Y=             -0.0000    Z=             -0.0000  Tot=              1.9881
 Quadrupole moment (field-independent basis, Debye-Ang):
   XX=             -7.5273   YY=             -6.9226   ZZ=             -6.9226
   XY=             -0.0000   XZ=             -0.0000   YZ=              0.0000

  Exact polarizability:      24.934       0.000       2.445       0.000      -0.000       2.445
 Approx polarizability:      35.522       0.000       2.440       0.000      -0.000       2.440

 ******    1 imaginary frequencies (negative Signs) ******

                      1                      2                      3
                      A                      A                      A
 Frequencies --  -2112.8130              1110.3570              1126.4383
 Red. masses --      1.0390                 1.0731                 1.0147
 Frc consts  --      2.7327                 0.7795                 0.7586
 IR Inten    --    682.5369               121.9999                11.8297

                      4
                      A
 Frequencies --   1126.4383
 Red. masses --      1.0147
 Frc consts  --      0.7586
 IR Inten    --     11.8297

 - Thermochemistry -
 -------------------
 Temperature   298.150 Kelvin.  Pressure   1.00000 Atm.
 Atom     1 has atomic number  1 and mass   1.00783

 Molecular mass:    21.01405 amu.
 Principal axes and moments of inertia in atomic units:
                           1         2         3
     Eigenvalues --     0.00000  24.07173  24.07173
           X            1.00000  -0.00000   0.00000
           Y            0.00000   1.00000   0.00000
           Z            0.00000   0.00000   1.00000
 This molecule is a prolate symmetric top.
 Rotational symmetry number  1.
 Rotational temperature (Kelvin)      3.59816
 Rotational constant (GHZ):          74.973476
    1 imaginary frequencies ignored.
 Zero-point vibrational energy      20116.6 (Joules/Mol)
                                    4.80798 (Kcal/Mol)
 Vibrational temperatures:   1597.56  1620.69  1620.69
          (Kelvin)

 Zero-point correction=                           0.007662 (Hartree/Particle)
 Thermal correction to Energy=                    0.010091
 Thermal correction to Enthalpy=                  0.011036
 Thermal correction to Gibbs Free Energy=        -0.011477
 Sum of electronic and zero-point Energies=           -100.925847
 Sum of electronic and thermal Energies=              -100.923418
 Sum of electronic and thermal Enthalpies=            -100.922474
 Sum of electronic and thermal Free Energies=         -100.944987

                     E (Thermal)             CV                S
                      KCal/Mol        Cal/Mol-Kelvin    Cal/Mol-Kelvin
 Total                    6.332              5.755             47.382
 Electronic               0.000              0.000              1.377
 Translational            0.889              2.981             35.068
 Rotational               0.592              1.987             10.765
 Vibrational              4.851              0.787              0.172

 Normal termination of Gaussian 16 at Fri Aug 22 16:16:48 2025.
