 Gaussian 16, Revision C.01,
 Gaussian 16:  ES64L-G16RevC.01  3-Jul-2019

 -----------------------------------------
 # sp b3lyp/6-311g** Force nosymm scf=(qc)
 -----------------------------------------

 -------------------
 Title Card Required
 -------------------
 Symbolic Z-matrix:
 Charge =  0 Multiplicity = 2

                          Input orientation:
 ---------------------------------------------------------------------
 Center     Atomic      Atomic             Coordinates (Angstroms)
 Number     Number       Type             X           Y           Z
 ---------------------------------------------------------------------
      1          1           0        0.000000    0.000000    0.000000
      2          1           0       -2.100000    0.000000    0.000000
      3          9           0        3.900000    0.000000    0.000000
 ---------------------------------------------------------------------

 SCF Done:  E(UB3LYP) =  -100.770435934     a.u. after  191 cycles

 Alpha  occ. eigenvalues --  -24.76015  -1.21931  -0.55133  -0.46306  -0.46301
 Alpha  occ. eigenvalues --   -0.32726
 Alpha virt. eigenvalues --   -0.10349   0.26088   0.33307   0.86375   0.91072
 Alpha virt. eigenvalues --    0.91264   1.01023   1.20971   1.25204   1.25204
 Alpha virt. eigenvalues --    1.39038   1.39039   1.48152   2.13691   2.35805

  Beta  occ. eigenvalues --  -24.72866  -1.12875  -0.43151  -0.43143  -0.32742
  Beta virt. eigenvalues --   -0.25830  -0.10317   0.26021   0.33419   0.92572
  Beta virt. eigenvalues --    0.92729   0.95808   1.05155   1.20946   1.25179
  Beta virt. eigenvalues --    1.25180   1.39103   1.39103   1.48208   2.13906

 Mulliken charges and spin densities:
               1          2
     1  H    0.000292  -0.893877
     2  H    0.000674   0.895445
     3  F   -0.000965   0.998432
 Sum of Mulliken charges =   0.00000   1.00000

 Dipole moment (field-independent basis, Debye):
    X=             -0.0285    Y=              0.0007    Z=              0.0000  Tot=              0.0285
 Quadrupole moment (field-independent basis, Debye-Ang):
   XX=             -6.7858   YY=             -7.2631   ZZ=             -7.7150
   XY=              0.4315   XZ=              0.0000   YZ=              0.0000

  Exact polarizability:      21.415       0.224       2.256       0.000       0.000       2.013
 Approx polarizability:      23.305       0.277       2.240       0.000       0.000       1.935

 ******    2 imaginary frequencies (negative Signs) ******

                      1                      2                      3
                      A                      A                      A
 Frequencies --  -1174.6254               -59.1481               469.3719
 Red. masses --      1.0078                 1.1085                 1.0122
 Frc consts  --      0.8193                 0.0023                 0.1314
 IR Inten    --      0.0001                 0.0668                 0.0000

                      4
                      A
 Frequencies --    469.5126
 Red. masses --      1.0122
 Frc consts  --      0.1315
 IR Inten    --      0.0227

 - Thermochemistry -
 -------------------
 Temperature   298.150 Kelvin.  Pressure   1.00000 Atm.
 Atom     1 has atomic number  1 and mass   1.00783

 Molecular mass:    21.01405 amu.
 Principal axes and moments of inertia in atomic units:
                           1         2         3
     Eigenvalues --     0.00000 167.38802 167.38802
           X            1.00000  -0.00000   0.00000
           Y            0.00000   1.00000   0.00000
           Z            0.00000   0.00000   1.00000
 This molecule is a prolate symmetric top.
 Rotational symmetry number  1.
 Rotational temperature (Kelvin)      0.51744
 Rotational constant (GHZ):          10.781782
    2 imaginary frequencies ignored.
 Zero-point vibrational energy       5615.8 (Joules/Mol)
                                    1.34220 (Kcal/Mol)
 Warning -- explicit consideration of   2 degrees of freedom as
           vibrations may cause significant error
 Vibrational temperatures:    675.32   675.52
          (Kelvin)

 Zero-point correction=                           0.002139 (Hartree/Particle)
 Thermal correction to Energy=                    0.004995
 Thermal correction to Enthalpy=                  0.005939
 Thermal correction to Gibbs Free Energy=        -0.019026
 Sum of electronic and zero-point Energies=           -100.768297
 Sum of electronic and thermal Energies=              -100.765441
 Sum of electronic and thermal Enthalpies=            -100.764497
 Sum of electronic and thermal Free Energies=         -100.789462

                     E (Thermal)             CV                S
                      KCal/Mol        Cal/Mol-Kelvin    Cal/Mol-Kelvin
 Total                    3.134              7.604             52.542
 Electronic               0.000              0.000              1.377
 Translational            0.889              2.981             35.068
 Rotational               0.592              1.987             14.619
 Vibrational              1.653              2.636              1.478
 Vibration     1          0.826              1.318              0.739
 Vibration     2          0.827              1.318              0.739

 Normal termination of Gaussian 16 at Sat Aug 23 01:23:28 2025.
