 Gaussian 16, Revision C.01,
 Gaussian 16:  ES64L-G16RevC.01  3-Jul-2019

 -----------------------------------------
 # sp b3lyp/6-311g** Force nosymm scf=(qc)
 -----------------------------------------

 -------------------
 Title Card Required
 -------------------
 Symbolic Z-matrix:
 Charge =  0 Multiplicity = 2

                          Input orientation:
 ---------------------------------------------------------------------
 Center     Atomic      Atomic             Coordinates (Angstroms)
 Number     Number       Type             X           Y           Z
 ---------------------------------------------------------------------
      1          1           0        0.000000    0.000000    0.000000
      2          1           0       -1.000000    0.000000    0.000000
      3          9           0        0.500000    0.000000    0.000000
 ---------------------------------------------------------------------

 SCF Done:  E(UB3LYP) =  -100.212399282     a.u. after    7 cycles

 Alpha  occ. eigenvalues --  -24.65672  -1.46898  -0.67874  -0.46966  -0.46966
 Alpha  occ. eigenvalues --   -0.32951
 Alpha virt. eigenvalues --    0.16488   0.20809   0.84331   0.85910   0.85910
 Alpha virt. eigenvalues --    0.86967   1.11710   1.11710   1.51419   1.73781
 Alpha virt. eigenvalues --    1.82166   1.82166   2.29308   2.49845   3.74139

  Beta  occ. eigenvalues --  -24.65352  -1.45747  -0.66588  -0.46730  -0.46730
  Beta virt. eigenvalues --   -0.10699   0.17246   0.28534   0.85950   0.86995
  Beta virt. eigenvalues --    0.86995   0.91764   1.20770   1.20770   1.51947
  Beta virt. eigenvalues --    1.80307   1.87607   1.87607   2.43830   2.62278

 Mulliken charges and spin densities:
               1          2
     1  H    0.171945  -0.011491
     2  H   -0.054032   0.996973
     3  F   -0.117913   0.014518
 Sum of Mulliken charges =   0.00000   1.00000

 Dipole moment (field-independent basis, Debye):
    X=             -0.7883    Y=              0.0000    Z=              0.0000  Tot=              0.7883
 Quadrupole moment (field-independent basis, Debye-Ang):
   XX=             -7.1234   YY=             -6.3321   ZZ=             -6.3321
   XY=              0.0000   XZ=              0.0000   YZ=             -0.0000

  Exact polarizability:       5.946       0.000       2.463      -0.000       0.000       2.463
 Approx polarizability:       5.612       0.000       2.529       0.000       0.000       2.529

 ******    2 imaginary frequencies (negative Signs) ******

                      1                      2                      3
                      A                      A                      A
 Frequencies --  -9285.9753             -9285.9753              2355.2232
 Red. masses --      1.0281                 1.0281                 1.0541
 Frc consts  --     52.2301                52.2301                 3.4450
 IR Inten    --    186.5259               186.5259               118.4896

                      4
                      A
 Frequencies --  19189.4903
 Red. masses --      1.0575
 Frc consts  --    229.4251
 IR Inten    --     24.3761

 - Thermochemistry -
 -------------------
 Temperature   298.150 Kelvin.  Pressure   1.00000 Atm.
 Atom     1 has atomic number  1 and mass   1.00783

 Molecular mass:    21.01405 amu.
 Principal axes and moments of inertia in atomic units:
                           1         2         3
     Eigenvalues --     0.00000   8.30709   8.30709
           X            1.00000  -0.00000   0.00000
           Y            0.00000   1.00000   0.00000
           Z            0.00000   0.00000   1.00000
 This molecule is a prolate symmetric top.
 Rotational symmetry number  1.
 Rotational temperature (Kelvin)     10.42650
 Rotational constant (GHZ):         217.253021
    2 imaginary frequencies ignored.
 Zero-point vibrational energy     128866.0 (Joules/Mol)
                                   30.79971 (Kcal/Mol)
 Vibrational temperatures:   3388.64 27609.40
          (Kelvin)

 Zero-point correction=                           0.049082 (Hartree/Particle)
 Thermal correction to Energy=                    0.051443
 Thermal correction to Enthalpy=                  0.052387
 Thermal correction to Gibbs Free Energy=         0.030960
 Sum of electronic and zero-point Energies=           -100.163317
 Sum of electronic and thermal Energies=              -100.160956
 Sum of electronic and thermal Enthalpies=            -100.160012
 Sum of electronic and thermal Free Energies=         -100.181439

                     E (Thermal)             CV                S
                      KCal/Mol        Cal/Mol-Kelvin    Cal/Mol-Kelvin
 Total                   32.281              4.971             45.097
 Electronic               0.000              0.000              1.377
 Translational            0.889              2.981             35.068
 Rotational               0.592              1.987              8.651
 Vibrational             30.800              0.003              0.000

 Normal termination of Gaussian 16 at Fri Aug 22 15:36:12 2025.
