 Gaussian 16, Revision C.01,
 Gaussian 16:  ES64L-G16RevC.01  3-Jul-2019

 -----------------------------------------
 # sp b3lyp/6-311g** Force nosymm scf=(qc)
 -----------------------------------------

 -------------------
 Title Card Required
 -------------------
 Symbolic Z-matrix:
 Charge =  0 Multiplicity = 2

                          Input orientation:
 ---------------------------------------------------------------------
 Center     Atomic      Atomic             Coordinates (Angstroms)
 Number     Number       Type             X           Y           Z
 ---------------------------------------------------------------------
      1          1           0        0.000000    0.000000    0.000000
      2          1           0       -2.650000    0.000000    0.000000
      3          9           0        3.300000    0.000000    0.000000
 ---------------------------------------------------------------------

 SCF Done:  E(UB3LYP) =  -100.762132396     a.u. after   26 cycles

 Alpha  occ. eigenvalues --  -24.75032  -1.21020  -0.54152  -0.45468  -0.45468
 Alpha  occ. eigenvalues --   -0.32698
 Alpha virt. eigenvalues --   -0.09352   0.25403   0.34446   0.88327   0.91699
 Alpha virt. eigenvalues --    0.91699   1.02441   1.24902   1.24902   1.26430
 Alpha virt. eigenvalues --    1.41759   1.41759   1.42603   2.15863   2.37790

  Beta  occ. eigenvalues --  -24.71942  -1.12148  -0.42372  -0.42372  -0.33205
  Beta virt. eigenvalues --   -0.25307  -0.08591   0.25246   0.35503   0.93181
  Beta virt. eigenvalues --    0.93181   0.97358   1.06413   1.24295   1.24295
  Beta virt. eigenvalues --    1.25706   1.42975   1.42975   1.43801   2.16539

 Mulliken charges and spin densities:
               1          2
     1  H    0.016072  -0.960173
     2  H    0.002344   0.980634
     3  F   -0.018417   0.979540
 Sum of Mulliken charges =  -0.00000   1.00000

 Dipole moment (field-independent basis, Debye):
    X=             -0.3417    Y=             -0.0000    Z=             -0.0000  Tot=              0.3417
 Quadrupole moment (field-independent basis, Debye-Ang):
   XX=             -7.4935   YY=             -7.6501   ZZ=             -7.6501
   XY=             -0.0000   XZ=             -0.0000   YZ=              0.0000

  Exact polarizability:      35.754      -0.000       2.022      -0.000      -0.000       2.022
 Approx polarizability:      28.947      -0.000       1.927      -0.000      -0.000       1.927

 ******    2 imaginary frequencies (negative Signs) ******

                      1                      2                      3
                      A                      A                      A
 Frequencies --   -560.2257              -173.0091               203.4237
 Red. masses --      1.0092                 1.1069                 1.0155
 Frc consts  --      0.1866                 0.0195                 0.0248
 IR Inten    --     12.2586                 9.6993                 0.2026

                      4
                      A
 Frequencies --    203.4237
 Red. masses --      1.0155
 Frc consts  --      0.0248
 IR Inten    --      0.2026

 - Thermochemistry -
 -------------------
 Temperature   298.150 Kelvin.  Pressure   1.00000 Atm.
 Atom     1 has atomic number  1 and mass   1.00783

 Molecular mass:    21.01405 amu.
 Principal axes and moments of inertia in atomic units:
                           1         2         3
     Eigenvalues --     0.00000 151.83842 151.83842
           X            1.00000  -0.00000   0.00000
           Y            0.00000   1.00000   0.00000
           Z            0.00000   0.00000   1.00000
 This molecule is a prolate symmetric top.
 Rotational symmetry number  1.
 Rotational temperature (Kelvin)      0.57043
 Rotational constant (GHZ):          11.885932
    2 imaginary frequencies ignored.
 Zero-point vibrational energy       2433.5 (Joules/Mol)
                                    0.58162 (Kcal/Mol)
 Warning -- explicit consideration of   2 degrees of freedom as
           vibrations may cause significant error
 Vibrational temperatures:    292.68   292.68
          (Kelvin)

 Zero-point correction=                           0.000927 (Hartree/Particle)
 Thermal correction to Energy=                    0.004398
 Thermal correction to Enthalpy=                  0.005342
 Thermal correction to Gibbs Free Energy=        -0.020825
 Sum of electronic and zero-point Energies=           -100.761206
 Sum of electronic and thermal Energies=              -100.757734
 Sum of electronic and thermal Enthalpies=            -100.756790
 Sum of electronic and thermal Free Energies=         -100.782958

                     E (Thermal)             CV                S
                      KCal/Mol        Cal/Mol-Kelvin    Cal/Mol-Kelvin
 Total                    2.760              8.638             55.074
 Electronic               0.000              0.000              1.377
 Translational            0.889              2.981             35.068
 Rotational               0.592              1.987             14.425
 Vibrational              1.279              3.670              4.204
 Vibration     1          0.639              1.835              2.102
 Vibration     2          0.639              1.835              2.102

 Normal termination of Gaussian 16 at Fri Aug 22 20:49:01 2025.
