 Gaussian 16, Revision C.01,
 Gaussian 16:  ES64L-G16RevC.01  3-Jul-2019

 -----------------------------------------
 # sp b3lyp/6-311g** Force nosymm scf=(qc)
 -----------------------------------------

 -------------------
 Title Card Required
 -------------------
 Symbolic Z-matrix:
 Charge =  0 Multiplicity = 2

                          Input orientation:
 ---------------------------------------------------------------------
 Center     Atomic      Atomic             Coordinates (Angstroms)
 Number     Number       Type             X           Y           Z
 ---------------------------------------------------------------------
      1          1           0        0.000000    0.000000    0.000000
      2          1           0       -3.350000    0.000000    0.000000
      3          9           0        2.350000    0.000000    0.000000
 ---------------------------------------------------------------------

 SCF Done:  E(UB3LYP) =  -100.771459101     a.u. after   17 cycles

 Alpha  occ. eigenvalues --  -24.70806  -1.17072  -0.49892  -0.41930  -0.41930
 Alpha  occ. eigenvalues --   -0.33129
 Alpha virt. eigenvalues --   -0.11268   0.23342   0.34499   0.89083   0.94076
 Alpha virt. eigenvalues --    0.94076   1.06333   1.24389   1.24389   1.24667
 Alpha virt. eigenvalues --    1.39092   1.39092   1.47248   2.14524   2.34464

  Beta  occ. eigenvalues --  -24.68057  -1.09276  -0.39196  -0.39196  -0.36018
  Beta virt. eigenvalues --   -0.22711  -0.07112   0.23871   0.37663   0.93843
  Beta virt. eigenvalues --    0.95343   0.95343   1.08424   1.21712   1.21712
  Beta virt. eigenvalues --    1.34930   1.45384   1.45595   1.45595   2.12459

 Mulliken charges and spin densities:
               1          2
     1  H    0.113043  -0.864271
     2  H    0.001575   0.996894
     3  F   -0.114618   0.867377
 Sum of Mulliken charges =   0.00000   1.00000

 Dipole moment (field-independent basis, Debye):
    X=             -1.3864    Y=              0.0000    Z=              0.0000  Tot=              1.3864
 Quadrupole moment (field-independent basis, Debye-Ang):
   XX=             -9.5267   YY=             -7.5544   ZZ=             -7.5544
   XY=              0.0000   XZ=              0.0000   YZ=             -0.0000

  Exact polarizability:      30.368       0.000       2.030       0.000       0.000       2.030
 Approx polarizability:      39.546       0.000       1.922       0.000       0.000       1.922

 ******    2 imaginary frequencies (negative Signs) ******

                      1                      2                      3
                      A                      A                      A
 Frequencies --   -732.0916              -144.2087               295.7424
 Red. masses --      1.0541                 1.0575                 1.0228
 Frc consts  --      0.3329                 0.0130                 0.0527
 IR Inten    --     92.4707                 0.5190                12.0473

                      4
                      A
 Frequencies --    295.7424
 Red. masses --      1.0228
 Frc consts  --      0.0527
 IR Inten    --     12.0473

 - Thermochemistry -
 -------------------
 Temperature   298.150 Kelvin.  Pressure   1.00000 Atm.
 Atom     1 has atomic number  1 and mass   1.00783

 Molecular mass:    21.01405 amu.
 Principal axes and moments of inertia in atomic units:
                           1         2         3
     Eigenvalues --     0.00000 125.62195 125.62195
           X            1.00000  -0.00000   0.00000
           Y            0.00000   1.00000   0.00000
           Z            0.00000   0.00000   1.00000
 This molecule is a prolate symmetric top.
 Rotational symmetry number  1.
 Rotational temperature (Kelvin)      0.68948
 Rotational constant (GHZ):          14.366448
    2 imaginary frequencies ignored.
 Zero-point vibrational energy       3537.9 (Joules/Mol)
                                    0.84557 (Kcal/Mol)
 Warning -- explicit consideration of   2 degrees of freedom as
           vibrations may cause significant error
 Vibrational temperatures:    425.51   425.51
          (Kelvin)

 Zero-point correction=                           0.001348 (Hartree/Particle)
 Thermal correction to Energy=                    0.004559
 Thermal correction to Enthalpy=                  0.005503
 Thermal correction to Gibbs Free Energy=        -0.019857
 Sum of electronic and zero-point Energies=           -100.770112
 Sum of electronic and thermal Energies=              -100.766900
 Sum of electronic and thermal Enthalpies=            -100.765956
 Sum of electronic and thermal Free Energies=         -100.791316

                     E (Thermal)             CV                S
                      KCal/Mol        Cal/Mol-Kelvin    Cal/Mol-Kelvin
 Total                    2.861              8.331             53.376
 Electronic               0.000              0.000              1.377
 Translational            0.889              2.981             35.068
 Rotational               0.592              1.987             14.048
 Vibrational              1.380              3.363              2.882
 Vibration     1          0.690              1.682              1.441
 Vibration     2          0.690              1.682              1.441

 Normal termination of Gaussian 16 at Fri Aug 22 17:27:37 2025.
