 Gaussian 16, Revision C.01,
 Gaussian 16:  ES64L-G16RevC.01  3-Jul-2019

 -----------------------------------------
 # sp b3lyp/6-311g** Force nosymm scf=(qc)
 -----------------------------------------

 -------------------
 Title Card Required
 -------------------
 Symbolic Z-matrix:
 Charge =  0 Multiplicity = 2

                          Input orientation:
 ---------------------------------------------------------------------
 Center     Atomic      Atomic             Coordinates (Angstroms)
 Number     Number       Type             X           Y           Z
 ---------------------------------------------------------------------
      1          1           0        0.000000    0.000000    0.000000
      2          1           0       -2.000000    0.000000    0.000000
      3          9           0        1.250000    0.000000    0.000000
 ---------------------------------------------------------------------

 SCF Done:  E(UB3LYP) =  -100.916141878     a.u. after    7 cycles

 Alpha  occ. eigenvalues --  -24.63708  -1.11242  -0.47044  -0.36762  -0.36762
 Alpha  occ. eigenvalues --   -0.36711
 Alpha virt. eigenvalues --   -0.04731   0.23639   0.28168   0.93578   0.93578
 Alpha virt. eigenvalues --    1.01642   1.11289   1.20467   1.20467   1.35173
 Alpha virt. eigenvalues --    1.35173   1.43015   1.70629   2.12378   2.30774

  Beta  occ. eigenvalues --  -24.63515  -1.10752  -0.46072  -0.36585  -0.36585
  Beta virt. eigenvalues --   -0.15113  -0.01283   0.27802   0.33662   0.93566
  Beta virt. eigenvalues --    0.93566   1.02180   1.18821   1.33935   1.33935
  Beta virt. eigenvalues --    1.39983   1.39983   1.53060   1.71416   2.24983

 Mulliken charges and spin densities:
               1          2
     1  H    0.334058  -0.016047
     2  H    0.029699   0.958035
     3  F   -0.363757   0.058012
 Sum of Mulliken charges =  -0.00000   1.00000

 Dipole moment (field-independent basis, Debye):
    X=             -2.6693    Y=             -0.0000    Z=              0.0000  Tot=              2.6693
 Quadrupole moment (field-independent basis, Debye-Ang):
   XX=             -8.3574   YY=             -7.1256   ZZ=             -7.1256
   XY=             -0.0000   XZ=              0.0000   YZ=             -0.0000

  Exact polarizability:      17.241       0.000       2.355      -0.000       0.000       2.355
 Approx polarizability:      21.994       0.000       2.313       0.000       0.000       2.313

 ******    1 imaginary frequencies (negative Signs) ******

                      1                      2                      3
                      A                      A                      A
 Frequencies --   -777.0295               286.3903              1143.0169
 Red. masses --      1.0133                 1.1019                 1.0245
 Frc consts  --      0.3605                 0.0532                 0.7886
 IR Inten    --    191.8178                28.3161               102.2918

                      4
                      A
 Frequencies --   1143.0169
 Red. masses --      1.0245
 Frc consts  --      0.7886
 IR Inten    --    102.2918

 - Thermochemistry -
 -------------------
 Temperature   298.150 Kelvin.  Pressure   1.00000 Atm.
 Atom     1 has atomic number  1 and mass   1.00783

 Molecular mass:    21.01405 amu.
 Principal axes and moments of inertia in atomic units:
                           1         2         3
     Eigenvalues --     0.00000  40.14269  40.14269
           X            1.00000  -0.00000   0.00000
           Y            0.00000   1.00000   0.00000
           Z            0.00000   0.00000   1.00000
 This molecule is a prolate symmetric top.
 Rotational symmetry number  1.
 Rotational temperature (Kelvin)      2.15765
 Rotational constant (GHZ):          44.958155
    1 imaginary frequencies ignored.
 Zero-point vibrational energy      15386.5 (Joules/Mol)
                                    3.67746 (Kcal/Mol)
 Warning -- explicit consideration of   1 degrees of freedom as
           vibrations may cause significant error
 Vibrational temperatures:    412.05  1644.55  1644.55
          (Kelvin)

 Zero-point correction=                           0.005860 (Hartree/Particle)
 Thermal correction to Energy=                    0.008700
 Thermal correction to Enthalpy=                  0.009645
 Thermal correction to Gibbs Free Energy=        -0.014030
 Sum of electronic and zero-point Energies=           -100.910281
 Sum of electronic and thermal Energies=              -100.907441
 Sum of electronic and thermal Enthalpies=            -100.906497
 Sum of electronic and thermal Free Energies=         -100.930171

                     E (Thermal)             CV                S
                      KCal/Mol        Cal/Mol-Kelvin    Cal/Mol-Kelvin
 Total                    5.460              7.157             49.826
 Electronic               0.000              0.000              1.377
 Translational            0.889              2.981             35.068
 Rotational               0.592              1.987             11.781
 Vibrational              3.978              2.189              1.600
 Vibration     1          0.684              1.699              1.495

 Normal termination of Gaussian 16 at Fri Aug 22 16:12:36 2025.
