 Gaussian 16, Revision C.01,
 Gaussian 16:  ES64L-G16RevC.01  3-Jul-2019

 -----------------------------------------
 # sp b3lyp/6-311g** Force nosymm scf=(qc)
 -----------------------------------------

 -------------------
 Title Card Required
 -------------------
 Symbolic Z-matrix:
 Charge =  0 Multiplicity = 2

                          Input orientation:
 ---------------------------------------------------------------------
 Center     Atomic      Atomic             Coordinates (Angstroms)
 Number     Number       Type             X           Y           Z
 ---------------------------------------------------------------------
      1          1           0        0.000000    0.000000    0.000000
      2          1           0       -3.700000    0.000000    0.000000
      3          9           0        0.650000    0.000000    0.000000
 ---------------------------------------------------------------------

 SCF Done:  E(UB3LYP) =  -100.800667165     a.u. after    6 cycles

 Alpha  occ. eigenvalues --  -24.62937  -1.31318  -0.59803  -0.42360  -0.42360
 Alpha  occ. eigenvalues --   -0.33256
 Alpha virt. eigenvalues --    0.06957   0.24705   0.55448   0.92878   0.92878
 Alpha virt. eigenvalues --    0.94691   1.24100   1.24251   1.24251   1.32075
 Alpha virt. eigenvalues --    1.46906   1.46906   1.95941   2.14464   3.09623

  Beta  occ. eigenvalues --  -24.62937  -1.31317  -0.59803  -0.42360  -0.42360
  Beta virt. eigenvalues --   -0.05074   0.07261   0.39272   0.55433   0.92878
  Beta virt. eigenvalues --    0.92878   0.94685   1.31750   1.46907   1.46907
  Beta virt. eigenvalues --    1.50194   1.50489   1.50489   1.95937   2.44999

 Mulliken charges and spin densities:
               1          2
     1  H    0.254923   0.000398
     2  H    0.000508   0.999407
     3  F   -0.255431   0.000195
 Sum of Mulliken charges =   0.00000   1.00000

 Dipole moment (field-independent basis, Debye):
    X=             -1.5108    Y=             -0.0000    Z=              0.0000  Tot=              1.5108
 Quadrupole moment (field-independent basis, Debye-Ang):
   XX=             -7.1458   YY=             -6.6080   ZZ=             -6.6080
   XY=             -0.0000   XZ=              0.0000   YZ=              0.0000

  Exact polarizability:       3.555       0.000       2.442      -0.000      -0.000       2.442
 Approx polarizability:       3.853       0.000       2.422      -0.000      -0.000       2.422

 ******    3 imaginary frequencies (negative Signs) ******

                      1                      2                      3
                      A                      A                      A
 Frequencies --  -4603.3439             -4603.3439               -34.0908
 Red. masses --      1.0436                 1.0436                 1.0532
 Frc consts  --     13.0294                13.0294                 0.0007
 IR Inten    --    227.3029               227.3029                 0.0150

                      4
                      A
 Frequencies --  10873.4277
 Red. masses --      1.0583
 Frc consts  --     73.7219
 IR Inten    --    101.9754

 - Thermochemistry -
 -------------------
 Temperature   298.150 Kelvin.  Pressure   1.00000 Atm.
 Atom     1 has atomic number  1 and mass   1.00783

 Molecular mass:    21.01405 amu.
 Principal axes and moments of inertia in atomic units:
                           1         2         3
     Eigenvalues --     0.00000  65.30765  65.30765
           X            1.00000  -0.00000   0.00000
           Y            0.00000   1.00000   0.00000
           Z            0.00000   0.00000   1.00000
 This molecule is a prolate symmetric top.
 Rotational symmetry number  1.
 Rotational temperature (Kelvin)      1.32624
 Rotational constant (GHZ):          27.634454
    3 imaginary frequencies ignored.
 Zero-point vibrational energy      65037.5 (Joules/Mol)
                                   15.54435 (Kcal/Mol)
 Vibrational temperatures:  15644.44
          (Kelvin)

 Zero-point correction=                           0.024771 (Hartree/Particle)
 Thermal correction to Energy=                    0.027132
 Thermal correction to Enthalpy=                  0.028076
 Thermal correction to Gibbs Free Energy=         0.004703
 Sum of electronic and zero-point Energies=           -100.775896
 Sum of electronic and thermal Energies=              -100.773535
 Sum of electronic and thermal Enthalpies=            -100.772591
 Sum of electronic and thermal Free Energies=         -100.795965

                     E (Thermal)             CV                S
                      KCal/Mol        Cal/Mol-Kelvin    Cal/Mol-Kelvin
 Total                   17.026              4.968             49.194
 Electronic               0.000              0.000              1.377
 Translational            0.889              2.981             35.068
 Rotational               0.592              1.987             12.748
 Vibrational             15.544              0.000              0.000

 Normal termination of Gaussian 16 at Fri Aug 22 15:45:09 2025.
