 Gaussian 16, Revision C.01,
 Gaussian 16:  ES64L-G16RevC.01  3-Jul-2019

 -----------------------------------------
 # sp b3lyp/6-311g** Force nosymm scf=(qc)
 -----------------------------------------

 -------------------
 Title Card Required
 -------------------
 Symbolic Z-matrix:
 Charge =  0 Multiplicity = 2

                          Input orientation:
 ---------------------------------------------------------------------
 Center     Atomic      Atomic             Coordinates (Angstroms)
 Number     Number       Type             X           Y           Z
 ---------------------------------------------------------------------
      1          1           0        0.000000    0.000000    0.000000
      2          1           0       -3.500000    0.000000    0.000000
      3          9           0        1.050000    0.000000    0.000000
 ---------------------------------------------------------------------

 SCF Done:  E(UB3LYP) =  -100.958279064     a.u. after    6 cycles

 Alpha  occ. eigenvalues --  -24.64247  -1.14876  -0.50611  -0.38434  -0.38434
 Alpha  occ. eigenvalues --   -0.33739
 Alpha virt. eigenvalues --   -0.00896   0.23556   0.32751   0.93809   0.93809
 Alpha virt. eigenvalues --    0.99061   1.23681   1.23776   1.23776   1.29272
 Alpha virt. eigenvalues --    1.35527   1.35527   1.84547   2.14086   2.32994

  Beta  occ. eigenvalues --  -24.64245  -1.14870  -0.50604  -0.38432  -0.38432
  Beta virt. eigenvalues --   -0.06192  -0.00170   0.31335   0.39247   0.93809
  Beta virt. eigenvalues --    0.93809   0.99065   1.29137   1.35525   1.35525
  Beta virt. eigenvalues --    1.49607   1.49645   1.49645   1.84574   2.32756

 Mulliken charges and spin densities:
               1          2
     1  H    0.330805   0.000468
     2  H    0.001049   0.998787
     3  F   -0.331855   0.000745
 Sum of Mulliken charges =   0.00000   1.00000

 Dipole moment (field-independent basis, Debye):
    X=             -2.1061    Y=              0.0000    Z=             -0.0000  Tot=              2.1061
 Quadrupole moment (field-independent basis, Debye-Ang):
   XX=             -8.3802   YY=             -7.0062   ZZ=             -7.0062
   XY=              0.0000   XZ=              0.0000   YZ=             -0.0000

  Exact polarizability:       7.346      -0.000       2.382       0.000      -0.000       2.382
 Approx polarizability:       9.286      -0.000       2.351       0.000       0.000       2.351

 ******    1 imaginary frequencies (negative Signs) ******

                      1                      2                      3
                      A                      A                      A
 Frequencies --    -48.9437              1121.2508              1121.2508
 Red. masses --      1.0532                 1.0362                 1.0362
 Frc consts  --      0.0015                 0.7676                 0.7676
 IR Inten    --      0.0626               162.8162               162.8162

                      4
                      A
 Frequencies --   2452.2504
 Red. masses --      1.0584
 Frc consts  --      3.7499
 IR Inten    --     84.0872

 - Thermochemistry -
 -------------------
 Temperature   298.150 Kelvin.  Pressure   1.00000 Atm.
 Atom     1 has atomic number  1 and mass   1.00783

 Molecular mass:    21.01405 amu.
 Principal axes and moments of inertia in atomic units:
                           1         2         3
     Eigenvalues --     0.00000  73.06343  73.06343
           X            1.00000  -0.00000   0.00000
           Y            0.00000   1.00000   0.00000
           Z            0.00000   0.00000   1.00000
 This molecule is a prolate symmetric top.
 Rotational symmetry number  1.
 Rotational temperature (Kelvin)      1.18546
 Rotational constant (GHZ):          24.701020
    1 imaginary frequencies ignored.
 Zero-point vibrational energy      28080.9 (Joules/Mol)
                                    6.71148 (Kcal/Mol)
 Vibrational temperatures:   1613.23  1613.23  3528.24
          (Kelvin)

 Zero-point correction=                           0.010695 (Hartree/Particle)
 Thermal correction to Energy=                    0.013102
 Thermal correction to Enthalpy=                  0.014046
 Thermal correction to Gibbs Free Energy=        -0.009488
 Sum of electronic and zero-point Energies=           -100.947584
 Sum of electronic and thermal Energies=              -100.945177
 Sum of electronic and thermal Enthalpies=            -100.944233
 Sum of electronic and thermal Free Energies=         -100.967767

                     E (Thermal)             CV                S
                      KCal/Mol        Cal/Mol-Kelvin    Cal/Mol-Kelvin
 Total                    8.222              5.495             49.531
 Electronic               0.000              0.000              1.377
 Translational            0.889              2.981             35.068
 Rotational               0.592              1.987             12.971
 Vibrational              6.740              0.527              0.114

 Normal termination of Gaussian 16 at Fri Aug 22 16:03:55 2025.
