 Gaussian 16, Revision C.01,
 Gaussian 16:  ES64L-G16RevC.01  3-Jul-2019

 -----------------------------------------
 # sp b3lyp/6-311g** Force nosymm scf=(qc)
 -----------------------------------------

 -------------------
 Title Card Required
 -------------------
 Symbolic Z-matrix:
 Charge =  0 Multiplicity = 2

                          Input orientation:
 ---------------------------------------------------------------------
 Center     Atomic      Atomic             Coordinates (Angstroms)
 Number     Number       Type             X           Y           Z
 ---------------------------------------------------------------------
      1          1           0        0.000000    0.000000    0.000000
      2          1           0       -2.250000    0.000000    0.000000
      3          9           0        1.550000    0.000000    0.000000
 ---------------------------------------------------------------------

 SCF Done:  E(UB3LYP) =  -100.847588534     a.u. after   11 cycles

 Alpha  occ. eigenvalues --  -24.64193  -1.10012  -0.43525  -0.36494  -0.36288
 Alpha  occ. eigenvalues --   -0.36288
 Alpha virt. eigenvalues --   -0.13319   0.23441   0.27154   0.94296   0.94296
 Alpha virt. eigenvalues --    1.02065   1.07687   1.20970   1.20970   1.27117
 Alpha virt. eigenvalues --    1.32779   1.32779   1.74789   2.10855   2.22730

  Beta  occ. eigenvalues --  -24.63451  -1.08034  -0.41454  -0.35580  -0.35580
  Beta virt. eigenvalues --   -0.17633  -0.08596   0.25290   0.33932   0.94066
  Beta virt. eigenvalues --    0.94066   1.03774   1.08778   1.29386   1.29386
  Beta virt. eigenvalues --    1.39674   1.39674   1.43281   1.73686   2.15402

 Mulliken charges and spin densities:
               1          2
     1  H    0.310171  -0.191194
     2  H    0.032181   0.957804
     3  F   -0.342352   0.233391
 Sum of Mulliken charges =   0.00000   1.00000

 Dipole moment (field-independent basis, Debye):
    X=             -2.9454    Y=             -0.0000    Z=              0.0000  Tot=              2.9454
 Quadrupole moment (field-independent basis, Debye-Ang):
   XX=             -9.1786   YY=             -7.3486   ZZ=             -7.3486
   XY=             -0.0000   XZ=              0.0000   YZ=              0.0000

  Exact polarizability:      28.309      -0.000       2.190       0.000      -0.000       2.190
 Approx polarizability:      40.853      -0.000       2.113       0.000      -0.000       2.113

 ******    2 imaginary frequencies (negative Signs) ******

                      1                      2                      3
                      A                      A                      A
 Frequencies --  -1849.1348              -359.8457               938.9893
 Red. masses --      1.0447                 1.0671                 1.0230
 Frc consts  --      2.1047                 0.0814                 0.5314
 IR Inten    --      2.4031                 5.3966                77.5513

                      4
                      A
 Frequencies --    938.9893
 Red. masses --      1.0230
 Frc consts  --      0.5314
 IR Inten    --     77.5513

 - Thermochemistry -
 -------------------
 Temperature   298.150 Kelvin.  Pressure   1.00000 Atm.
 Atom     1 has atomic number  1 and mass   1.00783

 Molecular mass:    21.01405 amu.
 Principal axes and moments of inertia in atomic units:
                           1         2         3
     Eigenvalues --     0.00000  55.67586  55.67586
           X            1.00000  -0.00000   0.00000
           Y            0.00000   1.00000   0.00000
           Z            0.00000   0.00000   1.00000
 This molecule is a prolate symmetric top.
 Rotational symmetry number  1.
 Rotational temperature (Kelvin)      1.55568
 Rotational constant (GHZ):          32.415147
    2 imaginary frequencies ignored.
 Zero-point vibrational energy      11232.8 (Joules/Mol)
                                    2.68471 (Kcal/Mol)
 Vibrational temperatures:   1351.00  1351.00
          (Kelvin)

 Zero-point correction=                           0.004278 (Hartree/Particle)
 Thermal correction to Energy=                    0.006732
 Thermal correction to Enthalpy=                  0.007676
 Thermal correction to Gibbs Free Energy=        -0.015660
 Sum of electronic and zero-point Energies=           -100.843310
 Sum of electronic and thermal Energies=              -100.840857
 Sum of electronic and thermal Enthalpies=            -100.839912
 Sum of electronic and thermal Free Energies=         -100.863249

                     E (Thermal)             CV                S
                      KCal/Mol        Cal/Mol-Kelvin    Cal/Mol-Kelvin
 Total                    4.224              5.866             49.116
 Electronic               0.000              0.000              1.377
 Translational            0.889              2.981             35.068
 Rotational               0.592              1.987             12.431
 Vibrational              2.743              0.898              0.239

 Normal termination of Gaussian 16 at Fri Aug 22 16:28:30 2025.
