 Gaussian 16, Revision C.01,
 Gaussian 16:  ES64L-G16RevC.01  3-Jul-2019

 -----------------------------------------
 # sp b3lyp/6-311g** Force nosymm scf=(qc)
 -----------------------------------------

 -------------------
 Title Card Required
 -------------------
 Symbolic Z-matrix:
 Charge =  0 Multiplicity = 2

                          Input orientation:
 ---------------------------------------------------------------------
 Center     Atomic      Atomic             Coordinates (Angstroms)
 Number     Number       Type             X           Y           Z
 ---------------------------------------------------------------------
      1          1           0        0.000000    0.000000    0.000000
      2          1           0       -0.850000    0.000000    0.000000
      3          9           0        3.500000    0.000000    0.000000
 ---------------------------------------------------------------------

 SCF Done:  E(UB3LYP) =  -100.927944115     a.u. after    5 cycles

 Alpha  occ. eigenvalues --  -24.76354  -1.22216  -0.55416  -0.46612  -0.46569
 Alpha  occ. eigenvalues --   -0.41235
 Alpha virt. eigenvalues --    0.03737   0.20444   0.43114   0.85991   0.90866
 Alpha virt. eigenvalues --    0.92656   1.01835   1.08263   1.08267   1.49060
 Alpha virt. eigenvalues --    1.75603   1.75607   2.11948   2.37899   2.87639

  Beta  occ. eigenvalues --  -24.73196  -1.13137  -0.43456  -0.43404  -0.41223
  Beta virt. eigenvalues --   -0.26055   0.03750   0.20454   0.43165   0.92366
  Beta virt. eigenvalues --    0.94181   0.95454   1.05893   1.08263   1.08266
  Beta virt. eigenvalues --    1.49066   1.75603   1.75607   2.11962   2.37901

 Mulliken charges and spin densities:
               1          2
     1  H   -0.001147  -0.000388
     2  H   -0.002603  -0.000045
     3  F    0.003751   1.000433
 Sum of Mulliken charges =   0.00000   1.00000

 Dipole moment (field-independent basis, Debye):
    X=              0.0476    Y=              0.0000    Z=              0.0000  Tot=              0.0476
 Quadrupole moment (field-independent basis, Debye-Ang):
   XX=             -6.2244   YY=             -6.2240   ZZ=             -7.0882
   XY=              0.0000   XZ=              0.0000   YZ=             -0.0008

  Exact polarizability:       9.724      -0.000       2.470      -0.000      -0.000       2.006
 Approx polarizability:      11.737      -0.000       2.656      -0.000      -0.001       2.074

 ******    1 imaginary frequencies (negative Signs) ******

                      1                      2                      3
                      A                      A                      A
 Frequencies --    -32.3996              1326.0235              1326.8140
 Red. masses --      1.1085                 1.0090                 1.0090
 Frc consts  --      0.0007                 1.0453                 1.0466
 IR Inten    --      0.1475                 0.0002                 0.0001

                      4
                      A
 Frequencies --   3135.7960
 Red. masses --      1.0078
 Frc consts  --      5.8389
 IR Inten    --      0.1055

 - Thermochemistry -
 -------------------
 Temperature   298.150 Kelvin.  Pressure   1.00000 Atm.
 Atom     1 has atomic number  1 and mass   1.00783

 Molecular mass:    21.01405 amu.
 Principal axes and moments of inertia in atomic units:
                           1         2         3
     Eigenvalues --     0.00000 101.55362 101.55362
           X            1.00000  -0.00000   0.00000
           Y            0.00000   1.00000   0.00000
           Z            0.00000   0.00000   1.00000
 This molecule is a prolate symmetric top.
 Rotational symmetry number  1.
 Rotational temperature (Kelvin)      0.85289
 Rotational constant (GHZ):          17.771313
    1 imaginary frequencies ignored.
 Zero-point vibrational energy      34623.7 (Joules/Mol)
                                    8.27527 (Kcal/Mol)
 Vibrational temperatures:   1907.85  1908.99  4511.71
          (Kelvin)

 Zero-point correction=                           0.013187 (Hartree/Particle)
 Thermal correction to Energy=                    0.015568
 Thermal correction to Enthalpy=                  0.016512
 Thermal correction to Gibbs Free Energy=        -0.007301
 Sum of electronic and zero-point Energies=           -100.914757
 Sum of electronic and thermal Energies=              -100.912376
 Sum of electronic and thermal Enthalpies=            -100.911432
 Sum of electronic and thermal Free Energies=         -100.935246

                     E (Thermal)             CV                S
                      KCal/Mol        Cal/Mol-Kelvin    Cal/Mol-Kelvin
 Total                    9.769              5.239             50.120
 Electronic               0.000              0.000              1.377
 Translational            0.889              2.981             35.068
 Rotational               0.592              1.987             13.626
 Vibrational              8.288              0.271              0.049

 Normal termination of Gaussian 16 at Fri Aug 22 21:50:01 2025.
