 Gaussian 16, Revision C.01,
 Gaussian 16:  ES64L-G16RevC.01  3-Jul-2019

 -----------------------------------------
 # sp b3lyp/6-311g** Force nosymm scf=(qc)
 -----------------------------------------

 -------------------
 Title Card Required
 -------------------
 Symbolic Z-matrix:
 Charge =  0 Multiplicity = 2

                          Input orientation:
 ---------------------------------------------------------------------
 Center     Atomic      Atomic             Coordinates (Angstroms)
 Number     Number       Type             X           Y           Z
 ---------------------------------------------------------------------
      1          1           0        0.000000    0.000000    0.000000
      2          1           0       -1.150000    0.000000    0.000000
      3          9           0        0.550000    0.000000    0.000000
 ---------------------------------------------------------------------

 SCF Done:  E(UB3LYP) =  -100.488877011     a.u. after    7 cycles

 Alpha  occ. eigenvalues --  -24.64072  -1.40780  -0.65044  -0.45022  -0.45022
 Alpha  occ. eigenvalues --   -0.34547
 Alpha virt. eigenvalues --    0.15959   0.20788   0.74573   0.88477   0.88477
 Alpha virt. eigenvalues --    0.88911   1.12392   1.12392   1.49823   1.69607
 Alpha virt. eigenvalues --    1.69607   1.76203   2.06296   2.38864   3.75897

  Beta  occ. eigenvalues --  -24.63839  -1.39989  -0.63936  -0.44851  -0.44851
  Beta virt. eigenvalues --   -0.11621   0.16789   0.28529   0.80325   0.89286
  Beta virt. eigenvalues --    0.89286   0.89436   1.22752   1.22752   1.50472
  Beta virt. eigenvalues --    1.74849   1.74849   1.82838   2.15601   2.57607

 Mulliken charges and spin densities:
               1          2
     1  H    0.211520   0.004751
     2  H   -0.015486   0.978793
     3  F   -0.196034   0.016456
 Sum of Mulliken charges =   0.00000   1.00000

 Dipole moment (field-independent basis, Debye):
    X=             -1.1009    Y=              0.0000    Z=             -0.0000  Tot=              1.1009
 Quadrupole moment (field-independent basis, Debye-Ang):
   XX=             -7.0267   YY=             -6.3843   ZZ=             -6.3843
   XY=              0.0000   XZ=             -0.0000   YZ=             -0.0000

  Exact polarizability:       6.169      -0.000       2.507       0.000      -0.000       2.507
 Approx polarizability:       5.856      -0.000       2.553      -0.000      -0.000       2.553

 ******    2 imaginary frequencies (negative Signs) ******

                      1                      2                      3
                      A                      A                      A
 Frequencies --  -7281.7131             -7281.7131              1732.0752
 Red. masses --      1.0288                 1.0288                 1.0539
 Frc consts  --     32.1393                32.1393                 1.8628
 IR Inten    --    171.3898               171.3898                52.1379

                      4
                      A
 Frequencies --  15786.9302
 Red. masses --      1.0577
 Frc consts  --    155.3101
 IR Inten    --     57.4574

 - Thermochemistry -
 -------------------
 Temperature   298.150 Kelvin.  Pressure   1.00000 Atm.
 Atom     1 has atomic number  1 and mass   1.00783

 Molecular mass:    21.01405 amu.
 Principal axes and moments of inertia in atomic units:
                           1         2         3
     Eigenvalues --     0.00000  10.61601  10.61601
           X            1.00000  -0.00000   0.00000
           Y            0.00000   1.00000   0.00000
           Z            0.00000   0.00000   1.00000
 This molecule is a prolate symmetric top.
 Rotational symmetry number  1.
 Rotational temperature (Kelvin)      8.15880
 Rotational constant (GHZ):         170.001801
    2 imaginary frequencies ignored.
 Zero-point vibrational energy     104786.9 (Joules/Mol)
                                   25.04468 (Kcal/Mol)
 Vibrational temperatures:   2492.07 22713.87
          (Kelvin)

 Zero-point correction=                           0.039911 (Hartree/Particle)
 Thermal correction to Energy=                    0.042274
 Thermal correction to Enthalpy=                  0.043218
 Thermal correction to Gibbs Free Energy=         0.021557
 Sum of electronic and zero-point Energies=           -100.448966
 Sum of electronic and thermal Energies=              -100.446603
 Sum of electronic and thermal Enthalpies=            -100.445659
 Sum of electronic and thermal Free Energies=         -100.467320

                     E (Thermal)             CV                S
                      KCal/Mol        Cal/Mol-Kelvin    Cal/Mol-Kelvin
 Total                   26.527              5.001             45.588
 Electronic               0.000              0.000              1.377
 Translational            0.889              2.981             35.068
 Rotational               0.592              1.987              9.138
 Vibrational             25.046              0.033              0.004

 Normal termination of Gaussian 16 at Fri Aug 22 15:38:45 2025.
