 Gaussian 16, Revision C.01,
 Gaussian 16:  ES64L-G16RevC.01  3-Jul-2019

 -----------------------------------------
 # sp b3lyp/6-311g** Force nosymm scf=(qc)
 -----------------------------------------

 -------------------
 Title Card Required
 -------------------
 Symbolic Z-matrix:
 Charge =  0 Multiplicity = 2

                          Input orientation:
 ---------------------------------------------------------------------
 Center     Atomic      Atomic             Coordinates (Angstroms)
 Number     Number       Type             X           Y           Z
 ---------------------------------------------------------------------
      1          1           0        0.000000    0.000000    0.000000
      2          1           0       -2.200000    0.000000    0.000000
      3          9           0        3.500000    0.000000    0.000000
 ---------------------------------------------------------------------

 SCF Done:  E(UB3LYP) =  -100.767965976     a.u. after   26 cycles

 Alpha  occ. eigenvalues --  -24.75513  -1.21466  -0.54635  -0.45875  -0.45875
 Alpha  occ. eigenvalues --   -0.32912
 Alpha virt. eigenvalues --   -0.10516   0.25876   0.33234   0.87602   0.91394
 Alpha virt. eigenvalues --    0.91394   1.01749   1.23461   1.24931   1.24931
 Alpha virt. eigenvalues --    1.39202   1.39202   1.45306   2.14030   2.35528

  Beta  occ. eigenvalues --  -24.72394  -1.12503  -0.42749  -0.42749  -0.33082
  Beta virt. eigenvalues --   -0.25578  -0.10154   0.25739   0.33791   0.92885
  Beta virt. eigenvalues --    0.92885   0.96777   1.05798   1.23283   1.24718
  Beta virt. eigenvalues --    1.24718   1.39739   1.39739   1.45757   2.14628

 Mulliken charges and spin densities:
               1          2
     1  H    0.005416  -0.913952
     2  H    0.004343   0.925086
     3  F   -0.009759   0.988866
 Sum of Mulliken charges =   0.00000   1.00000

 Dipole moment (field-independent basis, Debye):
    X=             -0.2206    Y=              0.0000    Z=              0.0000  Tot=              0.2206
 Quadrupole moment (field-independent basis, Debye-Ang):
   XX=             -6.8545   YY=             -7.6980   ZZ=             -7.6980
   XY=              0.0000   XZ=              0.0000   YZ=             -0.0000

  Exact polarizability:      39.834       0.000       2.038       0.000       0.000       2.038
 Approx polarizability:      31.260       0.000       1.930       0.000       0.000       1.930

 ******    2 imaginary frequencies (negative Signs) ******

                      1                      2                      3
                      A                      A                      A
 Frequencies --  -1025.3400              -138.0771               395.1000
 Red. masses --      1.0079                 1.1085                 1.0133
 Frc consts  --      0.6243                 0.0125                 0.0932
 IR Inten    --      7.0001                 6.7797                 0.0071

                      4
                      A
 Frequencies --    395.1000
 Red. masses --      1.0133
 Frc consts  --      0.0932
 IR Inten    --      0.0071

 - Thermochemistry -
 -------------------
 Temperature   298.150 Kelvin.  Pressure   1.00000 Atm.
 Atom     1 has atomic number  1 and mass   1.00783

 Molecular mass:    21.01405 amu.
 Principal axes and moments of inertia in atomic units:
                           1         2         3
     Eigenvalues --     0.00000 146.41019 146.41019
           X            1.00000  -0.00000   0.00000
           Y            0.00000   1.00000   0.00000
           Z            0.00000   0.00000   1.00000
 This molecule is a prolate symmetric top.
 Rotational symmetry number  1.
 Rotational temperature (Kelvin)      0.59158
 Rotational constant (GHZ):          12.326609
    2 imaginary frequencies ignored.
 Zero-point vibrational energy       4726.4 (Joules/Mol)
                                    1.12965 (Kcal/Mol)
 Warning -- explicit consideration of   2 degrees of freedom as
           vibrations may cause significant error
 Vibrational temperatures:    568.46   568.46
          (Kelvin)

 Zero-point correction=                           0.001800 (Hartree/Particle)
 Thermal correction to Energy=                    0.004789
 Thermal correction to Enthalpy=                  0.005733
 Thermal correction to Gibbs Free Energy=        -0.019335
 Sum of electronic and zero-point Energies=           -100.766166
 Sum of electronic and thermal Energies=              -100.763177
 Sum of electronic and thermal Enthalpies=            -100.762233
 Sum of electronic and thermal Free Energies=         -100.787301

                     E (Thermal)             CV                S
                      KCal/Mol        Cal/Mol-Kelvin    Cal/Mol-Kelvin
 Total                    3.005              7.929             52.760
 Electronic               0.000              0.000              1.377
 Translational            0.889              2.981             35.068
 Rotational               0.592              1.987             14.353
 Vibrational              1.524              2.961              1.962
 Vibration     1          0.762              1.481              0.981
 Vibration     2          0.762              1.481              0.981

 Normal termination of Gaussian 16 at Fri Aug 22 22:09:17 2025.
