 Gaussian 16, Revision C.01,
 Gaussian 16:  ES64L-G16RevC.01  3-Jul-2019

 -----------------------------------------
 # sp b3lyp/6-311g** Force nosymm scf=(qc)
 -----------------------------------------

 -------------------
 Title Card Required
 -------------------
 Symbolic Z-matrix:
 Charge =  0 Multiplicity = 2

                          Input orientation:
 ---------------------------------------------------------------------
 Center     Atomic      Atomic             Coordinates (Angstroms)
 Number     Number       Type             X           Y           Z
 ---------------------------------------------------------------------
      1          1           0        0.000000    0.000000    0.000000
      2          1           0       -1.200000    0.000000    0.000000
      3          9           0        2.750000    0.000000    0.000000
 ---------------------------------------------------------------------

 SCF Done:  E(UB3LYP) =  -100.872427803     a.u. after   17 cycles

 Alpha  occ. eigenvalues --  -24.76913  -1.22707  -0.55885  -0.47202  -0.47033
 Alpha  occ. eigenvalues --   -0.36051
 Alpha virt. eigenvalues --   -0.03641   0.23204   0.35138   0.85603   0.90473
 Alpha virt. eigenvalues --    0.93258   1.06271   1.13131   1.13142   1.22607
 Alpha virt. eigenvalues --    1.54632   1.54643   2.08640   2.32472   2.55868

  Beta  occ. eigenvalues --  -24.73750  -1.13616  -0.44055  -0.43861  -0.36022
  Beta virt. eigenvalues --   -0.26500  -0.03611   0.23231   0.35236   0.91970
  Beta virt. eigenvalues --    0.95051   0.95055   1.09993   1.13132   1.13140
  Beta virt. eigenvalues --    1.22624   1.54630   1.54640   2.08645   2.32473

 Mulliken charges and spin densities:
               1          2
     1  H   -0.001728  -0.000139
     2  H   -0.009547  -0.001460
     3  F    0.011275   1.001599
 Sum of Mulliken charges =   0.00000   1.00000

 Dipole moment (field-independent basis, Debye):
    X=              0.1520    Y=              0.0000    Z=             -0.0000  Tot=              0.1520
 Quadrupole moment (field-independent basis, Debye-Ang):
   XX=             -6.1087   YY=             -6.6569   ZZ=             -7.4903
   XY=             -0.0000   XZ=              0.0000   YZ=             -0.1124

  Exact polarizability:      16.817       0.000       2.545      -0.000      -0.061       2.096
 Approx polarizability:      24.775      -0.000       2.684       0.000      -0.075       2.128

 ******    1 imaginary frequencies (negative Signs) ******

                      1                      2                      3
                      A                      A                      A
 Frequencies --   -454.4237                73.6014              1442.2706
 Red. masses --      1.0078                 1.1085                 1.0110
 Frc consts  --      0.1226                 0.0035                 1.2390
 IR Inten    --      2.8638                 1.1933                 0.0562

                      4
                      A
 Frequencies --   1468.0137
 Red. masses --      1.0110
 Frc consts  --      1.2837
 IR Inten    --      0.0064

 - Thermochemistry -
 -------------------
 Temperature   298.150 Kelvin.  Pressure   1.00000 Atm.
 Atom     1 has atomic number  1 and mass   1.00783

 Molecular mass:    21.01405 amu.
 Principal axes and moments of inertia in atomic units:
                           1         2         3
     Eigenvalues --     0.00000  75.62271  75.62271
           X            1.00000  -0.00000   0.00000
           Y            0.00000   1.00000   0.00000
           Z            0.00000   0.00000   1.00000
 This molecule is a prolate symmetric top.
 Rotational symmetry number  1.
 Rotational temperature (Kelvin)      1.14534
 Rotational constant (GHZ):          23.865070
    1 imaginary frequencies ignored.
 Zero-point vibrational energy      17847.6 (Joules/Mol)
                                    4.26568 (Kcal/Mol)
 Warning -- explicit consideration of   1 degrees of freedom as
           vibrations may cause significant error
 Vibrational temperatures:    105.90  2075.11  2112.14
          (Kelvin)

 Zero-point correction=                           0.006798 (Hartree/Particle)
 Thermal correction to Energy=                    0.009957
 Thermal correction to Enthalpy=                  0.010901
 Thermal correction to Gibbs Free Energy=        -0.014551
 Sum of electronic and zero-point Energies=           -100.865630
 Sum of electronic and thermal Energies=              -100.862471
 Sum of electronic and thermal Enthalpies=            -100.861527
 Sum of electronic and thermal Free Energies=         -100.886979

                     E (Thermal)             CV                S
                      KCal/Mol        Cal/Mol-Kelvin    Cal/Mol-Kelvin
 Total                    6.248              7.110             53.568
 Electronic               0.000              0.000              1.377
 Translational            0.889              2.981             35.068
 Rotational               0.592              1.987             13.040
 Vibrational              4.767              2.142              4.083
 Vibration     1          0.599              1.966              4.055

 Normal termination of Gaussian 16 at Fri Aug 22 18:30:55 2025.
