 Gaussian 16, Revision C.01,
 Gaussian 16:  ES64L-G16RevC.01  3-Jul-2019

 -----------------------------------------
 # sp b3lyp/6-311g** Force nosymm scf=(qc)
 -----------------------------------------

 -------------------
 Title Card Required
 -------------------
 Symbolic Z-matrix:
 Charge =  0 Multiplicity = 2

                          Input orientation:
 ---------------------------------------------------------------------
 Center     Atomic      Atomic             Coordinates (Angstroms)
 Number     Number       Type             X           Y           Z
 ---------------------------------------------------------------------
      1          1           0        0.000000    0.000000    0.000000
      2          1           0       -1.950000    0.000000    0.000000
      3          9           0        0.750000    0.000000    0.000000
 ---------------------------------------------------------------------

 SCF Done:  E(UB3LYP) =  -100.921638490     a.u. after    6 cycles

 Alpha  occ. eigenvalues --  -24.63289  -1.25356  -0.57471  -0.41050  -0.41050
 Alpha  occ. eigenvalues --   -0.35549
 Alpha virt. eigenvalues --    0.09799   0.24075   0.46984   0.94039   0.94039
 Alpha virt. eigenvalues --    0.96788   1.16849   1.21738   1.21738   1.42045
 Alpha virt. eigenvalues --    1.42045   1.54297   1.99435   2.17882   2.69659

  Beta  occ. eigenvalues --  -24.63245  -1.25236  -0.57245  -0.41017  -0.41017
  Beta virt. eigenvalues --   -0.10983   0.11420   0.34610   0.47779   0.94045
  Beta virt. eigenvalues --    0.94045   0.97008   1.26289   1.39614   1.39614
  Beta virt. eigenvalues --    1.44023   1.44023   1.62653   2.03301   2.39469

 Mulliken charges and spin densities:
               1          2
     1  H    0.253284   0.009530
     2  H    0.011453   0.981246
     3  F   -0.264736   0.009224
 Sum of Mulliken charges =   0.00000   1.00000

 Dipole moment (field-independent basis, Debye):
    X=             -1.7669    Y=             -0.0000    Z=             -0.0000  Tot=              1.7669
 Quadrupole moment (field-independent basis, Debye-Ang):
   XX=             -7.1468   YY=             -6.6779   ZZ=             -6.6779
   XY=             -0.0000   XZ=             -0.0000   YZ=             -0.0000

  Exact polarizability:       7.114       0.000       2.504      -0.000      -0.000       2.504
 Approx polarizability:       7.114      -0.000       2.498       0.000      -0.000       2.498

 ******    2 imaginary frequencies (negative Signs) ******

                      1                      2                      3
                      A                      A                      A
 Frequencies --  -2657.9993             -2657.9993               345.4973
 Red. masses --      1.0323                 1.0323                 1.0533
 Frc consts  --      4.2970                 4.2970                 0.0741
 IR Inten    --    168.2320               168.2320                 0.2047

                      4
                      A
 Frequencies --   7577.7995
 Red. masses --      1.0583
 Frc consts  --     35.8049
 IR Inten    --    153.0651

 - Thermochemistry -
 -------------------
 Temperature   298.150 Kelvin.  Pressure   1.00000 Atm.
 Atom     1 has atomic number  1 and mass   1.00783

 Molecular mass:    21.01405 amu.
 Principal axes and moments of inertia in atomic units:
                           1         2         3
     Eigenvalues --     0.00000  26.20676  26.20676
           X            1.00000  -0.00000   0.00000
           Y            0.00000   1.00000   0.00000
           Z            0.00000   0.00000   1.00000
 This molecule is a prolate symmetric top.
 Rotational symmetry number  1.
 Rotational temperature (Kelvin)      3.30502
 Rotational constant (GHZ):          68.865482
    2 imaginary frequencies ignored.
 Zero-point vibrational energy      47391.8 (Joules/Mol)
                                   11.32692 (Kcal/Mol)
 Warning -- explicit consideration of   1 degrees of freedom as
           vibrations may cause significant error
 Vibrational temperatures:    497.09 10902.76
          (Kelvin)

 Zero-point correction=                           0.018051 (Hartree/Particle)
 Thermal correction to Energy=                    0.020777
 Thermal correction to Enthalpy=                  0.021722
 Thermal correction to Gibbs Free Energy=        -0.001354
 Sum of electronic and zero-point Energies=           -100.903588
 Sum of electronic and thermal Energies=              -100.900861
 Sum of electronic and thermal Enthalpies=            -100.899917
 Sum of electronic and thermal Free Energies=         -100.922992

                     E (Thermal)             CV                S
                      KCal/Mol        Cal/Mol-Kelvin    Cal/Mol-Kelvin
 Total                   13.038              6.552             48.566
 Electronic               0.000              0.000              1.377
 Translational            0.889              2.981             35.068
 Rotational               0.592              1.987             10.934
 Vibrational             11.557              1.584              1.187
 Vibration     1          0.724              1.584              1.187

 Normal termination of Gaussian 16 at Fri Aug 22 15:48:43 2025.
