 Gaussian 16, Revision C.01,
 Gaussian 16:  ES64L-G16RevC.01  3-Jul-2019

 -----------------------------------------
 # sp b3lyp/6-311g** Force nosymm scf=(qc)
 -----------------------------------------

 -------------------
 Title Card Required
 -------------------
 Symbolic Z-matrix:
 Charge =  0 Multiplicity = 2

                          Input orientation:
 ---------------------------------------------------------------------
 Center     Atomic      Atomic             Coordinates (Angstroms)
 Number     Number       Type             X           Y           Z
 ---------------------------------------------------------------------
      1          1           0        0.000000    0.000000    0.000000
      2          1           0       -3.900000    0.000000    0.000000
      3          9           0        1.250000    0.000000    0.000000
 ---------------------------------------------------------------------

 SCF Done:  E(UB3LYP) =  -100.913408698     a.u. after    6 cycles

 Alpha  occ. eigenvalues --  -24.64377  -1.11654  -0.46888  -0.37297  -0.37297
 Alpha  occ. eigenvalues --   -0.33558
 Alpha virt. eigenvalues --   -0.07399   0.21793   0.28432   0.93044   0.93044
 Alpha virt. eigenvalues --    1.01430   1.23796   1.23949   1.23949   1.24063
 Alpha virt. eigenvalues --    1.34233   1.34233   1.70903   2.13391   2.26527

  Beta  occ. eigenvalues --  -24.64375  -1.11649  -0.46882  -0.37295  -0.37295
  Beta virt. eigenvalues --   -0.07924  -0.05218   0.25704   0.38750   0.93044
  Beta virt. eigenvalues --    0.93044   1.01436   1.23961   1.34228   1.34228
  Beta virt. eigenvalues --    1.47812   1.47812   1.48317   1.70922   2.25802

 Mulliken charges and spin densities:
               1          2
     1  H    0.357017  -0.000108
     2  H    0.000528   0.999436
     3  F   -0.357545   0.000672
 Sum of Mulliken charges =   0.00000   1.00000

 Dipole moment (field-independent basis, Debye):
    X=             -2.3416    Y=              0.0000    Z=              0.0000  Tot=              2.3416
 Quadrupole moment (field-independent basis, Debye-Ang):
   XX=             -9.0866   YY=             -7.1644   ZZ=             -7.1644
   XY=              0.0000   XZ=              0.0000   YZ=             -0.0000

  Exact polarizability:       9.971       0.000       2.300      -0.000      -0.000       2.300
 Approx polarizability:      14.972      -0.000       2.249       0.000       0.000       2.249

 ******    1 imaginary frequencies (negative Signs) ******

                      1                      2                      3
                      A                      A                      A
 Frequencies --    -38.5254               451.4636              1193.1896
 Red. masses --      1.0522                 1.0593                 1.0352
 Frc consts  --      0.0009                 0.1272                 0.8683
 IR Inten    --      0.0582                58.9717               143.3294

                      4
                      A
 Frequencies --   1193.1896
 Red. masses --      1.0352
 Frc consts  --      0.8683
 IR Inten    --    143.3294

 - Thermochemistry -
 -------------------
 Temperature   298.150 Kelvin.  Pressure   1.00000 Atm.
 Atom     1 has atomic number  1 and mass   1.00783

 Molecular mass:    21.01405 amu.
 Principal axes and moments of inertia in atomic units:
                           1         2         3
     Eigenvalues --     0.00000  94.00818  94.00818
           X            1.00000  -0.00000   0.00000
           Y            0.00000   1.00000   0.00000
           Z            0.00000   0.00000   1.00000
 This molecule is a prolate symmetric top.
 Rotational symmetry number  1.
 Rotational temperature (Kelvin)      0.92134
 Rotational constant (GHZ):          19.197705
    1 imaginary frequencies ignored.
 Zero-point vibrational energy      16974.1 (Joules/Mol)
                                    4.05690 (Kcal/Mol)
 Warning -- explicit consideration of   1 degrees of freedom as
           vibrations may cause significant error
 Vibrational temperatures:    649.56  1716.73  1716.73
          (Kelvin)

 Zero-point correction=                           0.006465 (Hartree/Particle)
 Thermal correction to Energy=                    0.009123
 Thermal correction to Enthalpy=                  0.010067
 Thermal correction to Gibbs Free Energy=        -0.014067
 Sum of electronic and zero-point Energies=           -100.906944
 Sum of electronic and thermal Energies=              -100.904286
 Sum of electronic and thermal Enthalpies=            -100.903342
 Sum of electronic and thermal Free Energies=         -100.927476

                     E (Thermal)             CV                S
                      KCal/Mol        Cal/Mol-Kelvin    Cal/Mol-Kelvin
 Total                    5.724              6.744             50.794
 Electronic               0.000              0.000              1.377
 Translational            0.889              2.981             35.068
 Rotational               0.592              1.987             13.472
 Vibrational              4.243              1.776              0.876
 Vibration     1          0.810              1.358              0.791

 Normal termination of Gaussian 16 at Fri Aug 22 16:13:51 2025.
