 Gaussian 16, Revision C.01,
 Gaussian 16:  ES64L-G16RevC.01  3-Jul-2019

 -----------------------------------------
 # sp b3lyp/6-311g** Force nosymm scf=(qc)
 -----------------------------------------

 -------------------
 Title Card Required
 -------------------
 Symbolic Z-matrix:
 Charge =  0 Multiplicity = 2

                          Input orientation:
 ---------------------------------------------------------------------
 Center     Atomic      Atomic             Coordinates (Angstroms)
 Number     Number       Type             X           Y           Z
 ---------------------------------------------------------------------
      1          1           0        0.000000    0.000000    0.000000
      2          1           0       -2.600000    0.000000    0.000000
      3          9           0        1.500000    0.000000    0.000000
 ---------------------------------------------------------------------

 SCF Done:  E(UB3LYP) =  -100.855827421     a.u. after    8 cycles

 Alpha  occ. eigenvalues --  -24.64147  -1.09707  -0.43361  -0.36274  -0.36274
 Alpha  occ. eigenvalues --   -0.35455
 Alpha virt. eigenvalues --   -0.13668   0.22656   0.26871   0.93778   0.93778
 Alpha virt. eigenvalues --    1.03480   1.10528   1.22038   1.22038   1.24112
 Alpha virt. eigenvalues --    1.31915   1.31915   1.74398   2.13169   2.20121

  Beta  occ. eigenvalues --  -24.63903  -1.09061  -0.42688  -0.36042  -0.36042
  Beta virt. eigenvalues --   -0.15764  -0.07824   0.24933   0.35866   0.93689
  Beta virt. eigenvalues --    0.93689   1.04083   1.10799   1.30821   1.30821
  Beta virt. eigenvalues --    1.42824   1.42824   1.43496   1.74214   2.18430

 Mulliken charges and spin densities:
               1          2
     1  H    0.337129  -0.059436
     2  H    0.015376   0.982426
     3  F   -0.352505   0.077010
 Sum of Mulliken charges =  -0.00000   1.00000

 Dipole moment (field-independent basis, Debye):
    X=             -2.7880    Y=              0.0000    Z=             -0.0000  Tot=              2.7880
 Quadrupole moment (field-independent basis, Debye-Ang):
   XX=             -9.4322   YY=             -7.3246   ZZ=             -7.3246
   XY=              0.0000   XZ=             -0.0000   YZ=             -0.0000

  Exact polarizability:      21.108      -0.000       2.199       0.000       0.000       2.199
 Approx polarizability:      33.941       0.000       2.127      -0.000       0.000       2.127

 ******    2 imaginary frequencies (negative Signs) ******

                      1                      2                      3
                      A                      A                      A
 Frequencies --  -1340.8179              -227.8839               995.8226
 Red. masses --      1.0500                 1.0616                 1.0258
 Frc consts  --      1.1122                 0.0325                 0.5993
 IR Inten    --     86.2654                 2.3448               101.3641

                      4
                      A
 Frequencies --    995.8226
 Red. masses --      1.0258
 Frc consts  --      0.5993
 IR Inten    --    101.3641

 - Thermochemistry -
 -------------------
 Temperature   298.150 Kelvin.  Pressure   1.00000 Atm.
 Atom     1 has atomic number  1 and mass   1.00783

 Molecular mass:    21.01405 amu.
 Principal axes and moments of inertia in atomic units:
                           1         2         3
     Eigenvalues --     0.00000  63.18415  63.18415
           X            1.00000  -0.00000   0.00000
           Y            0.00000   1.00000   0.00000
           Z            0.00000   0.00000   1.00000
 This molecule is a prolate symmetric top.
 Rotational symmetry number  1.
 Rotational temperature (Kelvin)      1.37082
 Rotational constant (GHZ):          28.563195
    2 imaginary frequencies ignored.
 Zero-point vibrational energy      11912.7 (Joules/Mol)
                                    2.84720 (Kcal/Mol)
 Vibrational temperatures:   1432.77  1432.77
          (Kelvin)

 Zero-point correction=                           0.004537 (Hartree/Particle)
 Thermal correction to Energy=                    0.006973
 Thermal correction to Enthalpy=                  0.007917
 Thermal correction to Gibbs Free Energy=        -0.015516
 Sum of electronic and zero-point Energies=           -100.851290
 Sum of electronic and thermal Energies=              -100.848855
 Sum of electronic and thermal Enthalpies=            -100.847911
 Sum of electronic and thermal Free Energies=         -100.871343

                     E (Thermal)             CV                S
                      KCal/Mol        Cal/Mol-Kelvin    Cal/Mol-Kelvin
 Total                    4.375              5.732             49.318
 Electronic               0.000              0.000              1.377
 Translational            0.889              2.981             35.068
 Rotational               0.592              1.987             12.683
 Vibrational              2.894              0.764              0.190

 Normal termination of Gaussian 16 at Fri Aug 22 16:26:00 2025.
