 Gaussian 16, Revision C.01,
 Gaussian 16:  ES64L-G16RevC.01  3-Jul-2019

 -----------------------------------------
 # sp b3lyp/6-311g** Force nosymm scf=(qc)
 -----------------------------------------

 -------------------
 Title Card Required
 -------------------
 Symbolic Z-matrix:
 Charge =  0 Multiplicity = 2

                          Input orientation:
 ---------------------------------------------------------------------
 Center     Atomic      Atomic             Coordinates (Angstroms)
 Number     Number       Type             X           Y           Z
 ---------------------------------------------------------------------
      1          1           0        0.000000    0.000000    0.000000
      2          1           0       -3.250000    0.000000    0.000000
      3          9           0        0.900000    0.000000    0.000000
 ---------------------------------------------------------------------

 SCF Done:  E(UB3LYP) =  -100.971510309     a.u. after    5 cycles

 Alpha  occ. eigenvalues --  -24.63988  -1.19039  -0.53855  -0.39648  -0.39648
 Alpha  occ. eigenvalues --   -0.33828
 Alpha virt. eigenvalues --    0.03245   0.24786   0.39462   0.94341   0.94341
 Alpha virt. eigenvalues --    0.97759   1.23300   1.23692   1.23692   1.30639
 Alpha virt. eigenvalues --    1.37274   1.37274   2.00897   2.14482   2.37293

  Beta  occ. eigenvalues --  -24.63986  -1.19033  -0.53848  -0.39646  -0.39646
  Beta virt. eigenvalues --   -0.06161   0.04081   0.38657   0.39757   0.94341
  Beta virt. eigenvalues --    0.94341   0.97751   1.29808   1.37273   1.37273
  Beta virt. eigenvalues --    1.50258   1.50368   1.50368   2.00948   2.37250

 Mulliken charges and spin densities:
               1          2
     1  H    0.294949   0.000946
     2  H    0.001457   0.998154
     3  F   -0.296406   0.000900
 Sum of Mulliken charges =   0.00000   1.00000

 Dipole moment (field-independent basis, Debye):
    X=             -1.9032    Y=              0.0000    Z=             -0.0000  Tot=              1.9032
 Quadrupole moment (field-independent basis, Debye-Ang):
   XX=             -7.8702   YY=             -6.8686   ZZ=             -6.8686
   XY=              0.0000   XZ=             -0.0000   YZ=             -0.0000

  Exact polarizability:       5.896      -0.000       2.430      -0.000       0.000       2.430
 Approx polarizability:       6.777       0.000       2.409       0.000       0.000       2.409

 ******    3 imaginary frequencies (negative Signs) ******

                      1                      2                      3
                      A                      A                      A
 Frequencies --   -624.4183              -624.4183               -52.5085
 Red. masses --      1.0374                 1.0374                 1.0532
 Frc consts  --      0.2383                 0.2383                 0.0017
 IR Inten    --    179.4188               179.4188                 0.0865

                      4
                      A
 Frequencies --   4431.4384
 Red. masses --      1.0583
 Frc consts  --     12.2451
 IR Inten    --    103.2770

 - Thermochemistry -
 -------------------
 Temperature   298.150 Kelvin.  Pressure   1.00000 Atm.
 Atom     1 has atomic number  1 and mass   1.00783

 Molecular mass:    21.01405 amu.
 Principal axes and moments of inertia in atomic units:
                           1         2         3
     Eigenvalues --     0.00000  60.49721  60.49721
           X            1.00000  -0.00000   0.00000
           Y            0.00000   1.00000   0.00000
           Z            0.00000   0.00000   1.00000
 This molecule is a prolate symmetric top.
 Rotational symmetry number  1.
 Rotational temperature (Kelvin)      1.43170
 Rotational constant (GHZ):          29.831807
    3 imaginary frequencies ignored.
 Zero-point vibrational energy      26505.9 (Joules/Mol)
                                    6.33506 (Kcal/Mol)
 Vibrational temperatures:   6375.85
          (Kelvin)

 Zero-point correction=                           0.010096 (Hartree/Particle)
 Thermal correction to Energy=                    0.012456
 Thermal correction to Enthalpy=                  0.013400
 Thermal correction to Gibbs Free Energy=        -0.009901
 Sum of electronic and zero-point Energies=           -100.961415
 Sum of electronic and thermal Energies=              -100.959054
 Sum of electronic and thermal Enthalpies=            -100.958110
 Sum of electronic and thermal Free Energies=         -100.981411

                     E (Thermal)             CV                S
                      KCal/Mol        Cal/Mol-Kelvin    Cal/Mol-Kelvin
 Total                    7.816              4.968             49.042
 Electronic               0.000              0.000              1.377
 Translational            0.889              2.981             35.068
 Rotational               0.592              1.987             12.596
 Vibrational              6.335              0.000              0.000

 Normal termination of Gaussian 16 at Fri Aug 22 15:56:37 2025.
