 Gaussian 16, Revision C.01,
 Gaussian 16:  ES64L-G16RevC.01  3-Jul-2019

 -----------------------------------------
 # sp b3lyp/6-311g** Force nosymm scf=(qc)
 -----------------------------------------

 -------------------
 Title Card Required
 -------------------
 Symbolic Z-matrix:
 Charge =  0 Multiplicity = 2

                          Input orientation:
 ---------------------------------------------------------------------
 Center     Atomic      Atomic             Coordinates (Angstroms)
 Number     Number       Type             X           Y           Z
 ---------------------------------------------------------------------
      1          1           0        0.000000    0.000000    0.000000
      2          1           0       -2.850000    0.000000    0.000000
      3          9           0        0.650000    0.000000    0.000000
 ---------------------------------------------------------------------

 SCF Done:  E(UB3LYP) =  -100.800795233     a.u. after    6 cycles

 Alpha  occ. eigenvalues --  -24.62919  -1.31292  -0.59794  -0.42337  -0.42337
 Alpha  occ. eigenvalues --   -0.33942
 Alpha virt. eigenvalues --    0.07549   0.25590   0.55580   0.92903   0.92903
 Alpha virt. eigenvalues --    0.94686   1.21368   1.23591   1.23591   1.38175
 Alpha virt. eigenvalues --    1.46932   1.46932   1.96267   2.14788   3.09614

  Beta  occ. eigenvalues --  -24.62916  -1.31283  -0.59786  -0.42335  -0.42335
  Beta virt. eigenvalues --   -0.06622   0.08673   0.39026   0.55691   0.92900
  Beta virt. eigenvalues --    0.92900   0.94710   1.32091   1.46933   1.46933
  Beta virt. eigenvalues --    1.50101   1.50101   1.52625   1.96065   2.44375

 Mulliken charges and spin densities:
               1          2
     1  H    0.252634   0.001696
     2  H    0.002463   0.996636
     3  F   -0.255097   0.001668
 Sum of Mulliken charges =   0.00000   1.00000

 Dipole moment (field-independent basis, Debye):
    X=             -1.5395    Y=             -0.0000    Z=             -0.0000  Tot=              1.5395
 Quadrupole moment (field-independent basis, Debye-Ang):
   XX=             -7.0322   YY=             -6.6063   ZZ=             -6.6063
   XY=             -0.0000   XZ=             -0.0000   YZ=             -0.0000

  Exact polarizability:       4.493       0.000       2.458      -0.000       0.000       2.458
 Approx polarizability:       4.665       0.000       2.440      -0.000      -0.000       2.440

 ******    2 imaginary frequencies (negative Signs) ******

                      1                      2                      3
                      A                      A                      A
 Frequencies --  -4576.9664             -4576.9664                36.0965
 Red. masses --      1.0402                 1.0402                 1.0532
 Frc consts  --     12.8389                12.8389                 0.0008
 IR Inten    --    218.6808               218.6808                 0.1223

                      4
                      A
 Frequencies --  10873.4871
 Red. masses --      1.0583
 Frc consts  --     73.7229
 IR Inten    --    109.7832

 - Thermochemistry -
 -------------------
 Temperature   298.150 Kelvin.  Pressure   1.00000 Atm.
 Atom     1 has atomic number  1 and mass   1.00783

 Molecular mass:    21.01405 amu.
 Principal axes and moments of inertia in atomic units:
                           1         2         3
     Eigenvalues --     0.00000  42.63571  42.63571
           X            1.00000  -0.00000   0.00000
           Y            0.00000   1.00000   0.00000
           Z            0.00000   0.00000   1.00000
 This molecule is a prolate symmetric top.
 Rotational symmetry number  1.
 Rotational temperature (Kelvin)      2.03149
 Rotational constant (GHZ):          42.329331
    2 imaginary frequencies ignored.
 Zero-point vibrational energy      65253.8 (Joules/Mol)
                                   15.59603 (Kcal/Mol)
 Warning -- explicit consideration of   1 degrees of freedom as
           vibrations may cause significant error
 Vibrational temperatures:     51.93 15644.52
          (Kelvin)

 Zero-point correction=                           0.024854 (Hartree/Particle)
 Thermal correction to Energy=                    0.028079
 Thermal correction to Enthalpy=                  0.029023
 Thermal correction to Gibbs Free Energy=         0.003456
 Sum of electronic and zero-point Energies=           -100.775941
 Sum of electronic and thermal Energies=              -100.772717
 Sum of electronic and thermal Enthalpies=            -100.771772
 Sum of electronic and thermal Free Energies=         -100.797339

                     E (Thermal)             CV                S
                      KCal/Mol        Cal/Mol-Kelvin    Cal/Mol-Kelvin
 Total                   17.620              6.950             53.809
 Electronic               0.000              0.000              1.377
 Translational            0.889              2.981             35.068
 Rotational               0.592              1.987             11.901
 Vibrational             16.138              1.982              5.463
 Vibration     1          0.594              1.982              5.463

 Normal termination of Gaussian 16 at Fri Aug 22 15:44:38 2025.
