 Gaussian 16, Revision C.01,
 Gaussian 16:  ES64L-G16RevC.01  3-Jul-2019

 -----------------------------------------
 # sp b3lyp/6-311g** Force nosymm scf=(qc)
 -----------------------------------------

 -------------------
 Title Card Required
 -------------------
 Symbolic Z-matrix:
 Charge =  0 Multiplicity = 2

                          Input orientation:
 ---------------------------------------------------------------------
 Center     Atomic      Atomic             Coordinates (Angstroms)
 Number     Number       Type             X           Y           Z
 ---------------------------------------------------------------------
      1          1           0        0.000000    0.000000    0.000000
      2          1           0       -1.700000    0.000000    0.000000
      3          9           0        3.300000    0.000000    0.000000
 ---------------------------------------------------------------------

 SCF Done:  E(UB3LYP) =  -100.795213659     a.u. after   29 cycles

 Alpha  occ. eigenvalues --  -24.75513  -1.21469  -0.54638  -0.45884  -0.45884
 Alpha  occ. eigenvalues --   -0.33675
 Alpha virt. eigenvalues --   -0.11145   0.25352   0.30365   0.88309   0.91369
 Alpha virt. eigenvalues --    0.91369   1.02313   1.06997   1.23212   1.23212
 Alpha virt. eigenvalues --    1.37621   1.37621   1.67222   2.16359   2.41629

  Beta  occ. eigenvalues --  -24.72403  -1.12532  -0.42767  -0.42767  -0.33616
  Beta virt. eigenvalues --   -0.25674  -0.10970   0.25437   0.30708   0.92856
  Beta virt. eigenvalues --    0.92856   0.97356   1.06306   1.07126   1.23283
  Beta virt. eigenvalues --    1.23283   1.37787   1.37787   1.67448   2.16971

 Mulliken charges and spin densities:
               1          2
     1  H    0.000260  -0.608173
     2  H    0.011206   0.622095
     3  F   -0.011467   0.986078
 Sum of Mulliken charges =   0.00000   1.00000

 Dipole moment (field-independent basis, Debye):
    X=             -0.2831    Y=              0.0000    Z=              0.0000  Tot=              0.2831
 Quadrupole moment (field-independent basis, Debye-Ang):
   XX=             -6.2621   YY=             -7.7581   ZZ=             -7.7581
   XY=              0.0000   XZ=              0.0000   YZ=              0.0000

  Exact polarizability:      49.048      -0.000       2.009      -0.000       0.000       2.009
 Approx polarizability:      54.982       0.000       1.976       0.000      -0.000       1.976

 ******    2 imaginary frequencies (negative Signs) ******

                      1                      2                      3
                      A                      A                      A
 Frequencies --  -1912.9882              -153.5560               898.4341
 Red. masses --      1.0078                 1.1085                 1.0119
 Frc consts  --      2.1730                 0.0154                 0.4812
 IR Inten    --     44.4677                10.4136                 0.0149

                      4
                      A
 Frequencies --    898.4341
 Red. masses --      1.0119
 Frc consts  --      0.4812
 IR Inten    --      0.0149

 - Thermochemistry -
 -------------------
 Temperature   298.150 Kelvin.  Pressure   1.00000 Atm.
 Atom     1 has atomic number  1 and mass   1.00783

 Molecular mass:    21.01405 amu.
 Principal axes and moments of inertia in atomic units:
                           1         2         3
     Eigenvalues --     0.00000 117.27753 117.27753
           X            1.00000  -0.00000   0.00000
           Y            0.00000   1.00000   0.00000
           Z            0.00000   0.00000   1.00000
 This molecule is a prolate symmetric top.
 Rotational symmetry number  1.
 Rotational temperature (Kelvin)      0.73854
 Rotational constant (GHZ):          15.388636
    2 imaginary frequencies ignored.
 Zero-point vibrational energy      10747.7 (Joules/Mol)
                                    2.56875 (Kcal/Mol)
 Vibrational temperatures:   1292.65  1292.65
          (Kelvin)

 Zero-point correction=                           0.004094 (Hartree/Particle)
 Thermal correction to Energy=                    0.006563
 Thermal correction to Enthalpy=                  0.007507
 Thermal correction to Gibbs Free Energy=        -0.016553
 Sum of electronic and zero-point Energies=           -100.791120
 Sum of electronic and thermal Energies=              -100.788651
 Sum of electronic and thermal Enthalpies=            -100.787707
 Sum of electronic and thermal Free Energies=         -100.811767

                     E (Thermal)             CV                S
                      KCal/Mol        Cal/Mol-Kelvin    Cal/Mol-Kelvin
 Total                    4.118              5.972             50.638
 Electronic               0.000              0.000              1.377
 Translational            0.889              2.981             35.068
 Rotational               0.592              1.987             13.912
 Vibrational              2.637              1.004              0.281

 Normal termination of Gaussian 16 at Fri Aug 22 20:47:40 2025.
