 Gaussian 16, Revision C.01,
 Gaussian 16:  ES64L-G16RevC.01  3-Jul-2019

 -----------------------------------------
 # sp b3lyp/6-311g** Force nosymm scf=(qc)
 -----------------------------------------

 -------------------
 Title Card Required
 -------------------
 Symbolic Z-matrix:
 Charge =  0 Multiplicity = 2

                          Input orientation:
 ---------------------------------------------------------------------
 Center     Atomic      Atomic             Coordinates (Angstroms)
 Number     Number       Type             X           Y           Z
 ---------------------------------------------------------------------
      1          1           0        0.000000    0.000000    0.000000
      2          1           0       -0.500000    0.000000    0.000000
      3          9           0        1.600000    0.000000    0.000000
 ---------------------------------------------------------------------

 SCF Done:  E(UB3LYP) =  -100.857994682     a.u. after    6 cycles

 Alpha  occ. eigenvalues --  -24.73488  -1.20173  -0.58758  -0.46869  -0.44523
 Alpha  occ. eigenvalues --   -0.44523
 Alpha virt. eigenvalues --    0.12437   0.19647   0.54284   0.88796   0.88796
 Alpha virt. eigenvalues --    0.96159   1.12441   1.12441   1.31574   1.67774
 Alpha virt. eigenvalues --    1.85176   1.99020   1.99020   2.50740   3.70446

  Beta  occ. eigenvalues --  -24.70533  -1.11941  -0.52431  -0.41621  -0.41621
  Beta virt. eigenvalues --   -0.23900   0.13015   0.20298   0.56005   0.90050
  Beta virt. eigenvalues --    0.90050   1.03085   1.13732   1.13732   1.35261
  Beta virt. eigenvalues --    1.69880   1.86000   1.99608   1.99608   2.52615

 Mulliken charges and spin densities:
               1          2
     1  H    0.076772  -0.023748
     2  H    0.000810   0.120854
     3  F   -0.077582   0.902894
 Sum of Mulliken charges =   0.00000   1.00000

 Dipole moment (field-independent basis, Debye):
    X=             -0.5884    Y=              0.0000    Z=             -0.0000  Tot=              0.5884
 Quadrupole moment (field-independent basis, Debye-Ang):
   XX=             -6.2695   YY=             -6.5058   ZZ=             -6.5058
   XY=              0.0000   XZ=             -0.0000   YZ=              0.0000

  Exact polarizability:      12.308      -0.000       2.137       0.000       0.000       2.137
 Approx polarizability:      13.611       0.000       2.203      -0.000       0.000       2.203

 ******    2 imaginary frequencies (negative Signs) ******

                      1                      2                      3
                      A                      A                      A
 Frequencies --  -4892.4901             -4892.4901               540.6843
 Red. masses --      1.0096                 1.0096                 1.1085
 Frc consts  --     14.2389                14.2389                 0.1909
 IR Inten    --      0.1444                 0.1444                39.3281

                      4
                      A
 Frequencies --   9884.6970
 Red. masses --      1.0078
 Frc consts  --     58.0180
 IR Inten    --    306.3931

 - Thermochemistry -
 -------------------
 Temperature   298.150 Kelvin.  Pressure   1.00000 Atm.
 Atom     1 has atomic number  1 and mass   1.00783

 Molecular mass:    21.01405 amu.
 Principal axes and moments of inertia in atomic units:
                           1         2         3
     Eigenvalues --     0.00000  22.72210  22.72210
           X            1.00000  -0.00000   0.00000
           Y            0.00000   1.00000   0.00000
           Z            0.00000   0.00000   1.00000
 This molecule is a prolate symmetric top.
 Rotational symmetry number  1.
 Rotational temperature (Kelvin)      3.81188
 Rotational constant (GHZ):          79.426687
    2 imaginary frequencies ignored.
 Zero-point vibrational energy      62357.6 (Joules/Mol)
                                   14.90383 (Kcal/Mol)
 Warning -- explicit consideration of   1 degrees of freedom as
           vibrations may cause significant error
 Vibrational temperatures:    777.92 14221.87
          (Kelvin)

 Zero-point correction=                           0.023751 (Hartree/Particle)
 Thermal correction to Energy=                    0.026307
 Thermal correction to Enthalpy=                  0.027251
 Thermal correction to Gibbs Free Energy=         0.004606
 Sum of electronic and zero-point Energies=           -100.834244
 Sum of electronic and thermal Energies=              -100.831688
 Sum of electronic and thermal Enthalpies=            -100.830744
 Sum of electronic and thermal Free Energies=         -100.853388

                     E (Thermal)             CV                S
                      KCal/Mol        Cal/Mol-Kelvin    Cal/Mol-Kelvin
 Total                   16.508              6.128             47.660
 Electronic               0.000              0.000              1.377
 Translational            0.889              2.981             35.068
 Rotational               0.592              1.987             10.650
 Vibrational             15.027              1.160              0.564
 Vibration     1          0.896              1.160              0.564

 Normal termination of Gaussian 16 at Fri Aug 22 16:29:52 2025.
