 Gaussian 16, Revision C.01,
 Gaussian 16:  ES64L-G16RevC.01  3-Jul-2019

 -----------------------------------------
 # sp b3lyp/6-311g** Force nosymm scf=(qc)
 -----------------------------------------

 -------------------
 Title Card Required
 -------------------
 Symbolic Z-matrix:
 Charge =  0 Multiplicity = 2

                          Input orientation:
 ---------------------------------------------------------------------
 Center     Atomic      Atomic             Coordinates (Angstroms)
 Number     Number       Type             X           Y           Z
 ---------------------------------------------------------------------
      1          1           0        0.000000    0.000000    0.000000
      2          1           0       -2.400000    0.000000    0.000000
      3          9           0        2.700000    0.000000    0.000000
 ---------------------------------------------------------------------

 SCF Done:  E(UB3LYP) =  -100.768923065     a.u. after   19 cycles

 Alpha  occ. eigenvalues --  -24.72867  -1.19005  -0.51977  -0.43647  -0.43647
 Alpha  occ. eigenvalues --   -0.33608
 Alpha virt. eigenvalues --   -0.11545   0.25139   0.33112   0.90302   0.93004
 Alpha virt. eigenvalues --    0.93004   1.05813   1.24091   1.24091   1.26453
 Alpha virt. eigenvalues --    1.38180   1.38180   1.41609   2.14504   2.34676

  Beta  occ. eigenvalues --  -24.69931  -1.10619  -0.40714  -0.40714  -0.34600
  Beta virt. eigenvalues --   -0.24085  -0.09855   0.25901   0.34314   0.94428
  Beta virt. eigenvalues --    0.94428   0.98409   1.09397   1.22965   1.22965
  Beta virt. eigenvalues --    1.26379   1.40929   1.40929   1.43475   2.15089

 Mulliken charges and spin densities:
               1          2
     1  H    0.052061  -0.889844
     2  H    0.010826   0.960747
     3  F   -0.062887   0.929097
 Sum of Mulliken charges =   0.00000   1.00000

 Dipole moment (field-independent basis, Debye):
    X=             -0.9925    Y=             -0.0000    Z=             -0.0000  Tot=              0.9925
 Quadrupole moment (field-independent basis, Debye-Ang):
   XX=             -8.3917   YY=             -7.6409   ZZ=             -7.6409
   XY=              0.0000   XZ=              0.0000   YZ=             -0.0000

  Exact polarizability:      47.677       0.000       2.011       0.000      -0.000       2.011
 Approx polarizability:      47.287       0.000       1.918       0.000       0.000       1.918

 ******    2 imaginary frequencies (negative Signs) ******

                      1                      2                      3
                      A                      A                      A
 Frequencies --   -839.1581              -311.1836               323.4535
 Red. masses --      1.0120                 1.1035                 1.0166
 Frc consts  --      0.4199                 0.0630                 0.0627
 IR Inten    --     36.2844                29.8154                 2.0711

                      4
                      A
 Frequencies --    323.4535
 Red. masses --      1.0166
 Frc consts  --      0.0627
 IR Inten    --      2.0711

 - Thermochemistry -
 -------------------
 Temperature   298.150 Kelvin.  Pressure   1.00000 Atm.
 Atom     1 has atomic number  1 and mass   1.00783

 Molecular mass:    21.01405 amu.
 Principal axes and moments of inertia in atomic units:
                           1         2         3
     Eigenvalues --     0.00000 109.34558 109.34558
           X            1.00000  -0.00000   0.00000
           Y            0.00000   1.00000   0.00000
           Z            0.00000   0.00000   1.00000
 This molecule is a prolate symmetric top.
 Rotational symmetry number  1.
 Rotational temperature (Kelvin)      0.79211
 Rotational constant (GHZ):          16.504931
    2 imaginary frequencies ignored.
 Zero-point vibrational energy       3869.4 (Joules/Mol)
                                    0.92480 (Kcal/Mol)
 Warning -- explicit consideration of   2 degrees of freedom as
           vibrations may cause significant error
 Vibrational temperatures:    465.38   465.38
          (Kelvin)

 Zero-point correction=                           0.001474 (Hartree/Particle)
 Thermal correction to Energy=                    0.004618
 Thermal correction to Enthalpy=                  0.005562
 Thermal correction to Gibbs Free Energy=        -0.019527
 Sum of electronic and zero-point Energies=           -100.767449
 Sum of electronic and thermal Energies=              -100.764306
 Sum of electronic and thermal Enthalpies=            -100.763361
 Sum of electronic and thermal Free Energies=         -100.788450

                     E (Thermal)             CV                S
                      KCal/Mol        Cal/Mol-Kelvin    Cal/Mol-Kelvin
 Total                    2.898              8.225             52.803
 Electronic               0.000              0.000              1.377
 Translational            0.889              2.981             35.068
 Rotational               0.592              1.987             13.773
 Vibrational              1.416              3.257              2.585
 Vibration     1          0.708              1.629              1.293
 Vibration     2          0.708              1.629              1.293

 Normal termination of Gaussian 16 at Fri Aug 22 18:25:49 2025.
