 Gaussian 16, Revision C.01,
 Gaussian 16:  ES64L-G16RevC.01  3-Jul-2019

 -----------------------------------------
 # sp b3lyp/6-311g** Force nosymm scf=(qc)
 -----------------------------------------

 -------------------
 Title Card Required
 -------------------
 Symbolic Z-matrix:
 Charge =  0 Multiplicity = 2

                          Input orientation:
 ---------------------------------------------------------------------
 Center     Atomic      Atomic             Coordinates (Angstroms)
 Number     Number       Type             X           Y           Z
 ---------------------------------------------------------------------
      1          1           0        0.000000    0.000000    0.000000
      2          1           0       -1.950000    0.000000    0.000000
      3          9           0        2.300000    0.000000    0.000000
 ---------------------------------------------------------------------

 SCF Done:  E(UB3LYP) =  -100.789117111     a.u. after   18 cycles

 Alpha  occ. eigenvalues --  -24.70593  -1.16857  -0.49698  -0.41731  -0.41731
 Alpha  occ. eigenvalues --   -0.35556
 Alpha virt. eigenvalues --   -0.13095   0.24408   0.31733   0.88547   0.94192
 Alpha virt. eigenvalues --    0.94192   1.04982   1.22350   1.22350   1.23354
 Alpha virt. eigenvalues --    1.34427   1.34427   1.52795   2.11051   2.34283

  Beta  occ. eigenvalues --  -24.67867  -1.09131  -0.39020  -0.39020  -0.35906
  Beta virt. eigenvalues --   -0.22901  -0.11820   0.26593   0.31562   0.93608
  Beta virt. eigenvalues --    0.95439   0.95439   1.08124   1.22576   1.22576
  Beta virt. eigenvalues --    1.28728   1.36278   1.36278   1.52480   2.11674

 Mulliken charges and spin densities:
               1          2
     1  H    0.079006  -0.712665
     2  H    0.037757   0.852761
     3  F   -0.116763   0.859904
 Sum of Mulliken charges =   0.00000   1.00000

 Dipole moment (field-independent basis, Debye):
    X=             -1.7103    Y=             -0.0000    Z=             -0.0000  Tot=              1.7103
 Quadrupole moment (field-independent basis, Debye-Ang):
   XX=             -8.3372   YY=             -7.6297   ZZ=             -7.6297
   XY=             -0.0000   XZ=             -0.0000   YZ=              0.0000

  Exact polarizability:      57.335      -0.000       2.022      -0.000       0.000       2.022
 Approx polarizability:      65.766       0.000       1.941       0.000      -0.000       1.941

 ******    2 imaginary frequencies (negative Signs) ******

                      1                      2                      3
                      A                      A                      A
 Frequencies --  -1510.2851              -465.3486               620.8621
 Red. masses --      1.0106                 1.1052                 1.0161
 Frc consts  --      1.3582                 0.1410                 0.2308
 IR Inten    --    108.9066                51.5377                 3.3593

                      4
                      A
 Frequencies --    620.8621
 Red. masses --      1.0161
 Frc consts  --      0.2308
 IR Inten    --      3.3593

 - Thermochemistry -
 -------------------
 Temperature   298.150 Kelvin.  Pressure   1.00000 Atm.
 Atom     1 has atomic number  1 and mass   1.00783

 Molecular mass:    21.01405 amu.
 Principal axes and moments of inertia in atomic units:
                           1         2         3
     Eigenvalues --     0.00000  76.64058  76.64058
           X            1.00000  -0.00000   0.00000
           Y            0.00000   1.00000   0.00000
           Z            0.00000   0.00000   1.00000
 This molecule is a prolate symmetric top.
 Rotational symmetry number  1.
 Rotational temperature (Kelvin)      1.13013
 Rotational constant (GHZ):          23.548116
    2 imaginary frequencies ignored.
 Zero-point vibrational energy       7427.2 (Joules/Mol)
                                    1.77513 (Kcal/Mol)
 Vibrational temperatures:    893.28   893.28
          (Kelvin)

 Zero-point correction=                           0.002829 (Hartree/Particle)
 Thermal correction to Energy=                    0.005487
 Thermal correction to Enthalpy=                  0.006431
 Thermal correction to Gibbs Free Energy=        -0.017488
 Sum of electronic and zero-point Energies=           -100.786288
 Sum of electronic and thermal Energies=              -100.783630
 Sum of electronic and thermal Enthalpies=            -100.782686
 Sum of electronic and thermal Free Energies=         -100.806605

                     E (Thermal)             CV                S
                      KCal/Mol        Cal/Mol-Kelvin    Cal/Mol-Kelvin
 Total                    3.443              6.944             50.342
 Electronic               0.000              0.000              1.377
 Translational            0.889              2.981             35.068
 Rotational               0.592              1.987             13.066
 Vibrational              1.962              1.976              0.830

 Normal termination of Gaussian 16 at Fri Aug 22 17:21:50 2025.
