 Gaussian 16, Revision C.01,
 Gaussian 16:  ES64L-G16RevC.01  3-Jul-2019

 -----------------------------------------
 # sp b3lyp/6-311g** Force nosymm scf=(qc)
 -----------------------------------------

 -------------------
 Title Card Required
 -------------------
 Symbolic Z-matrix:
 Charge =  0 Multiplicity = 2

                          Input orientation:
 ---------------------------------------------------------------------
 Center     Atomic      Atomic             Coordinates (Angstroms)
 Number     Number       Type             X           Y           Z
 ---------------------------------------------------------------------
      1          1           0        0.000000    0.000000    0.000000
      2          1           0       -2.400000    0.000000    0.000000
      3          9           0        2.000000    0.000000    0.000000
 ---------------------------------------------------------------------

 SCF Done:  E(UB3LYP) =  -100.791732839     a.u. after   14 cycles

 Alpha  occ. eigenvalues --  -24.68094  -1.14412  -0.47093  -0.39627  -0.39627
 Alpha  occ. eigenvalues --   -0.35135
 Alpha virt. eigenvalues --   -0.13869   0.24064   0.30836   0.89660   0.94979
 Alpha virt. eigenvalues --    0.94979   1.06182   1.22555   1.22555   1.26296
 Alpha virt. eigenvalues --    1.34769   1.34769   1.59994   2.13145   2.28647

  Beta  occ. eigenvalues --  -24.65724  -1.07787  -0.37666  -0.37291  -0.37291
  Beta virt. eigenvalues --   -0.20870  -0.10293   0.25139   0.34151   0.91933
  Beta virt. eigenvalues --    0.95645   0.95645   1.08772   1.22473   1.22473
  Beta virt. eigenvalues --    1.40316   1.40316   1.42547   1.53808   2.12990

 Mulliken charges and spin densities:
               1          2
     1  H    0.170182  -0.706158
     2  H    0.022124   0.960900
     3  F   -0.192307   0.745258
 Sum of Mulliken charges =  -0.00000   1.00000

 Dipole moment (field-independent basis, Debye):
    X=             -2.1575    Y=             -0.0000    Z=             -0.0000  Tot=              2.1575
 Quadrupole moment (field-independent basis, Debye-Ang):
   XX=             -9.2955   YY=             -7.5278   ZZ=             -7.5278
   XY=             -0.0000   XZ=             -0.0000   YZ=              0.0000

  Exact polarizability:      39.819       0.000       2.058      -0.000       0.000       2.058
 Approx polarizability:      47.546      -0.000       1.952      -0.000      -0.000       1.952

 ******    2 imaginary frequencies (negative Signs) ******

                      1                      2                      3
                      A                      A                      A
 Frequencies --  -1250.8318              -436.4784               523.8942
 Red. masses --      1.0389                 1.0732                 1.0203
 Frc consts  --      0.9577                 0.1205                 0.1650
 IR Inten    --     89.2624                20.2983                23.0571

                      4
                      A
 Frequencies --    523.8942
 Red. masses --      1.0203
 Frc consts  --      0.1650
 IR Inten    --     23.0571

 - Thermochemistry -
 -------------------
 Temperature   298.150 Kelvin.  Pressure   1.00000 Atm.
 Atom     1 has atomic number  1 and mass   1.00783

 Molecular mass:    21.01405 amu.
 Principal axes and moments of inertia in atomic units:
                           1         2         3
     Eigenvalues --     0.00000  77.00286  77.00286
           X            1.00000  -0.00000   0.00000
           Y            0.00000   1.00000   0.00000
           Z            0.00000   0.00000   1.00000
 This molecule is a prolate symmetric top.
 Rotational symmetry number  1.
 Rotational temperature (Kelvin)      1.12481
 Rotational constant (GHZ):          23.437327
    2 imaginary frequencies ignored.
 Zero-point vibrational energy       6267.2 (Joules/Mol)
                                    1.49789 (Kcal/Mol)
 Warning -- explicit consideration of   2 degrees of freedom as
           vibrations may cause significant error
 Vibrational temperatures:    753.77   753.77
          (Kelvin)

 Zero-point correction=                           0.002387 (Hartree/Particle)
 Thermal correction to Energy=                    0.005162
 Thermal correction to Enthalpy=                  0.006106
 Thermal correction to Gibbs Free Energy=        -0.017994
 Sum of electronic and zero-point Energies=           -100.789346
 Sum of electronic and thermal Energies=              -100.786571
 Sum of electronic and thermal Enthalpies=            -100.785627
 Sum of electronic and thermal Free Energies=         -100.809727

                     E (Thermal)             CV                S
                      KCal/Mol        Cal/Mol-Kelvin    Cal/Mol-Kelvin
 Total                    3.239              7.362             50.723
 Electronic               0.000              0.000              1.377
 Translational            0.889              2.981             35.068
 Rotational               0.592              1.987             13.076
 Vibrational              1.758              2.394              1.202
 Vibration     1          0.879              1.197              0.601
 Vibration     2          0.879              1.197              0.601

 Normal termination of Gaussian 16 at Fri Aug 22 16:56:50 2025.
