 Gaussian 16, Revision C.01,
 Gaussian 16:  ES64L-G16RevC.01  3-Jul-2019

 -----------------------------------------
 # sp b3lyp/6-311g** Force nosymm scf=(qc)
 -----------------------------------------

 -------------------
 Title Card Required
 -------------------
 Symbolic Z-matrix:
 Charge =  0 Multiplicity = 2

                          Input orientation:
 ---------------------------------------------------------------------
 Center     Atomic      Atomic             Coordinates (Angstroms)
 Number     Number       Type             X           Y           Z
 ---------------------------------------------------------------------
      1          1           0        0.000000    0.000000    0.000000
      2          1           0       -1.950000    0.000000    0.000000
      3          9           0        2.350000    0.000000    0.000000
 ---------------------------------------------------------------------

 SCF Done:  E(UB3LYP) =  -100.787684459     a.u. after   17 cycles

 Alpha  occ. eigenvalues --  -24.70952  -1.17198  -0.50058  -0.42032  -0.42032
 Alpha  occ. eigenvalues --   -0.35395
 Alpha virt. eigenvalues --   -0.13014   0.24501   0.31786   0.88904   0.94027
 Alpha virt. eigenvalues --    0.94027   1.05106   1.22341   1.22514   1.22514
 Alpha virt. eigenvalues --    1.34566   1.34566   1.52186   2.11099   2.34609

  Beta  occ. eigenvalues --  -24.68188  -1.09356  -0.39282  -0.39282  -0.35704
  Beta virt. eigenvalues --   -0.23106  -0.11806   0.26613   0.31587   0.94421
  Beta virt. eigenvalues --    0.95316   0.95316   1.08154   1.22633   1.22633
  Beta virt. eigenvalues --    1.27036   1.36363   1.36363   1.52192   2.11737

 Mulliken charges and spin densities:
               1          2
     1  H    0.071644  -0.722957
     2  H    0.036047   0.850940
     3  F   -0.107691   0.872018
 Sum of Mulliken charges =  -0.00000   1.00000

 Dipole moment (field-independent basis, Debye):
    X=             -1.6188    Y=             -0.0000    Z=             -0.0000  Tot=              1.6188
 Quadrupole moment (field-independent basis, Debye-Ang):
   XX=             -8.2740   YY=             -7.6398   ZZ=             -7.6398
   XY=             -0.0000   XZ=              0.0000   YZ=              0.0000

  Exact polarizability:      58.211      -0.000       2.018       0.000      -0.000       2.018
 Approx polarizability:      66.003       0.000       1.938      -0.000      -0.000       1.938

 ******    2 imaginary frequencies (negative Signs) ******

                      1                      2                      3
                      A                      A                      A
 Frequencies --  -1501.3349              -446.0917               616.0095
 Red. masses --      1.0101                 1.1058                 1.0158
 Frc consts  --      1.3414                 0.1297                 0.2271
 IR Inten    --    104.2639                52.1783                 2.7039

                      4
                      A
 Frequencies --    616.0095
 Red. masses --      1.0158
 Frc consts  --      0.2271
 IR Inten    --      2.7039

 - Thermochemistry -
 -------------------
 Temperature   298.150 Kelvin.  Pressure   1.00000 Atm.
 Atom     1 has atomic number  1 and mass   1.00783

 Molecular mass:    21.01405 amu.
 Principal axes and moments of inertia in atomic units:
                           1         2         3
     Eigenvalues --     0.00000  78.78808  78.78808
           X            1.00000  -0.00000   0.00000
           Y            0.00000   1.00000   0.00000
           Z            0.00000   0.00000   1.00000
 This molecule is a prolate symmetric top.
 Rotational symmetry number  1.
 Rotational temperature (Kelvin)      1.09933
 Rotational constant (GHZ):          22.906271
    2 imaginary frequencies ignored.
 Zero-point vibrational energy       7369.1 (Joules/Mol)
                                    1.76126 (Kcal/Mol)
 Warning -- explicit consideration of   2 degrees of freedom as
           vibrations may cause significant error
 Vibrational temperatures:    886.30   886.30
          (Kelvin)

 Zero-point correction=                           0.002807 (Hartree/Particle)
 Thermal correction to Energy=                    0.005470
 Thermal correction to Enthalpy=                  0.006414
 Thermal correction to Gibbs Free Energy=        -0.017539
 Sum of electronic and zero-point Energies=           -100.784878
 Sum of electronic and thermal Energies=              -100.782215
 Sum of electronic and thermal Enthalpies=            -100.781270
 Sum of electronic and thermal Free Energies=         -100.805223

                     E (Thermal)             CV                S
                      KCal/Mol        Cal/Mol-Kelvin    Cal/Mol-Kelvin
 Total                    3.432              6.964             50.413
 Electronic               0.000              0.000              1.377
 Translational            0.889              2.981             35.068
 Rotational               0.592              1.987             13.121
 Vibrational              1.951              1.996              0.846
 Vibration     1          0.976              0.998              0.423
 Vibration     2          0.976              0.998              0.423

 Normal termination of Gaussian 16 at Fri Aug 22 17:26:16 2025.
