 Gaussian 16, Revision C.01,
 Gaussian 16:  ES64L-G16RevC.01  3-Jul-2019

 -----------------------------------------
 # sp b3lyp/6-311g** Force nosymm scf=(qc)
 -----------------------------------------

 -------------------
 Title Card Required
 -------------------
 Symbolic Z-matrix:
 Charge =  0 Multiplicity = 2

                          Input orientation:
 ---------------------------------------------------------------------
 Center     Atomic      Atomic             Coordinates (Angstroms)
 Number     Number       Type             X           Y           Z
 ---------------------------------------------------------------------
      1          1           0        0.000000    0.000000    0.000000
      2          1           0       -0.850000    0.000000    0.000000
      3          9           0        2.750000    0.000000    0.000000
 ---------------------------------------------------------------------

 SCF Done:  E(UB3LYP) =  -100.928523538     a.u. after   60 cycles

 Alpha  occ. eigenvalues --  -24.76804  -1.22591  -0.55774  -0.47111  -0.46922
 Alpha  occ. eigenvalues --   -0.40952
 Alpha virt. eigenvalues --    0.04300   0.20825   0.44173   0.85712   0.90581
 Alpha virt. eigenvalues --    0.93686   1.08298   1.08458   1.08469   1.49235
 Alpha virt. eigenvalues --    1.75799   1.75812   2.13684   2.39126   2.87839

  Beta  occ. eigenvalues --  -24.73640  -1.13500  -0.44045  -0.43750  -0.40842
  Beta virt. eigenvalues --   -0.26389   0.04355   0.20863   0.44282   0.92079
  Beta virt. eigenvalues --    0.95163   0.95587   1.08460   1.08468   1.11889
  Beta virt. eigenvalues --    1.49239   1.75798   1.75810   2.13702   2.39135

 Mulliken charges and spin densities:
               1          2
     1  H   -0.005697  -0.001310
     2  H   -0.006523  -0.000418
     3  F    0.012221   1.001728
 Sum of Mulliken charges =   0.00000   1.00000

 Dipole moment (field-independent basis, Debye):
    X=              0.1284    Y=             -0.0000    Z=              0.0000  Tot=              0.1284
 Quadrupole moment (field-independent basis, Debye-Ang):
   XX=             -6.0669   YY=             -6.2483   ZZ=             -7.0817
   XY=             -0.0000   XZ=             -0.0000   YZ=              0.1123

  Exact polarizability:      10.292      -0.000       2.465      -0.000       0.059       2.027
 Approx polarizability:      12.224      -0.000       2.652      -0.000       0.075       2.098

                      1                      2                      3
                      A                      A                      A
 Frequencies --     98.8237              1327.0664              1330.8800
 Red. masses --      1.1085                 1.0096                 1.0096
 Frc consts  --      0.0064                 1.0476                 1.0536
 IR Inten    --      0.5158                 0.0040                 0.0037

                      4
                      A
 Frequencies --   3136.8959
 Red. masses --      1.0078
 Frc consts  --      5.8430
 IR Inten    --      1.5254

 - Thermochemistry -
 -------------------
 Temperature   298.150 Kelvin.  Pressure   1.00000 Atm.
 Atom     1 has atomic number  1 and mass   1.00783

 Molecular mass:    21.01405 amu.
 Principal axes and moments of inertia in atomic units:
                           1         2         3
     Eigenvalues --     0.00000  66.90071  66.90071
           X            1.00000  -0.00000   0.00000
           Y            0.00000   1.00000   0.00000
           Z            0.00000   0.00000   1.00000
 This molecule is a prolate symmetric top.
 Rotational symmetry number  1.
 Rotational temperature (Kelvin)      1.29466
 Rotational constant (GHZ):          26.976413
 Zero-point vibrational energy      35252.0 (Joules/Mol)
                                    8.42542 (Kcal/Mol)
 Warning -- explicit consideration of   1 degrees of freedom as
           vibrations may cause significant error
 Vibrational temperatures:    142.19  1909.35  1914.84  4513.29
          (Kelvin)

 Zero-point correction=                           0.013427 (Hartree/Particle)
 Thermal correction to Energy=                    0.016544
 Thermal correction to Enthalpy=                  0.017488
 Thermal correction to Gibbs Free Energy=        -0.007583
 Sum of electronic and zero-point Energies=           -100.915097
 Sum of electronic and thermal Energies=              -100.911980
 Sum of electronic and thermal Enthalpies=            -100.911035
 Sum of electronic and thermal Free Energies=         -100.936107

                     E (Thermal)             CV                S
                      KCal/Mol        Cal/Mol-Kelvin    Cal/Mol-Kelvin
 Total                   10.382              7.187             52.768
 Electronic               0.000              0.000              1.377
 Translational            0.889              2.981             35.068
 Rotational               0.592              1.987             12.796
 Vibrational              8.900              2.219              3.526
 Vibration     1          0.604              1.950              3.477

 Normal termination of Gaussian 16 at Fri Aug 22 18:29:15 2025.
