 Gaussian 16, Revision C.01,
 Gaussian 16:  ES64L-G16RevC.01  3-Jul-2019

 -----------------------------------------
 # sp b3lyp/6-311g** Force nosymm scf=(qc)
 -----------------------------------------

 -------------------
 Title Card Required
 -------------------
 Symbolic Z-matrix:
 Charge =  0 Multiplicity = 2

                          Input orientation:
 ---------------------------------------------------------------------
 Center     Atomic      Atomic             Coordinates (Angstroms)
 Number     Number       Type             X           Y           Z
 ---------------------------------------------------------------------
      1          1           0        0.000000    0.000000    0.000000
      2          1           0       -1.900000    0.000000    0.000000
      3          9           0        2.750000    0.000000    0.000000
 ---------------------------------------------------------------------

 SCF Done:  E(UB3LYP) =  -100.783169036     a.u. after   21 cycles

 Alpha  occ. eigenvalues --  -24.73396  -1.19497  -0.52515  -0.44091  -0.44091
 Alpha  occ. eigenvalues --   -0.34377
 Alpha virt. eigenvalues --   -0.12241   0.25089   0.31452   0.90241   0.92685
 Alpha virt. eigenvalues --    0.92685   1.05120   1.14160   1.23502   1.23502
 Alpha virt. eigenvalues --    1.35758   1.35758   1.54153   2.12209   2.37461

  Beta  occ. eigenvalues --  -24.70426  -1.11003  -0.41122  -0.41122  -0.34426
  Beta virt. eigenvalues --   -0.24507  -0.11562   0.26241   0.31522   0.94122
  Beta virt. eigenvalues --    0.94122   0.98346   1.08351   1.15420   1.23454
  Beta virt. eigenvalues --    1.23454   1.36765   1.36765   1.54901   2.13313

 Mulliken charges and spin densities:
               1          2
     1  H    0.027888  -0.753092
     2  H    0.024190   0.812861
     3  F   -0.052078   0.940232
 Sum of Mulliken charges =   0.00000   1.00000

 Dipole moment (field-independent basis, Debye):
    X=             -0.9523    Y=              0.0000    Z=              0.0000  Tot=              0.9523
 Quadrupole moment (field-independent basis, Debye-Ang):
   XX=             -7.5678   YY=             -7.7035   ZZ=             -7.7035
   XY=             -0.0000   XZ=             -0.0000   YZ=             -0.0000

  Exact polarizability:      62.515      -0.000       2.005      -0.000       0.000       2.005
 Approx polarizability:      65.037      -0.000       1.938      -0.000       0.000       1.938

 ******    2 imaginary frequencies (negative Signs) ******

                      1                      2                      3
                      A                      A                      A
 Frequencies --  -1558.4371              -306.0481               648.2426
 Red. masses --      1.0082                 1.1081                 1.0141
 Frc consts  --      1.4426                 0.0612                 0.2511
 IR Inten    --     81.5087                41.6458                 0.2723

                      4
                      A
 Frequencies --    648.2426
 Red. masses --      1.0141
 Frc consts  --      0.2511
 IR Inten    --      0.2723

 - Thermochemistry -
 -------------------
 Temperature   298.150 Kelvin.  Pressure   1.00000 Atm.
 Atom     1 has atomic number  1 and mass   1.00783

 Molecular mass:    21.01405 amu.
 Principal axes and moments of inertia in atomic units:
                           1         2         3
     Eigenvalues --     0.00000  95.58511  95.58511
           X            1.00000  -0.00000   0.00000
           Y            0.00000   1.00000   0.00000
           Z            0.00000   0.00000   1.00000
 This molecule is a prolate symmetric top.
 Rotational symmetry number  1.
 Rotational temperature (Kelvin)      0.90614
 Rotational constant (GHZ):          18.880987
    2 imaginary frequencies ignored.
 Zero-point vibrational energy       7754.7 (Joules/Mol)
                                    1.85342 (Kcal/Mol)
 Vibrational temperatures:    932.68   932.68
          (Kelvin)

 Zero-point correction=                           0.002954 (Hartree/Particle)
 Thermal correction to Energy=                    0.005585
 Thermal correction to Enthalpy=                  0.006529
 Thermal correction to Gibbs Free Energy=        -0.017560
 Sum of electronic and zero-point Energies=           -100.780215
 Sum of electronic and thermal Energies=              -100.777584
 Sum of electronic and thermal Enthalpies=            -100.776640
 Sum of electronic and thermal Free Energies=         -100.800729

                     E (Thermal)             CV                S
                      KCal/Mol        Cal/Mol-Kelvin    Cal/Mol-Kelvin
 Total                    3.504              6.831             50.698
 Electronic               0.000              0.000              1.377
 Translational            0.889              2.981             35.068
 Rotational               0.592              1.987             13.505
 Vibrational              2.023              1.863              0.747

 Normal termination of Gaussian 16 at Fri Aug 22 18:33:29 2025.
