 Gaussian 16, Revision C.01,
 Gaussian 16:  ES64L-G16RevC.01  3-Jul-2019

 -----------------------------------------
 # sp b3lyp/6-311g** Force nosymm scf=(qc)
 -----------------------------------------

 -------------------
 Title Card Required
 -------------------
 Symbolic Z-matrix:
 Charge =  0 Multiplicity = 2

                          Input orientation:
 ---------------------------------------------------------------------
 Center     Atomic      Atomic             Coordinates (Angstroms)
 Number     Number       Type             X           Y           Z
 ---------------------------------------------------------------------
      1          1           0        0.000000    0.000000    0.000000
      2          1           0       -3.450000    0.000000    0.000000
      3          9           0        3.800000    0.000000    0.000000
 ---------------------------------------------------------------------

 SCF Done:  E(UB3LYP) =  -100.758805243     a.u. after   30 cycles

 Alpha  occ. eigenvalues --  -24.75754  -1.21690  -0.54878  -0.46076  -0.46076
 Alpha  occ. eigenvalues --   -0.32286
 Alpha virt. eigenvalues --   -0.06822   0.24411   0.37422   0.86857   0.91251
 Alpha virt. eigenvalues --    0.91251   1.01264   1.25219   1.25219   1.25399
 Alpha virt. eigenvalues --    1.45343   1.45579   1.45579   2.15149   2.41055

  Beta  occ. eigenvalues --  -24.72616  -1.12670  -0.42931  -0.42931  -0.32557
  Beta virt. eigenvalues --   -0.25670  -0.06532   0.24225   0.37886   0.92747
  Beta virt. eigenvalues --    0.92747   0.96161   1.05360   1.24920   1.24920
  Beta virt. eigenvalues --    1.25082   1.45805   1.46035   1.46035   2.15197

 Mulliken charges and spin densities:
               1          2
     1  H    0.004605  -0.992350
     2  H    0.000112   0.997576
     3  F   -0.004717   0.994774
 Sum of Mulliken charges =  -0.00000   1.00000

 Dipole moment (field-independent basis, Debye):
    X=             -0.0944    Y=             -0.0000    Z=             -0.0000  Tot=              0.0944
 Quadrupole moment (field-independent basis, Debye-Ang):
   XX=             -7.0385   YY=             -7.6243   ZZ=             -7.6243
   XY=             -0.0000   XZ=             -0.0000   YZ=              0.0000

  Exact polarizability:      15.604       0.000       2.018       0.000       0.000       2.018
 Approx polarizability:      11.541      -0.000       1.936      -0.000      -0.000       1.936

 ******    2 imaginary frequencies (negative Signs) ******

                      1                      2                      3
                      A                      A                      A
 Frequencies --   -214.3404               -85.5584                72.9339
 Red. masses --      1.0136                 1.1016                 1.0168
 Frc consts  --      0.0274                 0.0048                 0.0032
 IR Inten    --      2.4220                 0.9519                 0.0232

                      4
                      A
 Frequencies --     72.9340
 Red. masses --      1.0168
 Frc consts  --      0.0032
 IR Inten    --      0.0232

 - Thermochemistry -
 -------------------
 Temperature   298.150 Kelvin.  Pressure   1.00000 Atm.
 Atom     1 has atomic number  1 and mass   1.00783

 Molecular mass:    21.01405 amu.
 Principal axes and moments of inertia in atomic units:
                           1         2         3
     Eigenvalues --     0.00000 220.06683 220.06683
           X            1.00000  -0.00000   0.00000
           Y            0.00000   1.00000   0.00000
           Z            0.00000   0.00000   1.00000
 This molecule is a prolate symmetric top.
 Rotational symmetry number  1.
 Rotational temperature (Kelvin)      0.39358
 Rotational constant (GHZ):           8.200878
    2 imaginary frequencies ignored.
 Zero-point vibrational energy        872.5 (Joules/Mol)
                                    0.20853 (Kcal/Mol)
 Warning -- explicit consideration of   2 degrees of freedom as
           vibrations may cause significant error
 Vibrational temperatures:    104.94   104.94
          (Kelvin)

 Zero-point correction=                           0.000332 (Hartree/Particle)
 Thermal correction to Energy=                    0.004268
 Thermal correction to Enthalpy=                  0.005212
 Thermal correction to Gibbs Free Energy=        -0.023178
 Sum of electronic and zero-point Energies=           -100.758473
 Sum of electronic and thermal Energies=              -100.754537
 Sum of electronic and thermal Enthalpies=            -100.753593
 Sum of electronic and thermal Free Energies=         -100.781983

                     E (Thermal)             CV                S
                      KCal/Mol        Cal/Mol-Kelvin    Cal/Mol-Kelvin
 Total                    2.678              8.902             59.753
 Electronic               0.000              0.000              1.377
 Translational            0.889              2.981             35.068
 Rotational               0.592              1.987             15.163
 Vibrational              1.197              3.934              8.145
 Vibration     1          0.599              1.967              4.073
 Vibration     2          0.599              1.967              4.073

 Normal termination of Gaussian 16 at Sat Aug 23 00:52:12 2025.
