 Gaussian 16, Revision C.01,
 Gaussian 16:  ES64L-G16RevC.01  3-Jul-2019

 -----------------------------------------
 # sp b3lyp/6-311g** Force nosymm scf=(qc)
 -----------------------------------------

 -------------------
 Title Card Required
 -------------------
 Symbolic Z-matrix:
 Charge =  0 Multiplicity = 2

                          Input orientation:
 ---------------------------------------------------------------------
 Center     Atomic      Atomic             Coordinates (Angstroms)
 Number     Number       Type             X           Y           Z
 ---------------------------------------------------------------------
      1          1           0        0.000000    0.000000    0.000000
      2          1           0       -1.100000    0.000000    0.000000
      3          9           0        1.800000    0.000000    0.000000
 ---------------------------------------------------------------------

 SCF Done:  E(UB3LYP) =  -100.899174728     a.u. after   13 cycles

 Alpha  occ. eigenvalues --  -24.71241  -1.17689  -0.51806  -0.42461  -0.42461
 Alpha  occ. eigenvalues --   -0.40546
 Alpha virt. eigenvalues --   -0.01379   0.20994   0.34323   0.91453   0.91453
 Alpha virt. eigenvalues --    0.93135   1.08165   1.08392   1.08392   1.51375
 Alpha virt. eigenvalues --    1.57300   1.57300   2.16384   2.29635   2.55627

  Beta  occ. eigenvalues --  -24.68574  -1.10209  -0.40921  -0.39828  -0.39828
  Beta virt. eigenvalues --   -0.24444   0.00583   0.22185   0.35102   0.92537
  Beta virt. eigenvalues --    0.92537   0.99906   1.10272   1.10272   1.10887
  Beta virt. eigenvalues --    1.54730   1.58448   1.58448   2.18465   2.31777

 Mulliken charges and spin densities:
               1          2
     1  H    0.074306  -0.110025
     2  H    0.054381   0.279575
     3  F   -0.128687   0.830450
 Sum of Mulliken charges =  -0.00000   1.00000

 Dipole moment (field-independent basis, Debye):
    X=             -1.4009    Y=             -0.0000    Z=             -0.0000  Tot=              1.4009
 Quadrupole moment (field-independent basis, Debye-Ang):
   XX=             -7.0494   YY=             -7.2317   ZZ=             -7.2317
   XY=             -0.0000   XZ=             -0.0000   YZ=             -0.0000

  Exact polarizability:      35.357      -0.000       2.240      -0.000      -0.000       2.240
 Approx polarizability:      51.182       0.000       2.236       0.000       0.000       2.236

 ******    1 imaginary frequencies (negative Signs) ******

                      1                      2                      3
                      A                      A                      A
 Frequencies --  -1355.8675               548.4321              1386.7141
 Red. masses --      1.0362                 1.0761                 1.0131
 Frc consts  --      1.1224                 0.1907                 1.1478
 IR Inten    --   1016.2143                82.6685                 0.5252

                      4
                      A
 Frequencies --   1386.7141
 Red. masses --      1.0131
 Frc consts  --      1.1478
 IR Inten    --      0.5252

 - Thermochemistry -
 -------------------
 Temperature   298.150 Kelvin.  Pressure   1.00000 Atm.
 Atom     1 has atomic number  1 and mass   1.00783

 Molecular mass:    21.01405 amu.
 Principal axes and moments of inertia in atomic units:
                           1         2         3
     Eigenvalues --     0.00000  38.11556  38.11556
           X            1.00000  -0.00000   0.00000
           Y            0.00000   1.00000   0.00000
           Z            0.00000   0.00000   1.00000
 This molecule is a prolate symmetric top.
 Rotational symmetry number  1.
 Rotational temperature (Kelvin)      2.27240
 Rotational constant (GHZ):          47.349195
    1 imaginary frequencies ignored.
 Zero-point vibrational energy      19869.1 (Joules/Mol)
                                    4.74884 (Kcal/Mol)
 Warning -- explicit consideration of   1 degrees of freedom as
           vibrations may cause significant error
 Vibrational temperatures:    789.07  1995.17  1995.17
          (Kelvin)

 Zero-point correction=                           0.007568 (Hartree/Particle)
 Thermal correction to Energy=                    0.010135
 Thermal correction to Enthalpy=                  0.011079
 Thermal correction to Gibbs Free Energy=        -0.012065
 Sum of electronic and zero-point Energies=           -100.891607
 Sum of electronic and thermal Energies=              -100.889040
 Sum of electronic and thermal Enthalpies=            -100.888096
 Sum of electronic and thermal Free Energies=         -100.911239

                     E (Thermal)             CV                S
                      KCal/Mol        Cal/Mol-Kelvin    Cal/Mol-Kelvin
 Total                    6.360              6.333             48.709
 Electronic               0.000              0.000              1.377
 Translational            0.889              2.981             35.068
 Rotational               0.592              1.987             11.678
 Vibrational              4.878              1.365              0.585
 Vibration     1          0.904              1.143              0.547

 Normal termination of Gaussian 16 at Fri Aug 22 16:42:39 2025.
