 Gaussian 16, Revision C.01,
 Gaussian 16:  ES64L-G16RevC.01  3-Jul-2019

 -----------------------------------------
 # sp b3lyp/6-311g** Force nosymm scf=(qc)
 -----------------------------------------

 -------------------
 Title Card Required
 -------------------
 Symbolic Z-matrix:
 Charge =  0 Multiplicity = 2

                          Input orientation:
 ---------------------------------------------------------------------
 Center     Atomic      Atomic             Coordinates (Angstroms)
 Number     Number       Type             X           Y           Z
 ---------------------------------------------------------------------
      1          1           0        0.000000    0.000000    0.000000
      2          1           0       -1.650000    0.000000    0.000000
      3          9           0        2.150000    0.000000    0.000000
 ---------------------------------------------------------------------

 SCF Done:  E(UB3LYP) =  -100.813995519     a.u. after   12 cycles

 Alpha  occ. eigenvalues --  -24.70224  -1.16525  -0.49455  -0.41446  -0.41446
 Alpha  occ. eigenvalues --   -0.36894
 Alpha virt. eigenvalues --   -0.12081   0.23295   0.31126   0.85610   0.94114
 Alpha virt. eigenvalues --    0.94114   1.02813   1.19460   1.19460   1.23718
 Alpha virt. eigenvalues --    1.35760   1.35760   1.70462   2.15552   2.40176

  Beta  occ. eigenvalues --  -24.67565  -1.09014  -0.38808  -0.38808  -0.36560
  Beta virt. eigenvalues --   -0.23264  -0.10913   0.25584   0.30614   0.89646
  Beta virt. eigenvalues --    0.95253   0.95253   1.06835   1.20915   1.20915
  Beta virt. eigenvalues --    1.28370   1.36520   1.36520   1.71277   2.16420

 Mulliken charges and spin densities:
               1          2
     1  H    0.075994  -0.497775
     2  H    0.054715   0.660652
     3  F   -0.130709   0.837122
 Sum of Mulliken charges =  -0.00000   1.00000

 Dipole moment (field-independent basis, Debye):
    X=             -1.8415    Y=             -0.0000    Z=              0.0000  Tot=              1.8415
 Quadrupole moment (field-independent basis, Debye-Ang):
   XX=             -7.8731   YY=             -7.5997   ZZ=             -7.5997
   XY=             -0.0000   XZ=              0.0000   YZ=              0.0000

  Exact polarizability:      57.051      -0.000       2.062       0.000      -0.000       2.062
 Approx polarizability:      79.337       0.000       2.004      -0.000      -0.000       2.004

 ******    2 imaginary frequencies (negative Signs) ******

                      1                      2                      3
                      A                      A                      A
 Frequencies --  -2019.3312              -486.1089               920.4351
 Red. masses --      1.0103                 1.1056                 1.0151
 Frc consts  --      2.4272                 0.1539                 0.5067
 IR Inten    --    409.1305                37.8513                 1.8902

                      4
                      A
 Frequencies --    920.4351
 Red. masses --      1.0151
 Frc consts  --      0.5067
 IR Inten    --      1.8902

 - Thermochemistry -
 -------------------
 Temperature   298.150 Kelvin.  Pressure   1.00000 Atm.
 Atom     1 has atomic number  1 and mass   1.00783

 Molecular mass:    21.01405 amu.
 Principal axes and moments of inertia in atomic units:
                           1         2         3
     Eigenvalues --     0.00000  62.49538  62.49538
           X            1.00000  -0.00000   0.00000
           Y            0.00000   1.00000   0.00000
           Z            0.00000   0.00000   1.00000
 This molecule is a prolate symmetric top.
 Rotational symmetry number  1.
 Rotational temperature (Kelvin)      1.38593
 Rotational constant (GHZ):          28.877992
    2 imaginary frequencies ignored.
 Zero-point vibrational energy      11010.8 (Joules/Mol)
                                    2.63166 (Kcal/Mol)
 Vibrational temperatures:   1324.30  1324.30
          (Kelvin)

 Zero-point correction=                           0.004194 (Hartree/Particle)
 Thermal correction to Energy=                    0.006654
 Thermal correction to Enthalpy=                  0.007598
 Thermal correction to Gibbs Free Energy=        -0.015856
 Sum of electronic and zero-point Energies=           -100.809802
 Sum of electronic and thermal Energies=              -100.807341
 Sum of electronic and thermal Enthalpies=            -100.806397
 Sum of electronic and thermal Free Energies=         -100.829851

                     E (Thermal)             CV                S
                      KCal/Mol        Cal/Mol-Kelvin    Cal/Mol-Kelvin
 Total                    4.176              5.913             49.364
 Electronic               0.000              0.000              1.377
 Translational            0.889              2.981             35.068
 Rotational               0.592              1.987             12.661
 Vibrational              2.694              0.945              0.257

 Normal termination of Gaussian 16 at Fri Aug 22 17:07:20 2025.
