 Gaussian 16, Revision C.01,
 Gaussian 16:  ES64L-G16RevC.01  3-Jul-2019

 -----------------------------------------
 # sp b3lyp/6-311g** Force nosymm scf=(qc)
 -----------------------------------------

 -------------------
 Title Card Required
 -------------------
 Symbolic Z-matrix:
 Charge =  0 Multiplicity = 2

                          Input orientation:
 ---------------------------------------------------------------------
 Center     Atomic      Atomic             Coordinates (Angstroms)
 Number     Number       Type             X           Y           Z
 ---------------------------------------------------------------------
      1          1           0        0.000000    0.000000    0.000000
      2          1           0       -1.500000    0.000000    0.000000
      3          9           0        3.400000    0.000000    0.000000
 ---------------------------------------------------------------------

 SCF Done:  E(UB3LYP) =  -100.820351304     a.u. after  152 cycles

 Alpha  occ. eigenvalues --  -24.76440  -1.22308  -0.55506  -0.46707  -0.46660
 Alpha  occ. eigenvalues --   -0.33546
 Alpha virt. eigenvalues --   -0.09771   0.24973   0.30402   0.85898   0.90774
 Alpha virt. eigenvalues --    0.92217   1.01469   1.07605   1.20391   1.20394
 Alpha virt. eigenvalues --    1.41501   1.41504   1.82085   2.22425   2.46683

  Beta  occ. eigenvalues --  -24.73283  -1.13231  -0.43546  -0.43495  -0.33542
  Beta virt. eigenvalues --   -0.26146  -0.09776   0.24981   0.30451   0.92275
  Beta virt. eigenvalues --    0.93717   0.95363   1.05533   1.07624   1.20386
  Beta virt. eigenvalues --    1.20390   1.41498   1.41501   1.82112   2.22489

 Mulliken charges and spin densities:
               1          2
     1  H    0.000421  -0.117299
     2  H   -0.003773   0.116961
     3  F    0.003353   1.000338
 Sum of Mulliken charges =  -0.00000   1.00000

 Dipole moment (field-independent basis, Debye):
    X=              0.0598    Y=              0.0000    Z=             -0.0000  Tot=              0.0598
 Quadrupole moment (field-independent basis, Debye-Ang):
   XX=             -6.2384   YY=             -7.3291   ZZ=             -7.3311
   XY=              0.0000   XZ=             -0.0000   YZ=             -0.4321

  Exact polarizability:      22.882       0.000       2.273      -0.000      -0.232       2.272
 Approx polarizability:      43.350       0.000       2.328      -0.000      -0.291       2.327

 ******    2 imaginary frequencies (negative Signs) ******

                      1                      2                      3
                      A                      A                      A
 Frequencies --  -2214.7149               -32.3288              1219.1990
 Red. masses --      1.0078                 1.1085                 1.0110
 Frc consts  --      2.9125                 0.0007                 0.8854
 IR Inten    --      0.0656                 0.2384                 0.0030

                      4
                      A
 Frequencies --   1219.2326
 Red. masses --      1.0110
 Frc consts  --      0.8855
 IR Inten    --      0.0027

 - Thermochemistry -
 -------------------
 Temperature   298.150 Kelvin.  Pressure   1.00000 Atm.
 Atom     1 has atomic number  1 and mass   1.00783

 Molecular mass:    21.01405 amu.
 Principal axes and moments of inertia in atomic units:
                           1         2         3
     Eigenvalues --     0.00000 116.12584 116.12584
           X            1.00000  -0.00000   0.00000
           Y            0.00000   1.00000   0.00000
           Z            0.00000   0.00000   1.00000
 This molecule is a prolate symmetric top.
 Rotational symmetry number  1.
 Rotational temperature (Kelvin)      0.74586
 Rotational constant (GHZ):          15.541254
    2 imaginary frequencies ignored.
 Zero-point vibrational energy      14585.1 (Joules/Mol)
                                    3.48591 (Kcal/Mol)
 Vibrational temperatures:   1754.16  1754.20
          (Kelvin)

 Zero-point correction=                           0.005555 (Hartree/Particle)
 Thermal correction to Energy=                    0.007947
 Thermal correction to Enthalpy=                  0.008891
 Thermal correction to Gibbs Free Energy=        -0.015062
 Sum of electronic and zero-point Energies=           -100.814796
 Sum of electronic and thermal Energies=              -100.812405
 Sum of electronic and thermal Enthalpies=            -100.811460
 Sum of electronic and thermal Free Energies=         -100.835414

                     E (Thermal)             CV                S
                      KCal/Mol        Cal/Mol-Kelvin    Cal/Mol-Kelvin
 Total                    4.987              5.353             50.414
 Electronic               0.000              0.000              1.377
 Translational            0.889              2.981             35.068
 Rotational               0.592              1.987             13.892
 Vibrational              3.505              0.385              0.076

 Normal termination of Gaussian 16 at Fri Aug 22 21:14:21 2025.
