 Gaussian 16, Revision C.01,
 Gaussian 16:  ES64L-G16RevC.01  3-Jul-2019

 -----------------------------------------
 # sp b3lyp/6-311g** Force nosymm scf=(qc)
 -----------------------------------------

 -------------------
 Title Card Required
 -------------------
 Symbolic Z-matrix:
 Charge =  0 Multiplicity = 2

                          Input orientation:
 ---------------------------------------------------------------------
 Center     Atomic      Atomic             Coordinates (Angstroms)
 Number     Number       Type             X           Y           Z
 ---------------------------------------------------------------------
      1          1           0        0.000000    0.000000    0.000000
      2          1           0       -3.550000    0.000000    0.000000
      3          9           0        3.850000    0.000000    0.000000
 ---------------------------------------------------------------------

 SCF Done:  E(UB3LYP) =  -100.758678006     a.u. after   36 cycles

 Alpha  occ. eigenvalues --  -24.75791  -1.21725  -0.54916  -0.46108  -0.46108
 Alpha  occ. eigenvalues --   -0.32269
 Alpha virt. eigenvalues --   -0.06627   0.24331   0.37602   0.86769   0.91227
 Alpha virt. eigenvalues --    0.91227   1.01208   1.25233   1.25233   1.25359
 Alpha virt. eigenvalues --    1.45592   1.45820   1.45820   2.15018   2.41351

  Beta  occ. eigenvalues --  -24.72652  -1.12697  -0.42960  -0.42960  -0.32519
  Beta virt. eigenvalues --   -0.25687  -0.06366   0.24152   0.38018   0.92724
  Beta virt. eigenvalues --    0.92724   0.96097   1.05314   1.24959   1.24959
  Beta virt. eigenvalues --    1.25069   1.46010   1.46228   1.46228   2.15039

 Mulliken charges and spin densities:
               1          2
     1  H    0.003940  -0.993651
     2  H    0.000078   0.998106
     3  F   -0.004018   0.995545
 Sum of Mulliken charges =  -0.00000   1.00000

 Dipole moment (field-independent basis, Debye):
    X=             -0.0813    Y=             -0.0000    Z=             -0.0000  Tot=              0.0813
 Quadrupole moment (field-independent basis, Debye-Ang):
   XX=             -7.0048   YY=             -7.6229   ZZ=             -7.6229
   XY=              0.0000   XZ=              0.0000   YZ=              0.0000

  Exact polarizability:      14.052      -0.000       2.030       0.000       0.000       2.030
 Approx polarizability:      10.384       0.000       1.936       0.000      -0.000       1.936

 ******    2 imaginary frequencies (negative Signs) ******

                      1                      2                      3
                      A                      A                      A
 Frequencies --   -192.2657               -77.9459                63.8418
 Red. masses --      1.0143                 1.1007                 1.0170
 Frc consts  --      0.0221                 0.0039                 0.0024
 IR Inten    --      1.9359                 0.7050                 0.0153

                      4
                      A
 Frequencies --     63.8418
 Red. masses --      1.0170
 Frc consts  --      0.0024
 IR Inten    --      0.0153

 - Thermochemistry -
 -------------------
 Temperature   298.150 Kelvin.  Pressure   1.00000 Atm.
 Atom     1 has atomic number  1 and mass   1.00783

 Molecular mass:    21.01405 amu.
 Principal axes and moments of inertia in atomic units:
                           1         2         3
     Eigenvalues --     0.00000 228.58245 228.58245
           X            1.00000  -0.00000   0.00000
           Y            0.00000   1.00000   0.00000
           Z            0.00000   0.00000   1.00000
 This molecule is a prolate symmetric top.
 Rotational symmetry number  1.
 Rotational temperature (Kelvin)      0.37892
 Rotational constant (GHZ):           7.895362
    2 imaginary frequencies ignored.
 Zero-point vibrational energy        763.7 (Joules/Mol)
                                    0.18253 (Kcal/Mol)
 Warning -- explicit consideration of   2 degrees of freedom as
           vibrations may cause significant error
 Vibrational temperatures:     91.85    91.85
          (Kelvin)

 Zero-point correction=                           0.000291 (Hartree/Particle)
 Thermal correction to Energy=                    0.004264
 Thermal correction to Enthalpy=                  0.005208
 Thermal correction to Gibbs Free Energy=        -0.023468
 Sum of electronic and zero-point Energies=           -100.758387
 Sum of electronic and thermal Energies=              -100.754414
 Sum of electronic and thermal Enthalpies=            -100.753470
 Sum of electronic and thermal Free Energies=         -100.782146

                     E (Thermal)             CV                S
                      KCal/Mol        Cal/Mol-Kelvin    Cal/Mol-Kelvin
 Total                    2.676              8.911             60.353
 Electronic               0.000              0.000              1.377
 Translational            0.889              2.981             35.068
 Rotational               0.592              1.987             15.238
 Vibrational              1.194              3.943              8.670
 Vibration     1          0.597              1.972              4.335
 Vibration     2          0.597              1.972              4.335

 Normal termination of Gaussian 16 at Sat Aug 23 01:11:07 2025.
