 Gaussian 16, Revision C.01,
 Gaussian 16:  ES64L-G16RevC.01  3-Jul-2019

 -----------------------------------------
 # sp b3lyp/6-311g** Force nosymm scf=(qc)
 -----------------------------------------

 -------------------
 Title Card Required
 -------------------
 Symbolic Z-matrix:
 Charge =  0 Multiplicity = 2

                          Input orientation:
 ---------------------------------------------------------------------
 Center     Atomic      Atomic             Coordinates (Angstroms)
 Number     Number       Type             X           Y           Z
 ---------------------------------------------------------------------
      1          1           0        0.000000    0.000000    0.000000
      2          1           0       -1.900000    0.000000    0.000000
      3          9           0        3.700000    0.000000    0.000000
 ---------------------------------------------------------------------

 SCF Done:  E(UB3LYP) =  -100.779417142     a.u. after   62 cycles

 Alpha  occ. eigenvalues --  -24.76079  -1.21986  -0.55187  -0.46367  -0.46355
 Alpha  occ. eigenvalues --   -0.32889
 Alpha virt. eigenvalues --   -0.10733   0.26022   0.32061   0.86348   0.91024
 Alpha virt. eigenvalues --    0.91494   1.01128   1.13582   1.25044   1.25044
 Alpha virt. eigenvalues --    1.37851   1.37853   1.56017   2.13847   2.37892

  Beta  occ. eigenvalues --  -24.72930  -1.12933  -0.43216  -0.43198  -0.32880
  Beta virt. eigenvalues --   -0.25888  -0.10733   0.25970   0.32192   0.92524
  Beta virt. eigenvalues --    0.92911   0.95804   1.05239   1.13570   1.25039
  Beta virt. eigenvalues --    1.25041   1.37880   1.37880   1.56063   2.14158

 Mulliken charges and spin densities:
               1          2
     1  H    0.000285  -0.797865
     2  H    0.000327   0.799695
     3  F   -0.000612   0.998170
 Sum of Mulliken charges =   0.00000   1.00000

 Dipole moment (field-independent basis, Debye):
    X=             -0.0211    Y=              0.0001    Z=              0.0008  Tot=              0.0212
 Quadrupole moment (field-independent basis, Debye-Ang):
   XX=             -6.6963   YY=             -7.7326   ZZ=             -7.1585
   XY=              0.0580   XZ=              0.3937   YZ=              0.0864

  Exact polarizability:      29.197      -0.058       2.016       0.197       0.047       2.327
 Approx polarizability:      31.905       0.036       1.957       0.241       0.058       2.344

 ******    2 imaginary frequencies (negative Signs) ******

                      1                      2                      3
                      A                      A                      A
 Frequencies --  -1539.0373               -71.1928               655.5450
 Red. masses --      1.0078                 1.1085                 1.0119
 Frc consts  --      1.4065                 0.0033                 0.2562
 IR Inten    --      1.0781                 0.2526                 0.0051

                      4
                      A
 Frequencies --    655.7726
 Red. masses --      1.0119
 Frc consts  --      0.2564
 IR Inten    --      0.0652

 - Thermochemistry -
 -------------------
 Temperature   298.150 Kelvin.  Pressure   1.00000 Atm.
 Atom     1 has atomic number  1 and mass   1.00783

 Molecular mass:    21.01405 amu.
 Principal axes and moments of inertia in atomic units:
                           1         2         3
     Eigenvalues --     0.00000 147.20656 147.20656
           X            1.00000  -0.00000   0.00000
           Y            0.00000   1.00000   0.00000
           Z            0.00000   0.00000   1.00000
 This molecule is a prolate symmetric top.
 Rotational symmetry number  1.
 Rotational temperature (Kelvin)      0.58838
 Rotational constant (GHZ):          12.259924
    2 imaginary frequencies ignored.
 Zero-point vibrational energy       7843.4 (Joules/Mol)
                                    1.87462 (Kcal/Mol)
 Vibrational temperatures:    943.18   943.51
          (Kelvin)

 Zero-point correction=                           0.002987 (Hartree/Particle)
 Thermal correction to Energy=                    0.005611
 Thermal correction to Enthalpy=                  0.006556
 Thermal correction to Gibbs Free Energy=        -0.017930
 Sum of electronic and zero-point Energies=           -100.776430
 Sum of electronic and thermal Energies=              -100.773806
 Sum of electronic and thermal Enthalpies=            -100.772861
 Sum of electronic and thermal Free Energies=         -100.797348

                     E (Thermal)             CV                S
                      KCal/Mol        Cal/Mol-Kelvin    Cal/Mol-Kelvin
 Total                    3.521              6.801             51.535
 Electronic               0.000              0.000              1.377
 Translational            0.889              2.981             35.068
 Rotational               0.592              1.987             14.363
 Vibrational              2.040              1.833              0.726

 Normal termination of Gaussian 16 at Sat Aug 23 00:01:56 2025.
