 Gaussian 16, Revision C.01,
 Gaussian 16:  ES64L-G16RevC.01  3-Jul-2019

 -----------------------------------------
 # sp b3lyp/6-311g** Force nosymm scf=(qc)
 -----------------------------------------

 -------------------
 Title Card Required
 -------------------
 Symbolic Z-matrix:
 Charge =  0 Multiplicity = 2

                          Input orientation:
 ---------------------------------------------------------------------
 Center     Atomic      Atomic             Coordinates (Angstroms)
 Number     Number       Type             X           Y           Z
 ---------------------------------------------------------------------
      1          1           0        0.000000    0.000000    0.000000
      2          1           0       -3.800000    0.000000    0.000000
      3          9           0        2.300000    0.000000    0.000000
 ---------------------------------------------------------------------

 SCF Done:  E(UB3LYP) =  -100.772414358     a.u. after   17 cycles

 Alpha  occ. eigenvalues --  -24.67722  -1.09046  -0.38926  -0.38926  -0.36266
 Alpha  occ. eigenvalues --   -0.32901
 Alpha virt. eigenvalues --   -0.22447   0.20857   0.27621   0.92766   0.95463
 Alpha virt. eigenvalues --    0.95463   1.08234   1.21600   1.21600   1.24569
 Alpha virt. eigenvalues --    1.24569   1.24572   1.37193   2.10257   2.15989

  Beta  occ. eigenvalues --  -24.70431  -1.16716  -0.49508  -0.41617  -0.41617
  Beta virt. eigenvalues --   -0.11794  -0.04453   0.31692   0.40220   0.88734
  Beta virt. eigenvalues --    0.94247   0.94247   1.06141   1.38604   1.38604
  Beta virt. eigenvalues --    1.48055   1.48150   1.48150   1.48777   2.33505

 Mulliken charges and spin densities:
               1          2
     1  H    0.124365   0.854621
     2  H    0.000465   0.999544
     3  F   -0.124830  -0.854166
 Sum of Mulliken charges =  -0.00000   1.00000

 Dipole moment (field-independent basis, Debye):
    X=             -1.4550    Y=              0.0000    Z=             -0.0000  Tot=              1.4550
 Quadrupole moment (field-independent basis, Debye-Ang):
   XX=             -9.7271   YY=             -7.5342   ZZ=             -7.5342
   XY=             -0.0000   XZ=              0.0000   YZ=             -0.0000

  Exact polarizability:      28.593      -0.000       2.035      -0.000       0.000       2.035
 Approx polarizability:      39.009       0.000       1.925      -0.000      -0.000       1.925

 ******    1 imaginary frequencies (negative Signs) ******

                      1                      2                      3
                      A                      A                      A
 Frequencies --   -756.8191                55.5792               312.2242
 Red. masses --      1.0591                 1.0525                 1.0250
 Frc consts  --      0.3574                 0.0019                 0.0589
 IR Inten    --     94.7803                 0.0330                14.9623

                      4
                      A
 Frequencies --    312.2242
 Red. masses --      1.0250
 Frc consts  --      0.0589
 IR Inten    --     14.9623

 - Thermochemistry -
 -------------------
 Temperature   298.150 Kelvin.  Pressure   1.00000 Atm.
 Atom     1 has atomic number  1 and mass   1.00783

 Molecular mass:    21.01405 amu.
 Principal axes and moments of inertia in atomic units:
                           1         2         3
     Eigenvalues --     0.00000 140.77872 140.77872
           X            1.00000  -0.00000   0.00000
           Y            0.00000   1.00000   0.00000
           Z            0.00000   0.00000   1.00000
 This molecule is a prolate symmetric top.
 Rotational symmetry number  1.
 Rotational temperature (Kelvin)      0.61525
 Rotational constant (GHZ):          12.819702
    1 imaginary frequencies ignored.
 Zero-point vibrational energy       4067.5 (Joules/Mol)
                                    0.97215 (Kcal/Mol)
 Warning -- explicit consideration of   3 degrees of freedom as
           vibrations may cause significant error
 Vibrational temperatures:     79.97   449.22   449.22
          (Kelvin)

 Zero-point correction=                           0.001549 (Hartree/Particle)
 Thermal correction to Energy=                    0.005543
 Thermal correction to Enthalpy=                  0.006487
 Thermal correction to Gibbs Free Energy=        -0.021084
 Sum of electronic and zero-point Energies=           -100.770865
 Sum of electronic and thermal Energies=              -100.766871
 Sum of electronic and thermal Enthalpies=            -100.765927
 Sum of electronic and thermal Free Energies=         -100.793499

                     E (Thermal)             CV                S
                      KCal/Mol        Cal/Mol-Kelvin    Cal/Mol-Kelvin
 Total                    3.478             10.244             58.030
 Electronic               0.000              0.000              1.377
 Translational            0.889              2.981             35.068
 Rotational               0.592              1.987             14.275
 Vibrational              1.997              5.276              7.309
 Vibration     1          0.596              1.975              4.608
 Vibration     2          0.701              1.650              1.351
 Vibration     3          0.701              1.650              1.351

 Normal termination of Gaussian 16 at Fri Aug 22 17:23:29 2025.
