 Gaussian 16, Revision C.01,
 Gaussian 16:  ES64L-G16RevC.01  3-Jul-2019

 -----------------------------------------
 # sp b3lyp/6-311g** Force nosymm scf=(qc)
 -----------------------------------------

 -------------------
 Title Card Required
 -------------------
 Symbolic Z-matrix:
 Charge =  0 Multiplicity = 2

                          Input orientation:
 ---------------------------------------------------------------------
 Center     Atomic      Atomic             Coordinates (Angstroms)
 Number     Number       Type             X           Y           Z
 ---------------------------------------------------------------------
      1          1           0        0.000000    0.000000    0.000000
      2          1           0       -3.600000    0.000000    0.000000
      3          9           0        2.000000    0.000000    0.000000
 ---------------------------------------------------------------------

 SCF Done:  E(UB3LYP) =  -100.787213192     a.u. after   17 cycles

 Alpha  occ. eigenvalues --  -24.68246  -1.14564  -0.47225  -0.39777  -0.39777
 Alpha  occ. eigenvalues --   -0.33372
 Alpha virt. eigenvalues --   -0.13730   0.22327   0.31851   0.88902   0.94843
 Alpha virt. eigenvalues --    0.94843   1.05672   1.24139   1.24139   1.24201
 Alpha virt. eigenvalues --    1.35444   1.35444   1.60458   2.13876   2.29563

  Beta  occ. eigenvalues --  -24.65874  -1.07935  -0.37942  -0.37439  -0.37439
  Beta virt. eigenvalues --   -0.20750  -0.06812   0.22523   0.37952   0.90257
  Beta virt. eigenvalues --    0.95478   0.95478   1.08113   1.21953   1.21953
  Beta virt. eigenvalues --    1.45620   1.46046   1.46046   1.53408   2.11775

 Mulliken charges and spin densities:
               1          2
     1  H    0.192438  -0.744121
     2  H    0.001258   0.998175
     3  F   -0.193696   0.745946
 Sum of Mulliken charges =   0.00000   1.00000

 Dipole moment (field-independent basis, Debye):
    X=             -1.9358    Y=             -0.0000    Z=             -0.0000  Tot=              1.9358
 Quadrupole moment (field-independent basis, Debye-Ang):
   XX=            -10.0450   YY=             -7.4883   ZZ=             -7.4883
   XY=             -0.0000   XZ=             -0.0000   YZ=             -0.0000

  Exact polarizability:      25.632      -0.000       2.061       0.000      -0.000       2.061
 Approx polarizability:      37.142      -0.000       1.947      -0.000      -0.000       1.947

 ******    2 imaginary frequencies (negative Signs) ******

                      1                      2                      3
                      A                      A                      A
 Frequencies --  -1130.2511              -106.6419               480.2288
 Red. masses --      1.0573                 1.0542                 1.0264
 Frc consts  --      0.7958                 0.0071                 0.1395
 IR Inten    --    121.8046                 0.1760                34.8551

                      4
                      A
 Frequencies --    480.2288
 Red. masses --      1.0264
 Frc consts  --      0.1395
 IR Inten    --     34.8551

 - Thermochemistry -
 -------------------
 Temperature   298.150 Kelvin.  Pressure   1.00000 Atm.
 Atom     1 has atomic number  1 and mass   1.00783

 Molecular mass:    21.01405 amu.
 Principal axes and moments of inertia in atomic units:
                           1         2         3
     Eigenvalues --     0.00000 117.29117 117.29117
           X            1.00000  -0.00000   0.00000
           Y            0.00000   1.00000   0.00000
           Z            0.00000   0.00000   1.00000
 This molecule is a prolate symmetric top.
 Rotational symmetry number  1.
 Rotational temperature (Kelvin)      0.73845
 Rotational constant (GHZ):          15.386847
    2 imaginary frequencies ignored.
 Zero-point vibrational energy       5744.8 (Joules/Mol)
                                    1.37304 (Kcal/Mol)
 Warning -- explicit consideration of   2 degrees of freedom as
           vibrations may cause significant error
 Vibrational temperatures:    690.94   690.94
          (Kelvin)

 Zero-point correction=                           0.002188 (Hartree/Particle)
 Thermal correction to Energy=                    0.005027
 Thermal correction to Enthalpy=                  0.005971
 Thermal correction to Gibbs Free Energy=        -0.018630
 Sum of electronic and zero-point Energies=           -100.785025
 Sum of electronic and thermal Energies=              -100.782186
 Sum of electronic and thermal Enthalpies=            -100.781242
 Sum of electronic and thermal Free Energies=         -100.805843

                     E (Thermal)             CV                S
                      KCal/Mol        Cal/Mol-Kelvin    Cal/Mol-Kelvin
 Total                    3.154              7.556             51.776
 Electronic               0.000              0.000              1.377
 Translational            0.889              2.981             35.068
 Rotational               0.592              1.987             13.912
 Vibrational              1.673              2.588              1.419
 Vibration     1          0.837              1.294              0.709
 Vibration     2          0.837              1.294              0.709

 Normal termination of Gaussian 16 at Fri Aug 22 16:57:53 2025.
