 Gaussian 16, Revision C.01,
 Gaussian 16:  ES64L-G16RevC.01  3-Jul-2019

 -----------------------------------------
 # sp b3lyp/6-311g** Force nosymm scf=(qc)
 -----------------------------------------

 -------------------
 Title Card Required
 -------------------
 Symbolic Z-matrix:
 Charge =  0 Multiplicity = 2

                          Input orientation:
 ---------------------------------------------------------------------
 Center     Atomic      Atomic             Coordinates (Angstroms)
 Number     Number       Type             X           Y           Z
 ---------------------------------------------------------------------
      1          1           0        0.000000    0.000000    0.000000
      2          1           0       -0.800000    0.000000    0.000000
      3          9           0        2.650000    0.000000    0.000000
 ---------------------------------------------------------------------

 SCF Done:  E(UB3LYP) =  -100.932716226     a.u. after  170 cycles

 Alpha  occ. eigenvalues --  -24.76860  -1.22640  -0.55819  -0.47221  -0.46966
 Alpha  occ. eigenvalues --   -0.41767
 Alpha virt. eigenvalues --    0.05547   0.20635   0.46115   0.85670   0.90537
 Alpha virt. eigenvalues --    0.93564   1.08558   1.08573   1.09871   1.52549
 Alpha virt. eigenvalues --    1.79223   1.79238   2.06287   2.39579   3.05646

  Beta  occ. eigenvalues --  -24.73696  -1.13547  -0.44259  -0.43793  -0.41553
  Beta virt. eigenvalues --   -0.26431   0.05616   0.20681   0.46226   0.92033
  Beta virt. eigenvalues --    0.95115   0.95485   1.08564   1.08572   1.13432
  Beta virt. eigenvalues --    1.52552   1.79222   1.79236   2.06302   2.39588

 Mulliken charges and spin densities:
               1          2
     1  H   -0.006775  -0.001575
     2  H   -0.006902  -0.000416
     3  F    0.013677   1.001991
 Sum of Mulliken charges =   0.00000   1.00000

 Dipole moment (field-independent basis, Debye):
    X=              0.1403    Y=              0.0000    Z=              0.0000  Tot=              0.1403
 Quadrupole moment (field-independent basis, Debye-Ang):
   XX=             -6.0463   YY=             -7.0221   ZZ=             -6.1773
   XY=             -0.0000   XZ=              0.0000   YZ=             -0.0883

  Exact polarizability:       9.587       0.000       2.007       0.000      -0.046       2.447
 Approx polarizability:      11.100      -0.000       2.082       0.000      -0.058       2.640

                      1                      2                      3
                      A                      A                      A
 Frequencies --    141.1334              1075.8036              1083.3546
 Red. masses --      1.1085                 1.0095                 1.0095
 Frc consts  --      0.0130                 0.6884                 0.6981
 IR Inten    --      0.5807                 0.0080                 0.0087

                      4
                      A
 Frequencies --   3696.1758
 Red. masses --      1.0078
 Frc consts  --      8.1122
 IR Inten    --      2.1499

 - Thermochemistry -
 -------------------
 Temperature   298.150 Kelvin.  Pressure   1.00000 Atm.
 Atom     1 has atomic number  1 and mass   1.00783

 Molecular mass:    21.01405 amu.
 Principal axes and moments of inertia in atomic units:
                           1         2         3
     Eigenvalues --     0.00000  61.68853  61.68853
           X            1.00000  -0.00000   0.00000
           Y            0.00000   1.00000   0.00000
           Z            0.00000   0.00000   1.00000
 This molecule is a prolate symmetric top.
 Rotational symmetry number  1.
 Rotational temperature (Kelvin)      1.40405
 Rotational constant (GHZ):          29.255700
 Zero-point vibrational energy      35866.8 (Joules/Mol)
                                    8.57238 (Kcal/Mol)
 Warning -- explicit consideration of   1 degrees of freedom as
           vibrations may cause significant error
 Vibrational temperatures:    203.06  1547.84  1558.71  5317.97
          (Kelvin)

 Zero-point correction=                           0.013661 (Hartree/Particle)
 Thermal correction to Energy=                    0.016734
 Thermal correction to Enthalpy=                  0.017679
 Thermal correction to Gibbs Free Energy=        -0.007030
 Sum of electronic and zero-point Energies=           -100.919055
 Sum of electronic and thermal Energies=              -100.915982
 Sum of electronic and thermal Enthalpies=            -100.915038
 Sum of electronic and thermal Free Energies=         -100.939747

                     E (Thermal)             CV                S
                      KCal/Mol        Cal/Mol-Kelvin    Cal/Mol-Kelvin
 Total                   10.501              7.476             52.005
 Electronic               0.000              0.000              1.377
 Translational            0.889              2.981             35.068
 Rotational               0.592              1.987             12.635
 Vibrational              9.020              2.508              2.924
 Vibration     1          0.615              1.912              2.788

 Normal termination of Gaussian 16 at Fri Aug 22 18:09:22 2025.
