 Gaussian 16, Revision C.01,
 Gaussian 16:  ES64L-G16RevC.01  3-Jul-2019

 -----------------------------------------
 # sp b3lyp/6-311g** Force nosymm scf=(qc)
 -----------------------------------------

 -------------------
 Title Card Required
 -------------------
 Symbolic Z-matrix:
 Charge =  0 Multiplicity = 2

                          Input orientation:
 ---------------------------------------------------------------------
 Center     Atomic      Atomic             Coordinates (Angstroms)
 Number     Number       Type             X           Y           Z
 ---------------------------------------------------------------------
      1          1           0        0.000000    0.000000    0.000000
      2          1           0       -1.650000    0.000000    0.000000
      3          9           0        3.950000    0.000000    0.000000
 ---------------------------------------------------------------------

 SCF Done:  E(UB3LYP) =  -100.799993277     a.u. after   37 cycles

 Alpha  occ. eigenvalues --  -24.76192  -1.22097  -0.55301  -0.46473  -0.46458
 Alpha  occ. eigenvalues --   -0.33173
 Alpha virt. eigenvalues --   -0.10442   0.25584   0.30788   0.86061   0.90939
 Alpha virt. eigenvalues --    0.91277   1.00875   1.06940   1.23188   1.23189
 Alpha virt. eigenvalues --    1.38785   1.38787   1.70971   2.18053   2.42483

  Beta  occ. eigenvalues --  -24.73038  -1.13025  -0.43312  -0.43295  -0.33167
  Beta virt. eigenvalues --   -0.25953  -0.10466   0.25577   0.30800   0.92440
  Beta virt. eigenvalues --    0.92753   0.95529   1.05018   1.06937   1.23184
  Beta virt. eigenvalues --    1.23186   1.38778   1.38779   1.70980   2.18129

 Mulliken charges and spin densities:
               1          2
     1  H    0.000924  -0.541018
     2  H   -0.001640   0.541000
     3  F    0.000716   1.000018
 Sum of Mulliken charges =   0.00000   1.00000

 Dipole moment (field-independent basis, Debye):
    X=              0.0212    Y=             -0.0000    Z=              0.0000  Tot=              0.0212
 Quadrupole moment (field-independent basis, Debye-Ang):
   XX=             -6.5417   YY=             -7.5969   ZZ=             -7.0776
   XY=             -0.0000   XZ=              0.0001   YZ=             -0.3457

  Exact polarizability:      23.640      -0.000       2.115       0.000      -0.185       2.393
 Approx polarizability:      39.529      -0.000       2.107       0.000      -0.233       2.458

 ******    2 imaginary frequencies (negative Signs) ******

                      1                      2                      3
                      A                      A                      A
 Frequencies --  -1988.1916               -54.1471               981.9410
 Red. masses --      1.0078                 1.1085                 1.0108
 Frc consts  --      2.3472                 0.0019                 0.5742
 IR Inten    --      0.0093                 0.0327                 0.0015

                      4
                      A
 Frequencies --    982.8506
 Red. masses --      1.0108
 Frc consts  --      0.5753
 IR Inten    --      0.0005

 - Thermochemistry -
 -------------------
 Temperature   298.150 Kelvin.  Pressure   1.00000 Atm.
 Atom     1 has atomic number  1 and mass   1.00783

 Molecular mass:    21.01405 amu.
 Principal axes and moments of inertia in atomic units:
                           1         2         3
     Eigenvalues --     0.00000 153.27626 153.27626
           X            1.00000  -0.00000   0.00000
           Y            0.00000   1.00000   0.00000
           Z            0.00000   0.00000   1.00000
 This molecule is a prolate symmetric top.
 Rotational symmetry number  1.
 Rotational temperature (Kelvin)      0.56508
 Rotational constant (GHZ):          11.774434
    2 imaginary frequencies ignored.
 Zero-point vibrational energy      11752.1 (Joules/Mol)
                                    2.80881 (Kcal/Mol)
 Vibrational temperatures:   1412.79  1414.10
          (Kelvin)

 Zero-point correction=                           0.004476 (Hartree/Particle)
 Thermal correction to Energy=                    0.006915
 Thermal correction to Enthalpy=                  0.007860
 Thermal correction to Gibbs Free Energy=        -0.016415
 Sum of electronic and zero-point Energies=           -100.795517
 Sum of electronic and thermal Energies=              -100.793078
 Sum of electronic and thermal Enthalpies=            -100.792134
 Sum of electronic and thermal Free Energies=         -100.816408

                     E (Thermal)             CV                S
                      KCal/Mol        Cal/Mol-Kelvin    Cal/Mol-Kelvin
 Total                    4.340              5.762             51.090
 Electronic               0.000              0.000              1.377
 Translational            0.889              2.981             35.068
 Rotational               0.592              1.987             14.444
 Vibrational              2.858              0.794              0.201

 Normal termination of Gaussian 16 at Sat Aug 23 01:35:08 2025.
