 Gaussian 16, Revision C.01,
 Gaussian 16:  ES64L-G16RevC.01  3-Jul-2019

 -----------------------------------------
 # sp b3lyp/6-311g** Force nosymm scf=(qc)
 -----------------------------------------

 -------------------
 Title Card Required
 -------------------
 Symbolic Z-matrix:
 Charge =  0 Multiplicity = 2

                          Input orientation:
 ---------------------------------------------------------------------
 Center     Atomic      Atomic             Coordinates (Angstroms)
 Number     Number       Type             X           Y           Z
 ---------------------------------------------------------------------
      1          1           0        0.000000    0.000000    0.000000
      2          1           0       -2.650000    0.000000    0.000000
      3          9           0        3.050000    0.000000    0.000000
 ---------------------------------------------------------------------

 SCF Done:  E(UB3LYP) =  -100.763230488     a.u. after   22 cycles

 Alpha  occ. eigenvalues --  -24.74311  -1.20352  -0.53429  -0.44862  -0.44862
 Alpha  occ. eigenvalues --   -0.32891
 Alpha virt. eigenvalues --   -0.09867   0.25235   0.34075   0.89320   0.92141
 Alpha virt. eigenvalues --    0.92141   1.03654   1.24709   1.24709   1.26365
 Alpha virt. eigenvalues --    1.41005   1.41005   1.42015   2.15687   2.37527

  Beta  occ. eigenvalues --  -24.71270  -1.11631  -0.41817  -0.41817  -0.33674
  Beta virt. eigenvalues --   -0.24913  -0.08685   0.25272   0.35439   0.93607
  Beta virt. eigenvalues --    0.93607   0.98136   1.07544   1.23778   1.23778
  Beta virt. eigenvalues --    1.25313   1.42909   1.42909   1.43763   2.16501

 Mulliken charges and spin densities:
               1          2
     1  H    0.028932  -0.944728
     2  H    0.003604   0.980826
     3  F   -0.032536   0.963903
 Sum of Mulliken charges =  -0.00000   1.00000

 Dipole moment (field-independent basis, Debye):
    X=             -0.5550    Y=             -0.0000    Z=              0.0000  Tot=              0.5550
 Quadrupole moment (field-independent basis, Debye-Ang):
   XX=             -7.9425   YY=             -7.6425   ZZ=             -7.6425
   XY=              0.0000   XZ=             -0.0000   YZ=             -0.0000

  Exact polarizability:      39.873       0.000       2.018      -0.000       0.000       2.018
 Approx polarizability:      36.021       0.000       1.923      -0.000      -0.000       1.923

 ******    2 imaginary frequencies (negative Signs) ******

                      1                      2                      3
                      A                      A                      A
 Frequencies --   -585.8020              -216.7062               217.7390
 Red. masses --      1.0116                 1.1040                 1.0163
 Frc consts  --      0.2045                 0.0305                 0.0284
 IR Inten    --     23.1581                14.4923                 0.6842

                      4
                      A
 Frequencies --    217.7390
 Red. masses --      1.0163
 Frc consts  --      0.0284
 IR Inten    --      0.6842

 - Thermochemistry -
 -------------------
 Temperature   298.150 Kelvin.  Pressure   1.00000 Atm.
 Atom     1 has atomic number  1 and mass   1.00783

 Molecular mass:    21.01405 amu.
 Principal axes and moments of inertia in atomic units:
                           1         2         3
     Eigenvalues --     0.00000 137.19635 137.19635
           X            1.00000  -0.00000   0.00000
           Y            0.00000   1.00000   0.00000
           Z            0.00000   0.00000   1.00000
 This molecule is a prolate symmetric top.
 Rotational symmetry number  1.
 Rotational temperature (Kelvin)      0.63131
 Rotational constant (GHZ):          13.154441
    2 imaginary frequencies ignored.
 Zero-point vibrational energy       2604.7 (Joules/Mol)
                                    0.62255 (Kcal/Mol)
 Warning -- explicit consideration of   2 degrees of freedom as
           vibrations may cause significant error
 Vibrational temperatures:    313.28   313.28
          (Kelvin)

 Zero-point correction=                           0.000992 (Hartree/Particle)
 Thermal correction to Energy=                    0.004419
 Thermal correction to Enthalpy=                  0.005364
 Thermal correction to Gibbs Free Energy=        -0.020590
 Sum of electronic and zero-point Energies=           -100.762238
 Sum of electronic and thermal Energies=              -100.758811
 Sum of electronic and thermal Enthalpies=            -100.757867
 Sum of electronic and thermal Free Energies=         -100.783821

                     E (Thermal)             CV                S
                      KCal/Mol        Cal/Mol-Kelvin    Cal/Mol-Kelvin
 Total                    2.773              8.596             54.625
 Electronic               0.000              0.000              1.377
 Translational            0.889              2.981             35.068
 Rotational               0.592              1.987             14.224
 Vibrational              1.292              3.628              3.956
 Vibration     1          0.646              1.814              1.978
 Vibration     2          0.646              1.814              1.978

 Normal termination of Gaussian 16 at Fri Aug 22 19:44:23 2025.
