 Gaussian 16, Revision C.01,
 Gaussian 16:  ES64L-G16RevC.01  3-Jul-2019

 -----------------------------------------
 # sp b3lyp/6-311g** Force nosymm scf=(qc)
 -----------------------------------------

 -------------------
 Title Card Required
 -------------------
 Symbolic Z-matrix:
 Charge =  0 Multiplicity = 2

                          Input orientation:
 ---------------------------------------------------------------------
 Center     Atomic      Atomic             Coordinates (Angstroms)
 Number     Number       Type             X           Y           Z
 ---------------------------------------------------------------------
      1          1           0        0.000000    0.000000    0.000000
      2          1           0       -0.900000    0.000000    0.000000
      3          9           0        3.400000    0.000000    0.000000
 ---------------------------------------------------------------------

 SCF Done:  E(UB3LYP) =  -100.922161820     a.u. after  318 cycles

 Alpha  occ. eigenvalues --  -24.76408  -1.22261  -0.55459  -0.46662  -0.46612
 Alpha  occ. eigenvalues --   -0.40361
 Alpha virt. eigenvalues --    0.02683   0.20786   0.41536   0.85957   0.90832
 Alpha virt. eigenvalues --    0.92870   1.02140   1.08420   1.08424   1.45530
 Alpha virt. eigenvalues --    1.72308   1.72313   2.18101   2.37639   2.74238

  Beta  occ. eigenvalues --  -24.73249  -1.13181  -0.43505  -0.43446  -0.40349
  Beta virt. eigenvalues --   -0.26096   0.02697   0.20798   0.41592   0.92331
  Beta virt. eigenvalues --    0.94418   0.95419   1.06166   1.08420   1.08424
  Beta virt. eigenvalues --    1.45537   1.72308   1.72312   2.18116   2.37643

 Mulliken charges and spin densities:
               1          2
     1  H   -0.001428  -0.000444
     2  H   -0.003045  -0.000084
     3  F    0.004473   1.000528
 Sum of Mulliken charges =   0.00000   1.00000

 Dipole moment (field-independent basis, Debye):
    X=              0.0558    Y=             -0.0000    Z=             -0.0000  Tot=              0.0558
 Quadrupole moment (field-independent basis, Debye-Ang):
   XX=             -6.2093   YY=             -6.2898   ZZ=             -7.1533
   XY=              0.0000   XZ=             -0.0000   YZ=             -0.0166

  Exact polarizability:      10.575       0.000       2.490      -0.000      -0.009       2.027
 Approx polarizability:      13.080       0.000       2.671      -0.000      -0.011       2.090

                      1                      2                      3
                      A                      A                      A
 Frequencies --     17.1881              1454.1737              1454.9663
 Red. masses --      1.1085                 1.0092                 1.0092
 Frc consts  --      0.0002                 1.2573                 1.2587
 IR Inten    --      0.1759                 0.0002                 0.0001

                      4
                      A
 Frequencies --   2642.9620
 Red. masses --      1.0078
 Frc consts  --      4.1478
 IR Inten    --      0.1592

 - Thermochemistry -
 -------------------
 Temperature   298.150 Kelvin.  Pressure   1.00000 Atm.
 Atom     1 has atomic number  1 and mass   1.00783

 Molecular mass:    21.01405 amu.
 Principal axes and moments of inertia in atomic units:
                           1         2         3
     Eigenvalues --     0.00000  97.91634  97.91634
           X            1.00000  -0.00000   0.00000
           Y            0.00000   1.00000   0.00000
           Z            0.00000   0.00000   1.00000
 This molecule is a prolate symmetric top.
 Rotational symmetry number  1.
 Rotational temperature (Kelvin)      0.88457
 Rotational constant (GHZ):          18.431461
 Zero-point vibrational energy      33311.8 (Joules/Mol)
                                    7.96170 (Kcal/Mol)
 Warning -- explicit consideration of   1 degrees of freedom as
           vibrations may cause significant error
 Vibrational temperatures:     24.73  2092.23  2093.37  3802.63
          (Kelvin)

 Zero-point correction=                           0.012688 (Hartree/Particle)
 Thermal correction to Energy=                    0.015966
 Thermal correction to Enthalpy=                  0.016910
 Thermal correction to Gibbs Free Energy=        -0.010155
 Sum of electronic and zero-point Energies=           -100.909474
 Sum of electronic and thermal Energies=              -100.906196
 Sum of electronic and thermal Enthalpies=            -100.905252
 Sum of electronic and thermal Free Energies=         -100.932317

                     E (Thermal)             CV                S
                      KCal/Mol        Cal/Mol-Kelvin    Cal/Mol-Kelvin
 Total                   10.019              7.130             56.962
 Electronic               0.000              0.000              1.377
 Translational            0.889              2.981             35.068
 Rotational               0.592              1.987             13.553
 Vibrational              8.537              2.162              6.964
 Vibration     1          0.593              1.986              6.935

 Normal termination of Gaussian 16 at Fri Aug 22 21:08:39 2025.
