 Gaussian 16, Revision C.01,
 Gaussian 16:  ES64L-G16RevC.01  3-Jul-2019

 -----------------------------------------
 # sp b3lyp/6-311g** Force nosymm scf=(qc)
 -----------------------------------------

 -------------------
 Title Card Required
 -------------------
 Symbolic Z-matrix:
 Charge =  0 Multiplicity = 2

                          Input orientation:
 ---------------------------------------------------------------------
 Center     Atomic      Atomic             Coordinates (Angstroms)
 Number     Number       Type             X           Y           Z
 ---------------------------------------------------------------------
      1          1           0        0.000000    0.000000    0.000000
      2          1           0       -1.900000    0.000000    0.000000
      3          9           0        2.050000    0.000000    0.000000
 ---------------------------------------------------------------------

 SCF Done:  E(UB3LYP) =  -100.801532530     a.u. after   13 cycles

 Alpha  occ. eigenvalues --  -24.68685  -1.15018  -0.47812  -0.40127  -0.40127
 Alpha  occ. eigenvalues --   -0.36566
 Alpha virt. eigenvalues --   -0.13236   0.23799   0.30996   0.87124   0.94811
 Alpha virt. eigenvalues --    0.94811   1.04254   1.21257   1.21257   1.27237
 Alpha virt. eigenvalues --    1.33972   1.33972   1.60565   2.11512   2.33457

  Beta  occ. eigenvalues --  -24.66204  -1.08058  -0.37676  -0.37676  -0.37068
  Beta virt. eigenvalues --   -0.21929  -0.11657   0.26213   0.31129   0.90267
  Beta virt. eigenvalues --    0.95694   0.95694   1.07982   1.22818   1.22818
  Beta virt. eigenvalues --    1.35172   1.35577   1.35577   1.59258   2.12372

 Mulliken charges and spin densities:
               1          2
     1  H    0.121666  -0.623835
     2  H    0.048592   0.843909
     3  F   -0.170258   0.779926
 Sum of Mulliken charges =  -0.00000   1.00000

 Dipole moment (field-independent basis, Debye):
    X=             -2.1828    Y=              0.0000    Z=             -0.0000  Tot=              2.1828
 Quadrupole moment (field-independent basis, Debye-Ang):
   XX=             -8.5104   YY=             -7.5684   ZZ=             -7.5684
   XY=              0.0000   XZ=             -0.0000   YZ=              0.0000

  Exact polarizability:      52.734       0.000       2.057      -0.000      -0.000       2.057
 Approx polarizability:      64.944      -0.000       1.971       0.000      -0.000       1.971

 ******    2 imaginary frequencies (negative Signs) ******

                      1                      2                      3
                      A                      A                      A
 Frequencies --  -1674.5355              -563.5278               695.4409
 Red. masses --      1.0148                 1.1002                 1.0170
 Frc consts  --      1.6765                 0.2059                 0.2898
 IR Inten    --    157.2726                38.7138                 8.2033

                      4
                      A
 Frequencies --    695.4409
 Red. masses --      1.0170
 Frc consts  --      0.2898
 IR Inten    --      8.2033

 - Thermochemistry -
 -------------------
 Temperature   298.150 Kelvin.  Pressure   1.00000 Atm.
 Atom     1 has atomic number  1 and mass   1.00783

 Molecular mass:    21.01405 amu.
 Principal axes and moments of inertia in atomic units:
                           1         2         3
     Eigenvalues --     0.00000  65.06452  65.06452
           X            1.00000  -0.00000   0.00000
           Y            0.00000   1.00000   0.00000
           Z            0.00000   0.00000   1.00000
 This molecule is a prolate symmetric top.
 Rotational symmetry number  1.
 Rotational temperature (Kelvin)      1.33120
 Rotational constant (GHZ):          27.737718
    2 imaginary frequencies ignored.
 Zero-point vibrational energy       8319.3 (Joules/Mol)
                                    1.98837 (Kcal/Mol)
 Vibrational temperatures:   1000.58  1000.58
          (Kelvin)

 Zero-point correction=                           0.003169 (Hartree/Particle)
 Thermal correction to Energy=                    0.005758
 Thermal correction to Enthalpy=                  0.006702
 Thermal correction to Gibbs Free Energy=        -0.016964
 Sum of electronic and zero-point Energies=           -100.798364
 Sum of electronic and thermal Energies=              -100.795774
 Sum of electronic and thermal Enthalpies=            -100.794830
 Sum of electronic and thermal Free Energies=         -100.818496

                     E (Thermal)             CV                S
                      KCal/Mol        Cal/Mol-Kelvin    Cal/Mol-Kelvin
 Total                    3.613              6.644             49.809
 Electronic               0.000              0.000              1.377
 Translational            0.889              2.981             35.068
 Rotational               0.592              1.987             12.741
 Vibrational              2.132              1.676              0.623

 Normal termination of Gaussian 16 at Fri Aug 22 17:00:01 2025.
