 Gaussian 16, Revision C.01,
 Gaussian 16:  ES64L-G16RevC.01  3-Jul-2019

 -----------------------------------------
 # sp b3lyp/6-311g** Force nosymm scf=(qc)
 -----------------------------------------

 -------------------
 Title Card Required
 -------------------
 Symbolic Z-matrix:
 Charge =  0 Multiplicity = 2

                          Input orientation:
 ---------------------------------------------------------------------
 Center     Atomic      Atomic             Coordinates (Angstroms)
 Number     Number       Type             X           Y           Z
 ---------------------------------------------------------------------
      1          1           0        0.000000    0.000000    0.000000
      2          1           0       -2.750000    0.000000    0.000000
      3          9           0        2.300000    0.000000    0.000000
 ---------------------------------------------------------------------

 SCF Done:  E(UB3LYP) =  -100.774636020     a.u. after   14 cycles

 Alpha  occ. eigenvalues --  -24.70458  -1.16734  -0.49533  -0.41632  -0.41632
 Alpha  occ. eigenvalues --   -0.33762
 Alpha virt. eigenvalues --   -0.12228   0.24157   0.33141   0.89184   0.94245
 Alpha virt. eigenvalues --    0.94245   1.06555   1.23820   1.23820   1.25583
 Alpha virt. eigenvalues --    1.37864   1.37864   1.47946   2.14821   2.32401

  Beta  occ. eigenvalues --  -24.67747  -1.09057  -0.38938  -0.38938  -0.36210
  Beta virt. eigenvalues --   -0.22497  -0.08786   0.25007   0.35747   0.93866
  Beta virt. eigenvalues --    0.95464   0.95464   1.08795   1.21746   1.21746
  Beta virt. eigenvalues --    1.36958   1.43160   1.43160   1.44153   2.13419

 Mulliken charges and spin densities:
               1          2
     1  H    0.115618  -0.840058
     2  H    0.007490   0.985069
     3  F   -0.123108   0.854989
 Sum of Mulliken charges =  -0.00000   1.00000

 Dipole moment (field-independent basis, Debye):
    X=             -1.5259    Y=              0.0000    Z=              0.0000  Tot=              1.5259
 Quadrupole moment (field-independent basis, Debye-Ang):
   XX=             -9.3310   YY=             -7.5671   ZZ=             -7.5671
   XY=              0.0000   XZ=              0.0000   YZ=             -0.0000

  Exact polarizability:      36.182       0.000       2.028       0.000       0.000       2.028
 Approx polarizability:      43.515       0.000       1.923       0.000       0.000       1.923

 ******    2 imaginary frequencies (negative Signs) ******

                      1                      2                      3
                      A                      A                      A
 Frequencies --   -832.7769              -290.8118               340.2006
 Red. masses --      1.0416                 1.0703                 1.0203
 Frc consts  --      0.4256                 0.0533                 0.0696
 IR Inten    --     84.8818                 8.0651                11.7445

                      4
                      A
 Frequencies --    340.2006
 Red. masses --      1.0203
 Frc consts  --      0.0696
 IR Inten    --     11.7445

 - Thermochemistry -
 -------------------
 Temperature   298.150 Kelvin.  Pressure   1.00000 Atm.
 Atom     1 has atomic number  1 and mass   1.00783

 Molecular mass:    21.01405 amu.
 Principal axes and moments of inertia in atomic units:
                           1         2         3
     Eigenvalues --     0.00000 101.49781 101.49781
           X            1.00000  -0.00000   0.00000
           Y            0.00000   1.00000   0.00000
           Z            0.00000   0.00000   1.00000
 This molecule is a prolate symmetric top.
 Rotational symmetry number  1.
 Rotational temperature (Kelvin)      0.85336
 Rotational constant (GHZ):          17.781085
    2 imaginary frequencies ignored.
 Zero-point vibrational energy       4069.7 (Joules/Mol)
                                    0.97268 (Kcal/Mol)
 Warning -- explicit consideration of   2 degrees of freedom as
           vibrations may cause significant error
 Vibrational temperatures:    489.47   489.47
          (Kelvin)

 Zero-point correction=                           0.001550 (Hartree/Particle)
 Thermal correction to Energy=                    0.004655
 Thermal correction to Enthalpy=                  0.005599
 Thermal correction to Gibbs Free Energy=        -0.019342
 Sum of electronic and zero-point Energies=           -100.773086
 Sum of electronic and thermal Energies=              -100.769981
 Sum of electronic and thermal Enthalpies=            -100.769037
 Sum of electronic and thermal Free Energies=         -100.793978

                     E (Thermal)             CV                S
                      KCal/Mol        Cal/Mol-Kelvin    Cal/Mol-Kelvin
 Total                    2.921              8.158             52.492
 Electronic               0.000              0.000              1.377
 Translational            0.889              2.981             35.068
 Rotational               0.592              1.987             13.625
 Vibrational              1.440              3.190              2.422
 Vibration     1          0.720              1.595              1.211
 Vibration     2          0.720              1.595              1.211

 Normal termination of Gaussian 16 at Fri Aug 22 17:22:36 2025.
