 Gaussian 16, Revision C.01,
 Gaussian 16:  ES64L-G16RevC.01  3-Jul-2019

 -----------------------------------------
 # sp b3lyp/6-311g** Force nosymm scf=(qc)
 -----------------------------------------

 -------------------
 Title Card Required
 -------------------
 Symbolic Z-matrix:
 Charge =  0 Multiplicity = 2

                          Input orientation:
 ---------------------------------------------------------------------
 Center     Atomic      Atomic             Coordinates (Angstroms)
 Number     Number       Type             X           Y           Z
 ---------------------------------------------------------------------
      1          1           0        0.000000    0.000000    0.000000
      2          1           0       -1.700000    0.000000    0.000000
      3          9           0        1.400000    0.000000    0.000000
 ---------------------------------------------------------------------

 SCF Done:  E(UB3LYP) =  -100.886719976     a.u. after   10 cycles

 Alpha  occ. eigenvalues --  -24.63649  -1.10357  -0.46216  -0.37782  -0.36233
 Alpha  occ. eigenvalues --   -0.36233
 Alpha virt. eigenvalues --   -0.07020   0.21784   0.28059   0.93852   0.93852
 Alpha virt. eigenvalues --    0.99604   1.03609   1.17754   1.17754   1.36586
 Alpha virt. eigenvalues --    1.36586   1.46557   1.74979   2.14343   2.34970

  Beta  occ. eigenvalues --  -24.62910  -1.08426  -0.42934  -0.35539  -0.35539
  Beta virt. eigenvalues --   -0.19407  -0.03225   0.25693   0.30786   0.93797
  Beta virt. eigenvalues --    0.93797   1.04421   1.06421   1.28113   1.28113
  Beta virt. eigenvalues --    1.39290   1.39290   1.53084   1.78363   2.21190

 Mulliken charges and spin densities:
               1          2
     1  H    0.298122  -0.114810
     2  H    0.059558   0.887213
     3  F   -0.357680   0.227597
 Sum of Mulliken charges =  -0.00000   1.00000

 Dipole moment (field-independent basis, Debye):
    X=             -2.9939    Y=             -0.0000    Z=             -0.0000  Tot=              2.9939
 Quadrupole moment (field-independent basis, Debye-Ang):
   XX=             -8.3882   YY=             -7.1887   ZZ=             -7.1887
   XY=             -0.0000   XZ=             -0.0000   YZ=              0.0000

  Exact polarizability:      27.084      -0.000       2.312      -0.000       0.000       2.312
 Approx polarizability:      37.110      -0.000       2.259      -0.000      -0.000       2.259

 ******    2 imaginary frequencies (negative Signs) ******

                      1                      2                      3
                      A                      A                      A
 Frequencies --  -2048.8511              -327.8356              1060.4450
 Red. masses --      1.0269                 1.0864                 1.0205
 Frc consts  --      2.5397                 0.0688                 0.6761
 IR Inten    --     18.7579                 5.5322                58.4992

                      4
                      A
 Frequencies --   1060.4450
 Red. masses --      1.0205
 Frc consts  --      0.6761
 IR Inten    --     58.4992

 - Thermochemistry -
 -------------------
 Temperature   298.150 Kelvin.  Pressure   1.00000 Atm.
 Atom     1 has atomic number  1 and mass   1.00783

 Molecular mass:    21.01405 amu.
 Principal axes and moments of inertia in atomic units:
                           1         2         3
     Eigenvalues --     0.00000  38.14524  38.14524
           X            1.00000  -0.00000   0.00000
           Y            0.00000   1.00000   0.00000
           Z            0.00000   0.00000   1.00000
 This molecule is a prolate symmetric top.
 Rotational symmetry number  1.
 Rotational temperature (Kelvin)      2.27064
 Rotational constant (GHZ):          47.312358
    2 imaginary frequencies ignored.
 Zero-point vibrational energy      12685.7 (Joules/Mol)
                                    3.03196 (Kcal/Mol)
 Vibrational temperatures:   1525.74  1525.74
          (Kelvin)

 Zero-point correction=                           0.004832 (Hartree/Particle)
 Thermal correction to Energy=                    0.007250
 Thermal correction to Enthalpy=                  0.008195
 Thermal correction to Gibbs Free Energy=        -0.014741
 Sum of electronic and zero-point Energies=           -100.881888
 Sum of electronic and thermal Energies=              -100.879470
 Sum of electronic and thermal Enthalpies=            -100.878525
 Sum of electronic and thermal Free Energies=         -100.901461

                     E (Thermal)             CV                S
                      KCal/Mol        Cal/Mol-Kelvin    Cal/Mol-Kelvin
 Total                    4.550              5.599             48.272
 Electronic               0.000              0.000              1.377
 Translational            0.889              2.981             35.068
 Rotational               0.592              1.987             11.680
 Vibrational              3.069              0.631              0.146

 Normal termination of Gaussian 16 at Fri Aug 22 16:19:57 2025.
