 Gaussian 16, Revision C.01,
 Gaussian 16:  ES64L-G16RevC.01  3-Jul-2019

 -----------------------------------------
 # sp b3lyp/6-311g** Force nosymm scf=(qc)
 -----------------------------------------

 -------------------
 Title Card Required
 -------------------
 Symbolic Z-matrix:
 Charge =  0 Multiplicity = 2

                          Input orientation:
 ---------------------------------------------------------------------
 Center     Atomic      Atomic             Coordinates (Angstroms)
 Number     Number       Type             X           Y           Z
 ---------------------------------------------------------------------
      1          1           0        0.000000    0.000000    0.000000
      2          1           0       -3.400000    0.000000    0.000000
      3          9           0        1.400000    0.000000    0.000000
 ---------------------------------------------------------------------

 SCF Done:  E(UB3LYP) =  -100.877364186     a.u. after    7 cycles

 Alpha  occ. eigenvalues --  -24.64356  -1.10270  -0.44554  -0.36697  -0.36697
 Alpha  occ. eigenvalues --   -0.34054
 Alpha virt. eigenvalues --   -0.11845   0.20887   0.28000   0.93127   0.93127
 Alpha virt. eigenvalues --    1.03166   1.15376   1.23462   1.23462   1.23545
 Alpha virt. eigenvalues --    1.32637   1.32637   1.71652   2.13638   2.21265

  Beta  occ. eigenvalues --  -24.64341  -1.10232  -0.44514  -0.36683  -0.36683
  Beta virt. eigenvalues --   -0.12337  -0.06453   0.24108   0.38190   0.93122
  Beta virt. eigenvalues --    0.93122   1.03206   1.15433   1.32583   1.32583
  Beta virt. eigenvalues --    1.45773   1.46253   1.46253   1.71674   2.20930

 Mulliken charges and spin densities:
               1          2
     1  H    0.355573  -0.002459
     2  H    0.002095   0.997745
     3  F   -0.357668   0.004714
 Sum of Mulliken charges =   0.00000   1.00000

 Dipole moment (field-independent basis, Debye):
    X=             -2.5258    Y=             -0.0000    Z=              0.0000  Tot=              2.5258
 Quadrupole moment (field-independent basis, Debye-Ang):
   XX=             -9.5112   YY=             -7.2643   ZZ=             -7.2643
   XY=             -0.0000   XZ=              0.0000   YZ=              0.0000

  Exact polarizability:      13.599       0.000       2.234      -0.000      -0.000       2.234
 Approx polarizability:      22.802       0.000       2.168      -0.000      -0.000       2.168

 ******    2 imaginary frequencies (negative Signs) ******

                      1                      2                      3
                      A                      A                      A
 Frequencies --  -1019.4198               -81.3963              1090.2180
 Red. masses --      1.0572                 1.0544                 1.0312
 Frc consts  --      0.6473                 0.0041                 0.7221
 IR Inten    --     54.0537                 0.1907               125.4985

                      4
                      A
 Frequencies --   1090.2180
 Red. masses --      1.0312
 Frc consts  --      0.7221
 IR Inten    --    125.4985

 - Thermochemistry -
 -------------------
 Temperature   298.150 Kelvin.  Pressure   1.00000 Atm.
 Atom     1 has atomic number  1 and mass   1.00783

 Molecular mass:    21.01405 amu.
 Principal axes and moments of inertia in atomic units:
                           1         2         3
     Eigenvalues --     0.00000  83.34020  83.34020
           X            1.00000  -0.00000   0.00000
           Y            0.00000   1.00000   0.00000
           Z            0.00000   0.00000   1.00000
 This molecule is a prolate symmetric top.
 Rotational symmetry number  1.
 Rotational temperature (Kelvin)      1.03928
 Rotational constant (GHZ):          21.655109
    2 imaginary frequencies ignored.
 Zero-point vibrational energy      13041.9 (Joules/Mol)
                                    3.11709 (Kcal/Mol)
 Vibrational temperatures:   1568.58  1568.58
          (Kelvin)

 Zero-point correction=                           0.004967 (Hartree/Particle)
 Thermal correction to Energy=                    0.007380
 Thermal correction to Enthalpy=                  0.008324
 Thermal correction to Gibbs Free Energy=        -0.015342
 Sum of electronic and zero-point Energies=           -100.872397
 Sum of electronic and thermal Energies=              -100.869984
 Sum of electronic and thermal Enthalpies=            -100.869040
 Sum of electronic and thermal Free Energies=         -100.892706

                     E (Thermal)             CV                S
                      KCal/Mol        Cal/Mol-Kelvin    Cal/Mol-Kelvin
 Total                    4.631              5.545             49.808
 Electronic               0.000              0.000              1.377
 Translational            0.889              2.981             35.068
 Rotational               0.592              1.987             13.233
 Vibrational              3.150              0.577              0.130

 Normal termination of Gaussian 16 at Fri Aug 22 16:21:08 2025.
