 Gaussian 16, Revision C.01,
 Gaussian 16:  ES64L-G16RevC.01  3-Jul-2019

 -----------------------------------------
 # sp b3lyp/6-311g** Force nosymm scf=(qc)
 -----------------------------------------

 -------------------
 Title Card Required
 -------------------
 Symbolic Z-matrix:
 Charge =  0 Multiplicity = 2

                          Input orientation:
 ---------------------------------------------------------------------
 Center     Atomic      Atomic             Coordinates (Angstroms)
 Number     Number       Type             X           Y           Z
 ---------------------------------------------------------------------
      1          1           0        0.000000    0.000000    0.000000
      2          1           0       -2.100000    0.000000    0.000000
      3          9           0        3.700000    0.000000    0.000000
 ---------------------------------------------------------------------

 SCF Done:  E(UB3LYP) =  -100.770568194     a.u. after   35 cycles

 Alpha  occ. eigenvalues --  -24.75782  -1.21717  -0.54907  -0.46105  -0.46105
 Alpha  occ. eigenvalues --   -0.32891
 Alpha virt. eigenvalues --   -0.10628   0.25969   0.32979   0.87031   0.91221
 Alpha virt. eigenvalues --    0.91221   1.01325   1.20774   1.25035   1.25035
 Alpha virt. eigenvalues --    1.38714   1.38714   1.47882   2.13511   2.35704

  Beta  occ. eigenvalues --  -24.72647  -1.12703  -0.42961  -0.42961  -0.32981
  Beta virt. eigenvalues --   -0.25719  -0.10422   0.25823   0.33328   0.92717
  Beta virt. eigenvalues --    0.92717   0.96316   1.05420   1.20722   1.24929
  Beta virt. eigenvalues --    1.24929   1.38999   1.38999   1.48092   2.13856

 Mulliken charges and spin densities:
               1          2
     1  H    0.001546  -0.890577
     2  H    0.003452   0.896403
     3  F   -0.004997   0.994174
 Sum of Mulliken charges =   0.00000   1.00000

 Dipole moment (field-independent basis, Debye):
    X=             -0.1290    Y=              0.0000    Z=              0.0000  Tot=              0.1290
 Quadrupole moment (field-independent basis, Debye-Ang):
   XX=             -6.5436   YY=             -7.7134   ZZ=             -7.7134
   XY=              0.0000   XZ=              0.0000   YZ=              0.0000

  Exact polarizability:      34.583       0.000       2.009       0.000      -0.000       2.009
 Approx polarizability:      29.301       0.000       1.934       0.000       0.000       1.934

 ******    2 imaginary frequencies (negative Signs) ******

                      1                      2                      3
                      A                      A                      A
 Frequencies --  -1178.5717              -104.6371               467.7449
 Red. masses --      1.0078                 1.1085                 1.0125
 Frc consts  --      0.8248                 0.0072                 0.1305
 IR Inten    --      3.3067                 2.8288                 0.0001

                      4
                      A
 Frequencies --    467.7449
 Red. masses --      1.0125
 Frc consts  --      0.1305
 IR Inten    --      0.0001

 - Thermochemistry -
 -------------------
 Temperature   298.150 Kelvin.  Pressure   1.00000 Atm.
 Atom     1 has atomic number  1 and mass   1.00783

 Molecular mass:    21.01405 amu.
 Principal axes and moments of inertia in atomic units:
                           1         2         3
     Eigenvalues --     0.00000 154.76330 154.76330
           X            1.00000  -0.00000   0.00000
           Y            0.00000   1.00000   0.00000
           Z            0.00000   0.00000   1.00000
 This molecule is a prolate symmetric top.
 Rotational symmetry number  1.
 Rotational temperature (Kelvin)      0.55965
 Rotational constant (GHZ):          11.661300
    2 imaginary frequencies ignored.
 Zero-point vibrational energy       5595.5 (Joules/Mol)
                                    1.33735 (Kcal/Mol)
 Warning -- explicit consideration of   2 degrees of freedom as
           vibrations may cause significant error
 Vibrational temperatures:    672.98   672.98
          (Kelvin)

 Zero-point correction=                           0.002131 (Hartree/Particle)
 Thermal correction to Energy=                    0.004990
 Thermal correction to Enthalpy=                  0.005934
 Thermal correction to Gibbs Free Energy=        -0.018961
 Sum of electronic and zero-point Energies=           -100.768437
 Sum of electronic and thermal Energies=              -100.765578
 Sum of electronic and thermal Enthalpies=            -100.764634
 Sum of electronic and thermal Free Energies=         -100.789529

                     E (Thermal)             CV                S
                      KCal/Mol        Cal/Mol-Kelvin    Cal/Mol-Kelvin
 Total                    3.131              7.611             52.396
 Electronic               0.000              0.000              1.377
 Translational            0.889              2.981             35.068
 Rotational               0.592              1.987             14.463
 Vibrational              1.650              2.643              1.488
 Vibration     1          0.825              1.322              0.744
 Vibration     2          0.825              1.322              0.744

 Normal termination of Gaussian 16 at Sat Aug 23 00:02:40 2025.
