 Gaussian 16, Revision C.01,
 Gaussian 16:  ES64L-G16RevC.01  3-Jul-2019

 -----------------------------------------
 # sp b3lyp/6-311g** Force nosymm scf=(qc)
 -----------------------------------------

 -------------------
 Title Card Required
 -------------------
 Symbolic Z-matrix:
 Charge =  0 Multiplicity = 2

                          Input orientation:
 ---------------------------------------------------------------------
 Center     Atomic      Atomic             Coordinates (Angstroms)
 Number     Number       Type             X           Y           Z
 ---------------------------------------------------------------------
      1          1           0        0.000000    0.000000    0.000000
      2          1           0       -3.250000    0.000000    0.000000
      3          9           0        1.950000    0.000000    0.000000
 ---------------------------------------------------------------------

 SCF Done:  E(UB3LYP) =  -100.791106205     a.u. after   13 cycles

 Alpha  occ. eigenvalues --  -24.67830  -1.14134  -0.46777  -0.39419  -0.39419
 Alpha  occ. eigenvalues --   -0.33731
 Alpha virt. eigenvalues --   -0.14048   0.22397   0.31468   0.89645   0.94883
 Alpha virt. eigenvalues --    0.94883   1.05781   1.23795   1.23795   1.24101
 Alpha virt. eigenvalues --    1.34924   1.34924   1.62874   2.14127   2.28752

  Beta  occ. eigenvalues --  -24.65547  -1.07773  -0.38246  -0.37174  -0.37174
  Beta virt. eigenvalues --   -0.20416  -0.07553   0.22782   0.37449   0.90844
  Beta virt. eigenvalues --    0.95372   0.95372   1.08189   1.22291   1.22291
  Beta virt. eigenvalues --    1.44657   1.45178   1.45178   1.56572   2.12343

 Mulliken charges and spin densities:
               1          2
     1  H    0.204821  -0.713265
     2  H    0.003204   0.995478
     3  F   -0.208025   0.717787
 Sum of Mulliken charges =   0.00000   1.00000

 Dipole moment (field-independent basis, Debye):
    X=             -2.0477    Y=              0.0000    Z=              0.0000  Tot=              2.0477
 Quadrupole moment (field-independent basis, Debye-Ang):
   XX=             -9.9822   YY=             -7.4822   ZZ=             -7.4822
   XY=              0.0000   XZ=              0.0000   YZ=              0.0000

  Exact polarizability:      26.773      -0.000       2.068      -0.000       0.000       2.068
 Approx polarizability:      38.027      -0.000       1.955      -0.000      -0.000       1.955

 ******    2 imaginary frequencies (negative Signs) ******

                      1                      2                      3
                      A                      A                      A
 Frequencies --  -1220.1364              -161.2259               516.8073
 Red. masses --      1.0563                 1.0552                 1.0251
 Frc consts  --      0.9266                 0.0162                 0.1613
 IR Inten    --    122.5931                 0.8249                38.5028

                      4
                      A
 Frequencies --    516.8073
 Red. masses --      1.0251
 Frc consts  --      0.1613
 IR Inten    --     38.5028

 - Thermochemistry -
 -------------------
 Temperature   298.150 Kelvin.  Pressure   1.00000 Atm.
 Atom     1 has atomic number  1 and mass   1.00783

 Molecular mass:    21.01405 amu.
 Principal axes and moments of inertia in atomic units:
                           1         2         3
     Eigenvalues --     0.00000 102.17832 102.17832
           X            1.00000  -0.00000   0.00000
           Y            0.00000   1.00000   0.00000
           Z            0.00000   0.00000   1.00000
 This molecule is a prolate symmetric top.
 Rotational symmetry number  1.
 Rotational temperature (Kelvin)      0.84767
 Rotational constant (GHZ):          17.662662
    2 imaginary frequencies ignored.
 Zero-point vibrational energy       6182.4 (Joules/Mol)
                                    1.47763 (Kcal/Mol)
 Warning -- explicit consideration of   2 degrees of freedom as
           vibrations may cause significant error
 Vibrational temperatures:    743.57   743.57
          (Kelvin)

 Zero-point correction=                           0.002355 (Hartree/Particle)
 Thermal correction to Energy=                    0.005139
 Thermal correction to Enthalpy=                  0.006083
 Thermal correction to Gibbs Free Energy=        -0.018300
 Sum of electronic and zero-point Energies=           -100.788751
 Sum of electronic and thermal Energies=              -100.785967
 Sum of electronic and thermal Enthalpies=            -100.785023
 Sum of electronic and thermal Free Energies=         -100.809406

                     E (Thermal)             CV                S
                      KCal/Mol        Cal/Mol-Kelvin    Cal/Mol-Kelvin
 Total                    3.225              7.394             51.318
 Electronic               0.000              0.000              1.377
 Translational            0.889              2.981             35.068
 Rotational               0.592              1.987             13.638
 Vibrational              1.744              2.426              1.235
 Vibration     1          0.872              1.213              0.617
 Vibration     2          0.872              1.213              0.617

 Normal termination of Gaussian 16 at Fri Aug 22 16:54:21 2025.
