 Gaussian 16, Revision C.01,
 Gaussian 16:  ES64L-G16RevC.01  3-Jul-2019

 -----------------------------------------
 # sp b3lyp/6-311g** Force nosymm scf=(qc)
 -----------------------------------------

 -------------------
 Title Card Required
 -------------------
 Symbolic Z-matrix:
 Charge =  0 Multiplicity = 2

                          Input orientation:
 ---------------------------------------------------------------------
 Center     Atomic      Atomic             Coordinates (Angstroms)
 Number     Number       Type             X           Y           Z
 ---------------------------------------------------------------------
      1          1           0        0.000000    0.000000    0.000000
      2          1           0       -3.200000    0.000000    0.000000
      3          9           0        0.650000    0.000000    0.000000
 ---------------------------------------------------------------------

 SCF Done:  E(UB3LYP) =  -100.800729899     a.u. after    6 cycles

 Alpha  occ. eigenvalues --  -24.62931  -1.31307  -0.59799  -0.42351  -0.42351
 Alpha  occ. eigenvalues --   -0.33601
 Alpha virt. eigenvalues --    0.07109   0.25331   0.55405   0.92888   0.92888
 Alpha virt. eigenvalues --    0.94692   1.23203   1.23917   1.23917   1.34397
 Alpha virt. eigenvalues --    1.46919   1.46919   1.96157   2.14985   3.09627

  Beta  occ. eigenvalues --  -24.62930  -1.31304  -0.59797  -0.42350  -0.42350
  Beta virt. eigenvalues --   -0.05617   0.07891   0.39470   0.55516   0.92887
  Beta virt. eigenvalues --    0.92887   0.94688   1.32578   1.46920   1.46920
  Beta virt. eigenvalues --    1.50891   1.50891   1.51756   1.96137   2.44826

 Mulliken charges and spin densities:
               1          2
     1  H    0.253959   0.000912
     2  H    0.001306   0.998310
     3  F   -0.255265   0.000778
 Sum of Mulliken charges =   0.00000   1.00000

 Dipole moment (field-independent basis, Debye):
    X=             -1.5240    Y=             -0.0000    Z=             -0.0000  Tot=              1.5240
 Quadrupole moment (field-independent basis, Debye-Ang):
   XX=             -7.0886   YY=             -6.6077   ZZ=             -6.6077
   XY=             -0.0000   XZ=             -0.0000   YZ=             -0.0000

  Exact polarizability:       3.999      -0.000       2.450      -0.000       0.000       2.450
 Approx polarizability:       4.241       0.000       2.431       0.000       0.000       2.431

 ******    3 imaginary frequencies (negative Signs) ******

                      1                      2                      3
                      A                      A                      A
 Frequencies --  -4589.7349             -4589.7349               -35.5031
 Red. masses --      1.0418                 1.0418                 1.0532
 Frc consts  --     12.9299                12.9299                 0.0008
 IR Inten    --    223.4209               223.4209                 0.0575

                      4
                      A
 Frequencies --  10873.5130
 Red. masses --      1.0583
 Frc consts  --     73.7232
 IR Inten    --    105.5015

 - Thermochemistry -
 -------------------
 Temperature   298.150 Kelvin.  Pressure   1.00000 Atm.
 Atom     1 has atomic number  1 and mass   1.00783

 Molecular mass:    21.01405 amu.
 Principal axes and moments of inertia in atomic units:
                           1         2         3
     Eigenvalues --     0.00000  51.37160  51.37160
           X            1.00000  -0.00000   0.00000
           Y            0.00000   1.00000   0.00000
           Z            0.00000   0.00000   1.00000
 This molecule is a prolate symmetric top.
 Rotational symmetry number  1.
 Rotational temperature (Kelvin)      1.68603
 Rotational constant (GHZ):          35.131111
    3 imaginary frequencies ignored.
 Zero-point vibrational energy      65038.1 (Joules/Mol)
                                   15.54447 (Kcal/Mol)
 Vibrational temperatures:  15644.56
          (Kelvin)

 Zero-point correction=                           0.024772 (Hartree/Particle)
 Thermal correction to Energy=                    0.027132
 Thermal correction to Enthalpy=                  0.028076
 Thermal correction to Gibbs Free Energy=         0.004929
 Sum of electronic and zero-point Energies=           -100.775958
 Sum of electronic and thermal Energies=              -100.773598
 Sum of electronic and thermal Enthalpies=            -100.772654
 Sum of electronic and thermal Free Energies=         -100.795801

                     E (Thermal)             CV                S
                      KCal/Mol        Cal/Mol-Kelvin    Cal/Mol-Kelvin
 Total                   17.026              4.968             48.717
 Electronic               0.000              0.000              1.377
 Translational            0.889              2.981             35.068
 Rotational               0.592              1.987             12.271
 Vibrational             15.544              0.000              0.000

 Normal termination of Gaussian 16 at Fri Aug 22 15:44:51 2025.
