 Gaussian 16, Revision C.01,
 Gaussian 16:  ES64L-G16RevC.01  3-Jul-2019

 -----------------------------------------
 # sp b3lyp/6-311g** Force nosymm scf=(qc)
 -----------------------------------------

 -------------------
 Title Card Required
 -------------------
 Symbolic Z-matrix:
 Charge =  0 Multiplicity = 2

                          Input orientation:
 ---------------------------------------------------------------------
 Center     Atomic      Atomic             Coordinates (Angstroms)
 Number     Number       Type             X           Y           Z
 ---------------------------------------------------------------------
      1          1           0        0.000000    0.000000    0.000000
      2          1           0       -2.350000    0.000000    0.000000
      3          9           0        2.550000    0.000000    0.000000
 ---------------------------------------------------------------------

 SCF Done:  E(UB3LYP) =  -100.772023751     a.u. after   17 cycles

 Alpha  occ. eigenvalues --  -24.72053  -1.18241  -0.51155  -0.42962  -0.42962
 Alpha  occ. eigenvalues --   -0.33964
 Alpha virt. eigenvalues --   -0.12118   0.24981   0.32891   0.90239   0.93466
 Alpha virt. eigenvalues --    0.93466   1.06444   1.23763   1.23763   1.26633
 Alpha virt. eigenvalues --    1.37244   1.37244   1.42443   2.13901   2.33429

  Beta  occ. eigenvalues --  -24.69184  -1.10065  -0.40099  -0.40099  -0.35088
  Beta virt. eigenvalues --   -0.23594  -0.10189   0.26087   0.34015   0.94851
  Beta virt. eigenvalues --    0.94851   0.97583   1.09562   1.22592   1.22592
  Beta virt. eigenvalues --    1.28722   1.40371   1.40371   1.43420   2.14101

 Mulliken charges and spin densities:
               1          2
     1  H    0.066824  -0.861670
     2  H    0.014531   0.954617
     3  F   -0.081355   0.907052
 Sum of Mulliken charges =   0.00000   1.00000

 Dipole moment (field-independent basis, Debye):
    X=             -1.2205    Y=             -0.0000    Z=             -0.0000  Tot=              1.2205
 Quadrupole moment (field-independent basis, Debye-Ang):
   XX=             -8.5889   YY=             -7.6301   ZZ=             -7.6301
   XY=             -0.0000   XZ=             -0.0000   YZ=              0.0000

  Exact polarizability:      48.499       0.000       2.012       0.000       0.000       2.012
 Approx polarizability:      50.086      -0.000       1.918      -0.000       0.000       1.918

 ******    2 imaginary frequencies (negative Signs) ******

                      1                      2                      3
                      A                      A                      A
 Frequencies --   -919.8724              -354.4948               361.3186
 Red. masses --      1.0136                 1.1016                 1.0170
 Frc consts  --      0.5053                 0.0816                 0.0782
 IR Inten    --     44.1091                34.7194                 3.3763

                      4
                      A
 Frequencies --    361.3186
 Red. masses --      1.0170
 Frc consts  --      0.0782
 IR Inten    --      3.3763

 - Thermochemistry -
 -------------------
 Temperature   298.150 Kelvin.  Pressure   1.00000 Atm.
 Atom     1 has atomic number  1 and mass   1.00783

 Molecular mass:    21.01405 amu.
 Principal axes and moments of inertia in atomic units:
                           1         2         3
     Eigenvalues --     0.00000 100.23463 100.23463
           X            1.00000  -0.00000   0.00000
           Y            0.00000   1.00000   0.00000
           Z            0.00000   0.00000   1.00000
 This molecule is a prolate symmetric top.
 Rotational symmetry number  1.
 Rotational temperature (Kelvin)      0.86411
 Rotational constant (GHZ):          18.005166
    2 imaginary frequencies ignored.
 Zero-point vibrational energy       4322.3 (Joules/Mol)
                                    1.03306 (Kcal/Mol)
 Warning -- explicit consideration of   2 degrees of freedom as
           vibrations may cause significant error
 Vibrational temperatures:    519.86   519.86
          (Kelvin)

 Zero-point correction=                           0.001646 (Hartree/Particle)
 Thermal correction to Energy=                    0.004705
 Thermal correction to Enthalpy=                  0.005649
 Thermal correction to Gibbs Free Energy=        -0.019190
 Sum of electronic and zero-point Energies=           -100.770377
 Sum of electronic and thermal Energies=              -100.767319
 Sum of electronic and thermal Enthalpies=            -100.766375
 Sum of electronic and thermal Free Energies=         -100.791214

                     E (Thermal)             CV                S
                      KCal/Mol        Cal/Mol-Kelvin    Cal/Mol-Kelvin
 Total                    2.952              8.072             52.278
 Electronic               0.000              0.000              1.377
 Translational            0.889              2.981             35.068
 Rotational               0.592              1.987             13.600
 Vibrational              1.471              3.104              2.233
 Vibration     1          0.735              1.552              1.116
 Vibration     2          0.735              1.552              1.116

 Normal termination of Gaussian 16 at Fri Aug 22 17:54:11 2025.
