 Gaussian 16, Revision C.01,
 Gaussian 16:  ES64L-G16RevC.01  3-Jul-2019

 -----------------------------------------
 # sp b3lyp/6-311g** Force nosymm scf=(qc)
 -----------------------------------------

 -------------------
 Title Card Required
 -------------------
 Symbolic Z-matrix:
 Charge =  0 Multiplicity = 2

                          Input orientation:
 ---------------------------------------------------------------------
 Center     Atomic      Atomic             Coordinates (Angstroms)
 Number     Number       Type             X           Y           Z
 ---------------------------------------------------------------------
      1          1           0        0.000000    0.000000    0.000000
      2          1           0       -2.950000    0.000000    0.000000
      3          9           0        2.150000    0.000000    0.000000
 ---------------------------------------------------------------------

 SCF Done:  E(UB3LYP) =  -100.777989757     a.u. after   19 cycles

 Alpha  occ. eigenvalues --  -24.66526  -1.08235  -0.37953  -0.37953  -0.37264
 Alpha  occ. eigenvalues --   -0.33367
 Alpha virt. eigenvalues --   -0.21497   0.21451   0.27577   0.91470   0.95803
 Alpha virt. eigenvalues --    0.95803   1.08538   1.21539   1.21539   1.23827
 Alpha virt. eigenvalues --    1.23827   1.24509   1.44942   2.12651   2.14639

  Beta  occ. eigenvalues --  -24.69077  -1.15414  -0.48113  -0.40478  -0.40478
  Beta virt. eigenvalues --   -0.13342  -0.04827   0.31724   0.39303   0.88965
  Beta virt. eigenvalues --    0.94821   0.94821   1.06539   1.37011   1.37011
  Beta virt. eigenvalues --    1.47194   1.47194   1.47634   1.54221   2.32487

 Mulliken charges and spin densities:
               1          2
     1  H    0.155907   0.807932
     2  H    0.005077   0.995045
     3  F   -0.160984  -0.802978
 Sum of Mulliken charges =   0.00000   1.00000

 Dipole moment (field-independent basis, Debye):
    X=             -1.8005    Y=             -0.0000    Z=              0.0000  Tot=              1.8005
 Quadrupole moment (field-independent basis, Debye-Ang):
   XX=             -9.9082   YY=             -7.5032   ZZ=             -7.5032
   XY=             -0.0000   XZ=             -0.0000   YZ=             -0.0000

  Exact polarizability:      33.396      -0.000       2.044      -0.000       0.000       2.044
 Approx polarizability:      45.673      -0.000       1.934       0.000       0.000       1.934

 ******    1 imaginary frequencies (negative Signs) ******

                      1                      2                      3
                      A                      A                      A
 Frequencies --   -897.4969               144.7104               375.2397
 Red. masses --      1.0622                 1.0494                 1.0222
 Frc consts  --      0.5041                 0.0129                 0.0848
 IR Inten    --     78.8102                 2.8312                21.8925

                      4
                      A
 Frequencies --    375.2397
 Red. masses --      1.0222
 Frc consts  --      0.0848
 IR Inten    --     21.8925

 - Thermochemistry -
 -------------------
 Temperature   298.150 Kelvin.  Pressure   1.00000 Atm.
 Atom     1 has atomic number  1 and mass   1.00783

 Molecular mass:    21.01405 amu.
 Principal axes and moments of inertia in atomic units:
                           1         2         3
     Eigenvalues --     0.00000 101.17398 101.17398
           X            1.00000  -0.00000   0.00000
           Y            0.00000   1.00000   0.00000
           Z            0.00000   0.00000   1.00000
 This molecule is a prolate symmetric top.
 Rotational symmetry number  1.
 Rotational temperature (Kelvin)      0.85609
 Rotational constant (GHZ):          17.837998
    1 imaginary frequencies ignored.
 Zero-point vibrational energy       5354.4 (Joules/Mol)
                                    1.27974 (Kcal/Mol)
 Warning -- explicit consideration of   3 degrees of freedom as
           vibrations may cause significant error
 Vibrational temperatures:    208.21   539.89   539.89
          (Kelvin)

 Zero-point correction=                           0.002039 (Hartree/Particle)
 Thermal correction to Energy=                    0.005721
 Thermal correction to Enthalpy=                  0.006665
 Thermal correction to Gibbs Free Energy=        -0.019430
 Sum of electronic and zero-point Energies=           -100.775950
 Sum of electronic and thermal Energies=              -100.772269
 Sum of electronic and thermal Enthalpies=            -100.771325
 Sum of electronic and thermal Free Energies=         -100.797419

                     E (Thermal)             CV                S
                      KCal/Mol        Cal/Mol-Kelvin    Cal/Mol-Kelvin
 Total                    3.590              9.922             54.921
 Electronic               0.000              0.000              1.377
 Translational            0.889              2.981             35.068
 Rotational               0.592              1.987             13.618
 Vibrational              2.109              4.954              4.857
 Vibration     1          0.616              1.908              2.741
 Vibration     2          0.746              1.523              1.058
 Vibration     3          0.746              1.523              1.058

 Normal termination of Gaussian 16 at Fri Aug 22 17:08:36 2025.
