 Gaussian 16, Revision C.01,
 Gaussian 16:  ES64L-G16RevC.01  3-Jul-2019

 -----------------------------------------
 # sp b3lyp/6-311g** Force nosymm scf=(qc)
 -----------------------------------------

 -------------------
 Title Card Required
 -------------------
 Symbolic Z-matrix:
 Charge =  0 Multiplicity = 2

                          Input orientation:
 ---------------------------------------------------------------------
 Center     Atomic      Atomic             Coordinates (Angstroms)
 Number     Number       Type             X           Y           Z
 ---------------------------------------------------------------------
      1          1           0        0.000000    0.000000    0.000000
      2          1           0       -3.600000    0.000000    0.000000
      3          9           0        2.900000    0.000000    0.000000
 ---------------------------------------------------------------------

 SCF Done:  E(UB3LYP) =  -100.761767155     a.u. after   21 cycles

 Alpha  occ. eigenvalues --  -24.73700  -1.19789  -0.52819  -0.44352  -0.44352
 Alpha  occ. eigenvalues --   -0.32576
 Alpha virt. eigenvalues --   -0.08407   0.23876   0.36024   0.89660   0.92505
 Alpha virt. eigenvalues --    0.92505   1.04470   1.24928   1.24928   1.25039
 Alpha virt. eigenvalues --    1.43612   1.43612   1.44103   2.14633   2.39675

  Beta  occ. eigenvalues --  -24.70700  -1.11199  -0.41351  -0.41351  -0.33993
  Beta virt. eigenvalues --   -0.24552  -0.06439   0.23900   0.37978   0.93957
  Beta virt. eigenvalues --    0.93957   0.98161   1.08063   1.23325   1.23325
  Beta virt. eigenvalues --    1.24160   1.45996   1.46241   1.46241   2.14558

 Mulliken charges and spin densities:
               1          2
     1  H    0.044779  -0.948725
     2  H    0.000404   0.998393
     3  F   -0.045182   0.950332
 Sum of Mulliken charges =  -0.00000   1.00000

 Dipole moment (field-independent basis, Debye):
    X=             -0.6793    Y=              0.0000    Z=              0.0000  Tot=              0.6793
 Quadrupole moment (field-independent basis, Debye-Ang):
   XX=             -8.5224   YY=             -7.6031   ZZ=             -7.6031
   XY=              0.0000   XZ=              0.0000   YZ=             -0.0000

  Exact polarizability:      31.948       0.000       2.025       0.000      -0.000       2.025
 Approx polarizability:      34.278       0.000       1.925       0.000       0.000       1.925

 ******    2 imaginary frequencies (negative Signs) ******

                      1                      2                      3
                      A                      A                      A
 Frequencies --   -411.7253              -107.0190               147.2100
 Red. masses --      1.0505                 1.0611                 1.0208
 Frc consts  --      0.1049                 0.0072                 0.0130
 IR Inten    --     46.8363                 0.3520                 1.9022

                      4
                      A
 Frequencies --    147.2100
 Red. masses --      1.0208
 Frc consts  --      0.0130
 IR Inten    --      1.9022

 - Thermochemistry -
 -------------------
 Temperature   298.150 Kelvin.  Pressure   1.00000 Atm.
 Atom     1 has atomic number  1 and mass   1.00783

 Molecular mass:    21.01405 amu.
 Principal axes and moments of inertia in atomic units:
                           1         2         3
     Eigenvalues --     0.00000 167.07423 167.07423
           X            1.00000  -0.00000   0.00000
           Y            0.00000   1.00000   0.00000
           Z            0.00000   0.00000   1.00000
 This molecule is a prolate symmetric top.
 Rotational symmetry number  1.
 Rotational temperature (Kelvin)      0.51842
 Rotational constant (GHZ):          10.802032
    2 imaginary frequencies ignored.
 Zero-point vibrational energy       1761.0 (Joules/Mol)
                                    0.42089 (Kcal/Mol)
 Warning -- explicit consideration of   2 degrees of freedom as
           vibrations may cause significant error
 Vibrational temperatures:    211.80   211.80
          (Kelvin)

 Zero-point correction=                           0.000671 (Hartree/Particle)
 Thermal correction to Energy=                    0.004328
 Thermal correction to Enthalpy=                  0.005272
 Thermal correction to Gibbs Free Energy=        -0.021562
 Sum of electronic and zero-point Energies=           -100.761096
 Sum of electronic and thermal Energies=              -100.757440
 Sum of electronic and thermal Enthalpies=            -100.756495
 Sum of electronic and thermal Free Energies=         -100.783329

                     E (Thermal)             CV                S
                      KCal/Mol        Cal/Mol-Kelvin    Cal/Mol-Kelvin
 Total                    2.716              8.779             56.476
 Electronic               0.000              0.000              1.377
 Translational            0.889              2.981             35.068
 Rotational               0.592              1.987             14.615
 Vibrational              1.234              3.811              5.416
 Vibration     1          0.617              1.906              2.708
 Vibration     2          0.617              1.906              2.708

 Normal termination of Gaussian 16 at Fri Aug 22 19:04:53 2025.
