 Gaussian 16, Revision C.01,
 Gaussian 16:  ES64L-G16RevC.01  3-Jul-2019

 -----------------------------------------
 # sp b3lyp/6-311g** Force nosymm scf=(qc)
 -----------------------------------------

 -------------------
 Title Card Required
 -------------------
 Symbolic Z-matrix:
 Charge =  0 Multiplicity = 2

                          Input orientation:
 ---------------------------------------------------------------------
 Center     Atomic      Atomic             Coordinates (Angstroms)
 Number     Number       Type             X           Y           Z
 ---------------------------------------------------------------------
      1          1           0        0.000000    0.000000    0.000000
      2          1           0       -1.000000    0.000000    0.000000
      3          9           0        1.150000    0.000000    0.000000
 ---------------------------------------------------------------------

 SCF Done:  E(UB3LYP) =  -100.950703482     a.u. after    6 cycles

 Alpha  occ. eigenvalues --  -24.65569  -1.15349  -0.56067  -0.39144  -0.39144
 Alpha  occ. eigenvalues --   -0.37620
 Alpha virt. eigenvalues --    0.09286   0.19021   0.38454   0.89728   0.89728
 Alpha virt. eigenvalues --    0.98283   1.08017   1.08017   1.36277   1.61647
 Alpha virt. eigenvalues --    1.62199   1.62199   2.25172   2.27692   2.67543

  Beta  occ. eigenvalues --  -24.64216  -1.11888  -0.49223  -0.37898  -0.37898
  Beta virt. eigenvalues --   -0.20563   0.11656   0.21214   0.42978   0.91063
  Beta virt. eigenvalues --    0.91063   1.01225   1.13078   1.13078   1.40509
  Beta virt. eigenvalues --    1.65939   1.65939   1.66733   2.25722   2.38035

 Mulliken charges and spin densities:
               1          2
     1  H    0.268859  -0.050790
     2  H    0.031780   0.670377
     3  F   -0.300639   0.380413
 Sum of Mulliken charges =  -0.00000   1.00000

 Dipole moment (field-independent basis, Debye):
    X=             -2.0954    Y=             -0.0000    Z=              0.0000  Tot=              2.0954
 Quadrupole moment (field-independent basis, Debye-Ang):
   XX=             -7.6544   YY=             -6.7867   ZZ=             -6.7867
   XY=             -0.0000   XZ=             -0.0000   YZ=             -0.0000

  Exact polarizability:      19.288      -0.000       2.532       0.000      -0.000       2.532
 Approx polarizability:      25.211       0.000       2.542       0.000       0.000       2.542

 ******    1 imaginary frequencies (negative Signs) ******

                      1                      2                      3
                      A                      A                      A
 Frequencies --  -1788.1186               836.8342               836.8342
 Red. masses --      1.0296                 1.0163                 1.0163
 Frc consts  --      1.9397                 0.4193                 0.4193
 IR Inten    --    170.2658                32.2340                32.2340

                      4
                      A
 Frequencies --   1340.5598
 Red. masses --      1.0833
 Frc consts  --      1.1470
 IR Inten    --     76.5360

 - Thermochemistry -
 -------------------
 Temperature   298.150 Kelvin.  Pressure   1.00000 Atm.
 Atom     1 has atomic number  1 and mass   1.00783

 Molecular mass:    21.01405 amu.
 Principal axes and moments of inertia in atomic units:
                           1         2         3
     Eigenvalues --     0.00000  19.51642  19.51642
           X            1.00000  -0.00000   0.00000
           Y            0.00000   1.00000   0.00000
           Z            0.00000   0.00000   1.00000
 This molecule is a prolate symmetric top.
 Rotational symmetry number  1.
 Rotational temperature (Kelvin)      4.43800
 Rotational constant (GHZ):          92.472981
    1 imaginary frequencies ignored.
 Zero-point vibrational energy      18029.1 (Joules/Mol)
                                    4.30906 (Kcal/Mol)
 Vibrational temperatures:   1204.02  1204.02  1928.77
          (Kelvin)

 Zero-point correction=                           0.006867 (Hartree/Particle)
 Thermal correction to Energy=                    0.009374
 Thermal correction to Enthalpy=                  0.010318
 Thermal correction to Gibbs Free Energy=        -0.012097
 Sum of electronic and zero-point Energies=           -100.943837
 Sum of electronic and thermal Energies=              -100.941330
 Sum of electronic and thermal Enthalpies=            -100.940386
 Sum of electronic and thermal Free Energies=         -100.962800

                     E (Thermal)             CV                S
                      KCal/Mol        Cal/Mol-Kelvin    Cal/Mol-Kelvin
 Total                    5.882              6.281             47.175
 Electronic               0.000              0.000              1.377
 Translational            0.889              2.981             35.068
 Rotational               0.592              1.987             10.348
 Vibrational              4.401              1.313              0.382

 Normal termination of Gaussian 16 at Fri Aug 22 16:07:01 2025.
