 Gaussian 16, Revision C.01,
 Gaussian 16:  ES64L-G16RevC.01  3-Jul-2019

 -----------------------------------------
 # sp b3lyp/6-311g** Force nosymm scf=(qc)
 -----------------------------------------

 -------------------
 Title Card Required
 -------------------
 Symbolic Z-matrix:
 Charge =  0 Multiplicity = 2

                          Input orientation:
 ---------------------------------------------------------------------
 Center     Atomic      Atomic             Coordinates (Angstroms)
 Number     Number       Type             X           Y           Z
 ---------------------------------------------------------------------
      1          1           0        0.000000    0.000000    0.000000
      2          1           0       -3.800000    0.000000    0.000000
      3          9           0        3.300000    0.000000    0.000000
 ---------------------------------------------------------------------

 SCF Done:  E(UB3LYP) =  -100.759441125     a.u. after   26 cycles

 Alpha  occ. eigenvalues --  -24.74972  -1.20966  -0.54093  -0.45418  -0.45418
 Alpha  occ. eigenvalues --   -0.32361
 Alpha virt. eigenvalues --   -0.06938   0.24054   0.36794   0.88270   0.91737
 Alpha virt. eigenvalues --    0.91737   1.02448   1.25136   1.25136   1.25183
 Alpha virt. eigenvalues --    1.45444   1.45444   1.45789   2.14610   2.41697

  Beta  occ. eigenvalues --  -24.71884  -1.12102  -0.42325  -0.42325  -0.33103
  Beta virt. eigenvalues --   -0.25264  -0.06070   0.23807   0.38135   0.93218
  Beta virt. eigenvalues --    0.93218   0.97259   1.06364   1.24283   1.24283
  Beta virt. eigenvalues --    1.24339   1.46412   1.46579   1.46579   2.14853

 Mulliken charges and spin densities:
               1          2
     1  H    0.019281  -0.977750
     2  H    0.000122   0.998998
     3  F   -0.019404   0.978752
 Sum of Mulliken charges =  -0.00000   1.00000

 Dipole moment (field-independent basis, Debye):
    X=             -0.3313    Y=             -0.0000    Z=              0.0000  Tot=              0.3313
 Quadrupole moment (field-independent basis, Debye-Ang):
   XX=             -7.7517   YY=             -7.6153   ZZ=             -7.6153
   XY=             -0.0000   XZ=              0.0000   YZ=              0.0000

  Exact polarizability:      27.525      -0.000       2.032       0.000      -0.000       2.032
 Approx polarizability:      24.049      -0.000       1.931       0.000      -0.000       1.931

 ******    2 imaginary frequencies (negative Signs) ******

                      1                      2                      3
                      A                      A                      A
 Frequencies --   -272.6328               -83.8535                85.1727
 Red. masses --      1.0469                 1.0648                 1.0197
 Frc consts  --      0.0458                 0.0044                 0.0044
 IR Inten    --     20.8012                 0.2858                 0.3463

                      4
                      A
 Frequencies --     85.1727
 Red. masses --      1.0197
 Frc consts  --      0.0044
 IR Inten    --      0.3463

 - Thermochemistry -
 -------------------
 Temperature   298.150 Kelvin.  Pressure   1.00000 Atm.
 Atom     1 has atomic number  1 and mass   1.00783

 Molecular mass:    21.01405 amu.
 Principal axes and moments of inertia in atomic units:
                           1         2         3
     Eigenvalues --     0.00000 201.95006 201.95006
           X            1.00000  -0.00000   0.00000
           Y            0.00000   1.00000   0.00000
           Z            0.00000   0.00000   1.00000
 This molecule is a prolate symmetric top.
 Rotational symmetry number  1.
 Rotational temperature (Kelvin)      0.42889
 Rotational constant (GHZ):           8.936572
    2 imaginary frequencies ignored.
 Zero-point vibrational energy       1018.9 (Joules/Mol)
                                    0.24352 (Kcal/Mol)
 Warning -- explicit consideration of   2 degrees of freedom as
           vibrations may cause significant error
 Vibrational temperatures:    122.54   122.54
          (Kelvin)

 Zero-point correction=                           0.000388 (Hartree/Particle)
 Thermal correction to Energy=                    0.004275
 Thermal correction to Enthalpy=                  0.005220
 Thermal correction to Gibbs Free Energy=        -0.022801
 Sum of electronic and zero-point Energies=           -100.759053
 Sum of electronic and thermal Energies=              -100.755166
 Sum of electronic and thermal Enthalpies=            -100.754222
 Sum of electronic and thermal Free Energies=         -100.782242

                     E (Thermal)             CV                S
                      KCal/Mol        Cal/Mol-Kelvin    Cal/Mol-Kelvin
 Total                    2.683              8.887             58.973
 Electronic               0.000              0.000              1.377
 Translational            0.889              2.981             35.068
 Rotational               0.592              1.987             14.992
 Vibrational              1.202              3.919              7.536
 Vibration     1          0.601              1.959              3.768
 Vibration     2          0.601              1.959              3.768

 Normal termination of Gaussian 16 at Fri Aug 22 20:50:24 2025.
