 Gaussian 16, Revision C.01,
 Gaussian 16:  ES64L-G16RevC.01  3-Jul-2019

 -----------------------------------------
 # sp b3lyp/6-311g** Force nosymm scf=(qc)
 -----------------------------------------

 -------------------
 Title Card Required
 -------------------
 Symbolic Z-matrix:
 Charge =  0 Multiplicity = 2

                          Input orientation:
 ---------------------------------------------------------------------
 Center     Atomic      Atomic             Coordinates (Angstroms)
 Number     Number       Type             X           Y           Z
 ---------------------------------------------------------------------
      1          1           0        0.000000    0.000000    0.000000
      2          1           0       -1.150000    0.000000    0.000000
      3          9           0        1.500000    0.000000    0.000000
 ---------------------------------------------------------------------

 SCF Done:  E(UB3LYP) =  -100.907729000     a.u. after   12 cycles

 Alpha  occ. eigenvalues --  -24.67602  -1.14642  -0.51052  -0.39789  -0.39667
 Alpha  occ. eigenvalues --   -0.39667
 Alpha virt. eigenvalues --   -0.00247   0.20106   0.32050   0.91096   0.91096
 Alpha virt. eigenvalues --    0.99318   1.09100   1.09100   1.11442   1.54649
 Alpha virt. eigenvalues --    1.54649   1.58485   2.11256   2.26639   2.49465

  Beta  occ. eigenvalues --  -24.65549  -1.09067  -0.42961  -0.37685  -0.37685
  Beta virt. eigenvalues --   -0.23107   0.02652   0.22152   0.33713   0.91815
  Beta virt. eigenvalues --    0.91815   1.04609   1.12975   1.12975   1.14889
  Beta virt. eigenvalues --    1.56632   1.56632   1.62423   2.14970   2.31041

 Mulliken charges and spin densities:
               1          2
     1  H    0.181435  -0.141687
     2  H    0.062507   0.513886
     3  F   -0.243942   0.627801
 Sum of Mulliken charges =   0.00000   1.00000

 Dipole moment (field-independent basis, Debye):
    X=             -2.1330    Y=             -0.0000    Z=              0.0000  Tot=              2.1330
 Quadrupole moment (field-independent basis, Debye-Ang):
   XX=             -7.6130   YY=             -7.1099   ZZ=             -7.1099
   XY=             -0.0000   XZ=              0.0000   YZ=             -0.0000

  Exact polarizability:      31.865      -0.000       2.368       0.000      -0.000       2.368
 Approx polarizability:      48.055      -0.000       2.340       0.000      -0.000       2.340

 ******    1 imaginary frequencies (negative Signs) ******

                      1                      2                      3
                      A                      A                      A
 Frequencies --  -2413.0870               512.8849              1243.9656
 Red. masses --      1.0256                 1.0878                 1.0150
 Frc consts  --      3.5185                 0.1686                 0.9254
 IR Inten    --    980.1534                35.1316                 8.8751

                      4
                      A
 Frequencies --   1243.9656
 Red. masses --      1.0150
 Frc consts  --      0.9254
 IR Inten    --      8.8751

 - Thermochemistry -
 -------------------
 Temperature   298.150 Kelvin.  Pressure   1.00000 Atm.
 Atom     1 has atomic number  1 and mass   1.00783

 Molecular mass:    21.01405 amu.
 Principal axes and moments of inertia in atomic units:
                           1         2         3
     Eigenvalues --     0.00000  30.39908  30.39908
           X            1.00000  -0.00000   0.00000
           Y            0.00000   1.00000   0.00000
           Z            0.00000   0.00000   1.00000
 This molecule is a prolate symmetric top.
 Rotational symmetry number  1.
 Rotational temperature (Kelvin)      2.84923
 Rotational constant (GHZ):          59.368276
    1 imaginary frequencies ignored.
 Zero-point vibrational energy      17948.9 (Joules/Mol)
                                    4.28988 (Kcal/Mol)
 Warning -- explicit consideration of   1 degrees of freedom as
           vibrations may cause significant error
 Vibrational temperatures:    737.93  1789.79  1789.79
          (Kelvin)

 Zero-point correction=                           0.006836 (Hartree/Particle)
 Thermal correction to Energy=                    0.009440
 Thermal correction to Enthalpy=                  0.010384
 Thermal correction to Gibbs Free Energy=        -0.012598
 Sum of electronic and zero-point Energies=           -100.900893
 Sum of electronic and thermal Energies=              -100.898289
 Sum of electronic and thermal Enthalpies=            -100.897345
 Sum of electronic and thermal Free Energies=         -100.920327

                     E (Thermal)             CV                S
                      KCal/Mol        Cal/Mol-Kelvin    Cal/Mol-Kelvin
 Total                    5.923              6.545             48.370
 Electronic               0.000              0.000              1.377
 Translational            0.889              2.981             35.068
 Rotational               0.592              1.987             11.229
 Vibrational              4.442              1.577              0.696
 Vibration     1          0.868              1.221              0.627

 Normal termination of Gaussian 16 at Fri Aug 22 16:24:44 2025.
