 Gaussian 16, Revision C.01,
 Gaussian 16:  ES64L-G16RevC.01  3-Jul-2019

 -----------------------------------------
 # sp b3lyp/6-311g** Force nosymm scf=(qc)
 -----------------------------------------

 -------------------
 Title Card Required
 -------------------
 Symbolic Z-matrix:
 Charge =  0 Multiplicity = 2

                          Input orientation:
 ---------------------------------------------------------------------
 Center     Atomic      Atomic             Coordinates (Angstroms)
 Number     Number       Type             X           Y           Z
 ---------------------------------------------------------------------
      1          1           0        0.000000    0.000000    0.000000
      2          1           0       -3.900000    0.000000    0.000000
      3          9           0        2.800000    0.000000    0.000000
 ---------------------------------------------------------------------

 SCF Done:  E(UB3LYP) =  -100.762589147     a.u. after   23 cycles

 Alpha  occ. eigenvalues --  -24.73272  -1.19391  -0.52389  -0.43994  -0.43994
 Alpha  occ. eigenvalues --   -0.32566
 Alpha virt. eigenvalues --   -0.08561   0.23741   0.35986   0.89827   0.92757
 Alpha virt. eigenvalues --    0.92757   1.05014   1.24933   1.24933   1.24959
 Alpha virt. eigenvalues --    1.42976   1.42976   1.44504   2.14298   2.39966

  Beta  occ. eigenvalues --  -24.70303  -1.10900  -0.41026  -0.41026  -0.34279
  Beta virt. eigenvalues --   -0.24298  -0.06052   0.23790   0.38117   0.94197
  Beta virt. eigenvalues --    0.94197   0.98037   1.08374   1.23029   1.23029
  Beta virt. eigenvalues --    1.24575   1.46492   1.46649   1.46649   2.13814

 Mulliken charges and spin densities:
               1          2
     1  H    0.054249  -0.939219
     2  H    0.000212   0.999233
     3  F   -0.054461   0.939986
 Sum of Mulliken charges =  -0.00000   1.00000

 Dipole moment (field-independent basis, Debye):
    X=             -0.7854    Y=             -0.0000    Z=             -0.0000  Tot=              0.7854
 Quadrupole moment (field-independent basis, Debye-Ang):
   XX=             -8.7577   YY=             -7.5941   ZZ=             -7.5941
   XY=             -0.0000   XZ=             -0.0000   YZ=             -0.0000

  Exact polarizability:      31.337      -0.000       2.025      -0.000      -0.000       2.025
 Approx polarizability:      35.562      -0.000       1.924      -0.000       0.000       1.924

 ******    2 imaginary frequencies (negative Signs) ******

                      1                      2                      3
                      A                      A                      A
 Frequencies --   -448.6786               -76.8697               163.5603
 Red. masses --      1.0552                 1.0564                 1.0224
 Frc consts  --      0.1252                 0.0037                 0.0161
 IR Inten    --     54.9696                 0.0727                 2.8562

                      4
                      A
 Frequencies --    163.5603
 Red. masses --      1.0224
 Frc consts  --      0.0161
 IR Inten    --      2.8562

 - Thermochemistry -
 -------------------
 Temperature   298.150 Kelvin.  Pressure   1.00000 Atm.
 Atom     1 has atomic number  1 and mass   1.00783

 Molecular mass:    21.01405 amu.
 Principal axes and moments of inertia in atomic units:
                           1         2         3
     Eigenvalues --     0.00000 174.19795 174.19795
           X            1.00000  -0.00000   0.00000
           Y            0.00000   1.00000   0.00000
           Z            0.00000   0.00000   1.00000
 This molecule is a prolate symmetric top.
 Rotational symmetry number  1.
 Rotational temperature (Kelvin)      0.49722
 Rotational constant (GHZ):          10.360290
    2 imaginary frequencies ignored.
 Zero-point vibrational energy       1956.6 (Joules/Mol)
                                    0.46764 (Kcal/Mol)
 Warning -- explicit consideration of   2 degrees of freedom as
           vibrations may cause significant error
 Vibrational temperatures:    235.33   235.33
          (Kelvin)

 Zero-point correction=                           0.000745 (Hartree/Particle)
 Thermal correction to Energy=                    0.004346
 Thermal correction to Enthalpy=                  0.005290
 Thermal correction to Gibbs Free Energy=        -0.021393
 Sum of electronic and zero-point Energies=           -100.761844
 Sum of electronic and thermal Energies=              -100.758243
 Sum of electronic and thermal Enthalpies=            -100.757299
 Sum of electronic and thermal Free Energies=         -100.783982

                     E (Thermal)             CV                S
                      KCal/Mol        Cal/Mol-Kelvin    Cal/Mol-Kelvin
 Total                    2.727              8.742             56.160
 Electronic               0.000              0.000              1.377
 Translational            0.889              2.981             35.068
 Rotational               0.592              1.987             14.698
 Vibrational              1.246              3.774              5.016
 Vibration     1          0.623              1.887              2.508
 Vibration     2          0.623              1.887              2.508

 Normal termination of Gaussian 16 at Fri Aug 22 18:45:00 2025.
