 Gaussian 16, Revision C.01,
 Gaussian 16:  ES64L-G16RevC.01  3-Jul-2019

 -----------------------------------------
 # sp b3lyp/6-311g** Force nosymm scf=(qc)
 -----------------------------------------

 -------------------
 Title Card Required
 -------------------
 Symbolic Z-matrix:
 Charge =  0 Multiplicity = 2

                          Input orientation:
 ---------------------------------------------------------------------
 Center     Atomic      Atomic             Coordinates (Angstroms)
 Number     Number       Type             X           Y           Z
 ---------------------------------------------------------------------
      1          1           0        0.000000    0.000000    0.000000
      2          1           0       -2.400000    0.000000    0.000000
      3          9           0        3.350000    0.000000    0.000000
 ---------------------------------------------------------------------

 SCF Done:  E(UB3LYP) =  -100.764526977     a.u. after   26 cycles

 Alpha  occ. eigenvalues --  -24.75186  -1.21162  -0.54306  -0.45598  -0.45598
 Alpha  occ. eigenvalues --   -0.32843
 Alpha virt. eigenvalues --   -0.10077   0.25695   0.33755   0.88140   0.91602
 Alpha virt. eigenvalues --    0.91602   1.02235   1.24858   1.24858   1.26167
 Alpha virt. eigenvalues --    1.40336   1.40336   1.42859   2.15262   2.36167

  Beta  occ. eigenvalues --  -24.72087  -1.12262  -0.42492  -0.42492  -0.33186
  Beta virt. eigenvalues --   -0.25397  -0.09470   0.25566   0.34597   0.93087
  Beta virt. eigenvalues --    0.93087   0.97217   1.06237   1.24436   1.24436
  Beta virt. eigenvalues --    1.25655   1.41283   1.41283   1.43790   2.16029

 Mulliken charges and spin densities:
               1          2
     1  H    0.011770  -0.942253
     2  H    0.003857   0.959781
     3  F   -0.015627   0.982472
 Sum of Mulliken charges =  -0.00000   1.00000

 Dipole moment (field-independent basis, Debye):
    X=             -0.3128    Y=              0.0000    Z=              0.0000  Tot=              0.3128
 Quadrupole moment (field-independent basis, Debye-Ang):
   XX=             -7.2477   YY=             -7.6725   ZZ=             -7.6725
   XY=             -0.0000   XZ=             -0.0000   YZ=             -0.0000

  Exact polarizability:      39.890      -0.000       2.018      -0.000      -0.000       2.018
 Approx polarizability:      31.095      -0.000       1.927      -0.000       0.000       1.927

 ******    2 imaginary frequencies (negative Signs) ******

                      1                      2                      3
                      A                      A                      A
 Frequencies --   -776.3787              -166.4358               289.1857
 Red. masses --      1.0081                 1.1082                 1.0144
 Frc consts  --      0.3580                 0.0181                 0.0500
 IR Inten    --     10.0214                10.3671                 0.0905

                      4
                      A
 Frequencies --    289.1857
 Red. masses --      1.0144
 Frc consts  --      0.0500
 IR Inten    --      0.0905

 - Thermochemistry -
 -------------------
 Temperature   298.150 Kelvin.  Pressure   1.00000 Atm.
 Atom     1 has atomic number  1 and mass   1.00783

 Molecular mass:    21.01405 amu.
 Principal axes and moments of inertia in atomic units:
                           1         2         3
     Eigenvalues --     0.00000 145.08851 145.08851
           X            1.00000  -0.00000   0.00000
           Y            0.00000   1.00000   0.00000
           Z            0.00000   0.00000   1.00000
 This molecule is a prolate symmetric top.
 Rotational symmetry number  1.
 Rotational temperature (Kelvin)      0.59697
 Rotational constant (GHZ):          12.438898
    2 imaginary frequencies ignored.
 Zero-point vibrational energy       3459.4 (Joules/Mol)
                                    0.82682 (Kcal/Mol)
 Warning -- explicit consideration of   2 degrees of freedom as
           vibrations may cause significant error
 Vibrational temperatures:    416.07   416.07
          (Kelvin)

 Zero-point correction=                           0.001318 (Hartree/Particle)
 Thermal correction to Energy=                    0.004546
 Thermal correction to Enthalpy=                  0.005490
 Thermal correction to Gibbs Free Energy=        -0.020042
 Sum of electronic and zero-point Energies=           -100.763209
 Sum of electronic and thermal Energies=              -100.759981
 Sum of electronic and thermal Enthalpies=            -100.759037
 Sum of electronic and thermal Free Energies=         -100.784569

                     E (Thermal)             CV                S
                      KCal/Mol        Cal/Mol-Kelvin    Cal/Mol-Kelvin
 Total                    2.853              8.356             53.738
 Electronic               0.000              0.000              1.377
 Translational            0.889              2.981             35.068
 Rotational               0.592              1.987             14.335
 Vibrational              1.371              3.388              2.957
 Vibration     1          0.686              1.694              1.479
 Vibration     2          0.686              1.694              1.479

 Normal termination of Gaussian 16 at Fri Aug 22 21:01:48 2025.
