 Gaussian 16, Revision C.01,
 Gaussian 16:  ES64L-G16RevC.01  3-Jul-2019

 -----------------------------------------
 # sp b3lyp/6-311g** Force nosymm scf=(qc)
 -----------------------------------------

 -------------------
 Title Card Required
 -------------------
 Symbolic Z-matrix:
 Charge =  0 Multiplicity = 2

                          Input orientation:
 ---------------------------------------------------------------------
 Center     Atomic      Atomic             Coordinates (Angstroms)
 Number     Number       Type             X           Y           Z
 ---------------------------------------------------------------------
      1          1           0        0.000000    0.000000    0.000000
      2          1           0       -1.950000    0.000000    0.000000
      3          9           0        3.200000    0.000000    0.000000
 ---------------------------------------------------------------------

 SCF Done:  E(UB3LYP) =  -100.777652351     a.u. after   28 cycles

 Alpha  occ. eigenvalues --  -24.75016  -1.21005  -0.54137  -0.45458  -0.45458
 Alpha  occ. eigenvalues --   -0.33471
 Alpha virt. eigenvalues --   -0.11449   0.25645   0.31669   0.88781   0.91698
 Alpha virt. eigenvalues --    0.91698   1.02833   1.14924   1.24489   1.24489
 Alpha virt. eigenvalues --    1.37084   1.37084   1.52906   2.12890   2.37271

  Beta  occ. eigenvalues --  -24.71933  -1.12153  -0.42369  -0.42369  -0.33541
  Beta virt. eigenvalues --   -0.25358  -0.11063   0.25794   0.32182   0.93176
  Beta virt. eigenvalues --    0.93176   0.97730   1.06806   1.14935   1.24378
  Beta virt. eigenvalues --    1.24378   1.37635   1.37635   1.53338   2.13836

 Mulliken charges and spin densities:
               1          2
     1  H    0.008364  -0.812028
     2  H    0.011274   0.834608
     3  F   -0.019639   0.977420
 Sum of Mulliken charges =  -0.00000   1.00000

 Dipole moment (field-independent basis, Debye):
    X=             -0.4266    Y=             -0.0000    Z=             -0.0000  Tot=              0.4266
 Quadrupole moment (field-independent basis, Debye-Ang):
   XX=             -6.9159   YY=             -7.7265   ZZ=             -7.7265
   XY=             -0.0000   XZ=             -0.0000   YZ=             -0.0000

  Exact polarizability:      54.611      -0.000       2.009      -0.000      -0.000       2.009
 Approx polarizability:      49.524      -0.000       1.938      -0.000      -0.000       1.938

 ******    2 imaginary frequencies (negative Signs) ******

                      1                      2                      3
                      A                      A                      A
 Frequencies --  -1453.1622              -189.4837               598.5915
 Red. masses --      1.0079                 1.1084                 1.0131
 Frc consts  --      1.2540                 0.0234                 0.2139
 IR Inten    --     29.5688                17.9861                 0.0122

                      4
                      A
 Frequencies --    598.5915
 Red. masses --      1.0131
 Frc consts  --      0.2139
 IR Inten    --      0.0122

 - Thermochemistry -
 -------------------
 Temperature   298.150 Kelvin.  Pressure   1.00000 Atm.
 Atom     1 has atomic number  1 and mass   1.00783

 Molecular mass:    21.01405 amu.
 Principal axes and moments of inertia in atomic units:
                           1         2         3
     Eigenvalues --     0.00000 120.27397 120.27397
           X            1.00000  -0.00000   0.00000
           Y            0.00000   1.00000   0.00000
           Z            0.00000   0.00000   1.00000
 This molecule is a prolate symmetric top.
 Rotational symmetry number  1.
 Rotational temperature (Kelvin)      0.72014
 Rotational constant (GHZ):          15.005252
    2 imaginary frequencies ignored.
 Zero-point vibrational energy       7160.7 (Joules/Mol)
                                    1.71146 (Kcal/Mol)
 Warning -- explicit consideration of   2 degrees of freedom as
           vibrations may cause significant error
 Vibrational temperatures:    861.24   861.24
          (Kelvin)

 Zero-point correction=                           0.002727 (Hartree/Particle)
 Thermal correction to Energy=                    0.005409
 Thermal correction to Enthalpy=                  0.006353
 Thermal correction to Gibbs Free Energy=        -0.018026
 Sum of electronic and zero-point Energies=           -100.774925
 Sum of electronic and thermal Energies=              -100.772243
 Sum of electronic and thermal Enthalpies=            -100.771299
 Sum of electronic and thermal Free Energies=         -100.795679

                     E (Thermal)             CV                S
                      KCal/Mol        Cal/Mol-Kelvin    Cal/Mol-Kelvin
 Total                    3.394              7.038             51.312
 Electronic               0.000              0.000              1.377
 Translational            0.889              2.981             35.068
 Rotational               0.592              1.987             13.962
 Vibrational              1.913              2.070              0.904
 Vibration     1          0.957              1.035              0.452
 Vibration     2          0.957              1.035              0.452

 Normal termination of Gaussian 16 at Fri Aug 22 20:23:02 2025.
