 Gaussian 16, Revision C.01,
 Gaussian 16:  ES64L-G16RevC.01  3-Jul-2019

 -----------------------------------------
 # sp b3lyp/6-311g** Force nosymm scf=(qc)
 -----------------------------------------

 -------------------
 Title Card Required
 -------------------
 Symbolic Z-matrix:
 Charge =  0 Multiplicity = 2

                          Input orientation:
 ---------------------------------------------------------------------
 Center     Atomic      Atomic             Coordinates (Angstroms)
 Number     Number       Type             X           Y           Z
 ---------------------------------------------------------------------
      1          1           0        0.000000    0.000000    0.000000
      2          1           0       -1.700000    0.000000    0.000000
      3          9           0        2.400000    0.000000    0.000000
 ---------------------------------------------------------------------

 SCF Done:  E(UB3LYP) =  -100.802703088     a.u. after   16 cycles

 Alpha  occ. eigenvalues --  -24.71849  -1.18054  -0.51000  -0.42800  -0.42800
 Alpha  occ. eigenvalues --   -0.35809
 Alpha virt. eigenvalues --   -0.12288   0.24043   0.31185   0.88259   0.93498
 Alpha virt. eigenvalues --    0.93498   1.03117   1.16845   1.21016   1.21016
 Alpha virt. eigenvalues --    1.35591   1.35591   1.65333   2.14331   2.40156

  Beta  occ. eigenvalues --  -24.69016  -1.09993  -0.39976  -0.39976  -0.35513
  Beta virt. eigenvalues --   -0.23892  -0.11501   0.26027   0.30644   0.93798
  Beta virt. eigenvalues --    0.94840   0.94840   1.06386   1.20707   1.21703
  Beta virt. eigenvalues --    1.21703   1.36347   1.36347   1.65984   2.15260

 Mulliken charges and spin densities:
               1          2
     1  H    0.045876  -0.567734
     2  H    0.042613   0.673047
     3  F   -0.088489   0.894686
 Sum of Mulliken charges =  -0.00000   1.00000

 Dipole moment (field-independent basis, Debye):
    X=             -1.4236    Y=             -0.0000    Z=             -0.0000  Tot=              1.4236
 Quadrupole moment (field-independent basis, Debye-Ang):
   XX=             -7.6554   YY=             -7.6654   ZZ=             -7.6654
   XY=             -0.0000   XZ=             -0.0000   YZ=             -0.0000

  Exact polarizability:      61.575      -0.000       2.029      -0.000      -0.000       2.029
 Approx polarizability:      79.233       0.000       1.975       0.000       0.000       1.975

 ******    2 imaginary frequencies (negative Signs) ******

                      1                      2                      3
                      A                      A                      A
 Frequencies --  -1923.1086              -399.2293               870.0776
 Red. masses --      1.0087                 1.1074                 1.0143
 Frc consts  --      2.1980                 0.1040                 0.4524
 IR Inten    --    277.2486                48.1169                 0.5727

                      4
                      A
 Frequencies --    870.0776
 Red. masses --      1.0143
 Frc consts  --      0.4524
 IR Inten    --      0.5727

 - Thermochemistry -
 -------------------
 Temperature   298.150 Kelvin.  Pressure   1.00000 Atm.
 Atom     1 has atomic number  1 and mass   1.00783

 Molecular mass:    21.01405 amu.
 Principal axes and moments of inertia in atomic units:
                           1         2         3
     Eigenvalues --     0.00000  73.93698  73.93698
           X            1.00000  -0.00000   0.00000
           Y            0.00000   1.00000   0.00000
           Z            0.00000   0.00000   1.00000
 This molecule is a prolate symmetric top.
 Rotational symmetry number  1.
 Rotational temperature (Kelvin)      1.17146
 Rotational constant (GHZ):          24.409182
    2 imaginary frequencies ignored.
 Zero-point vibrational energy      10408.4 (Joules/Mol)
                                    2.48768 (Kcal/Mol)
 Vibrational temperatures:   1251.85  1251.85
          (Kelvin)

 Zero-point correction=                           0.003964 (Hartree/Particle)
 Thermal correction to Energy=                    0.006446
 Thermal correction to Enthalpy=                  0.007390
 Thermal correction to Gibbs Free Energy=        -0.016250
 Sum of electronic and zero-point Energies=           -100.798739
 Sum of electronic and thermal Energies=              -100.796257
 Sum of electronic and thermal Enthalpies=            -100.795313
 Sum of electronic and thermal Free Energies=         -100.818953

                     E (Thermal)             CV                S
                      KCal/Mol        Cal/Mol-Kelvin    Cal/Mol-Kelvin
 Total                    4.045              6.052             49.755
 Electronic               0.000              0.000              1.377
 Translational            0.889              2.981             35.068
 Rotational               0.592              1.987             12.995
 Vibrational              2.564              1.084              0.315

 Normal termination of Gaussian 16 at Fri Aug 22 17:31:51 2025.
