 Gaussian 16, Revision C.01,
 Gaussian 16:  ES64L-G16RevC.01  3-Jul-2019

 -----------------------------------------
 # sp b3lyp/6-311g** Force nosymm scf=(qc)
 -----------------------------------------

 -------------------
 Title Card Required
 -------------------
 Symbolic Z-matrix:
 Charge =  0 Multiplicity = 2

                          Input orientation:
 ---------------------------------------------------------------------
 Center     Atomic      Atomic             Coordinates (Angstroms)
 Number     Number       Type             X           Y           Z
 ---------------------------------------------------------------------
      1          1           0        0.000000    0.000000    0.000000
      2          1           0       -3.250000    0.000000    0.000000
      3          9           0        2.050000    0.000000    0.000000
 ---------------------------------------------------------------------

 SCF Done:  E(UB3LYP) =  -100.784401839     a.u. after   18 cycles

 Alpha  occ. eigenvalues --  -24.68631  -1.14954  -0.47637  -0.40102  -0.40102
 Alpha  occ. eigenvalues --   -0.33583
 Alpha virt. eigenvalues --   -0.13353   0.22713   0.32336   0.88678   0.94799
 Alpha virt. eigenvalues --    0.94799   1.05860   1.23943   1.23943   1.24272
 Alpha virt. eigenvalues --    1.35912   1.35912   1.58077   2.14267   2.30339

  Beta  occ. eigenvalues --  -24.66182  -1.08091  -0.37684  -0.37684  -0.37613
  Beta virt. eigenvalues --   -0.21082  -0.07501   0.23141   0.37461   0.90482
  Beta virt. eigenvalues --    0.95572   0.95572   1.08241   1.21775   1.21775
  Beta virt. eigenvalues --    1.44536   1.45212   1.45212   1.50797   2.12244

 Mulliken charges and spin densities:
               1          2
     1  H    0.177031  -0.765938
     2  H    0.002878   0.995636
     3  F   -0.179909   0.770302
 Sum of Mulliken charges =  -0.00000   1.00000

 Dipole moment (field-independent basis, Debye):
    X=             -1.8740    Y=             -0.0000    Z=              0.0000  Tot=              1.8740
 Quadrupole moment (field-independent basis, Debye-Ang):
   XX=             -9.8933   YY=             -7.5044   ZZ=             -7.5044
   XY=              0.0000   XZ=             -0.0000   YZ=              0.0000

  Exact polarizability:      27.898       0.000       2.054      -0.000      -0.000       2.054
 Approx polarizability:      38.616       0.000       1.941      -0.000      -0.000       1.941

 ******    2 imaginary frequencies (negative Signs) ******

                      1                      2                      3
                      A                      A                      A
 Frequencies --  -1059.7486              -162.1260               446.0954
 Red. masses --      1.0558                 1.0558                 1.0244
 Frc consts  --      0.6986                 0.0164                 0.1201
 IR Inten    --    115.2804                 0.7784                28.9276

                      4
                      A
 Frequencies --    446.0954
 Red. masses --      1.0244
 Frc consts  --      0.1201
 IR Inten    --     28.9276

 - Thermochemistry -
 -------------------
 Temperature   298.150 Kelvin.  Pressure   1.00000 Atm.
 Atom     1 has atomic number  1 and mass   1.00783

 Molecular mass:    21.01405 amu.
 Principal axes and moments of inertia in atomic units:
                           1         2         3
     Eigenvalues --     0.00000 106.89633 106.89633
           X            1.00000  -0.00000   0.00000
           Y            0.00000   1.00000   0.00000
           Z            0.00000   0.00000   1.00000
 This molecule is a prolate symmetric top.
 Rotational symmetry number  1.
 Rotational temperature (Kelvin)      0.81026
 Rotational constant (GHZ):          16.883098
    2 imaginary frequencies ignored.
 Zero-point vibrational energy       5336.5 (Joules/Mol)
                                    1.27545 (Kcal/Mol)
 Warning -- explicit consideration of   2 degrees of freedom as
           vibrations may cause significant error
 Vibrational temperatures:    641.83   641.83
          (Kelvin)

 Zero-point correction=                           0.002033 (Hartree/Particle)
 Thermal correction to Energy=                    0.004927
 Thermal correction to Enthalpy=                  0.005872
 Thermal correction to Gibbs Free Energy=        -0.018735
 Sum of electronic and zero-point Energies=           -100.782369
 Sum of electronic and thermal Energies=              -100.779475
 Sum of electronic and thermal Enthalpies=            -100.778530
 Sum of electronic and thermal Free Energies=         -100.803137

                     E (Thermal)             CV                S
                      KCal/Mol        Cal/Mol-Kelvin    Cal/Mol-Kelvin
 Total                    3.092              7.707             51.788
 Electronic               0.000              0.000              1.377
 Translational            0.889              2.981             35.068
 Rotational               0.592              1.987             13.728
 Vibrational              1.611              2.739              1.615
 Vibration     1          0.805              1.370              0.808
 Vibration     2          0.805              1.370              0.808

 Normal termination of Gaussian 16 at Fri Aug 22 17:01:24 2025.
