 Gaussian 16, Revision C.01,
 Gaussian 16:  ES64L-G16RevC.01  3-Jul-2019

 -----------------------------------------
 # sp b3lyp/6-311g** Force nosymm scf=(qc)
 -----------------------------------------

 -------------------
 Title Card Required
 -------------------
 Symbolic Z-matrix:
 Charge =  0 Multiplicity = 2

                          Input orientation:
 ---------------------------------------------------------------------
 Center     Atomic      Atomic             Coordinates (Angstroms)
 Number     Number       Type             X           Y           Z
 ---------------------------------------------------------------------
      1          1           0        0.000000    0.000000    0.000000
      2          1           0       -3.900000    0.000000    0.000000
      3          9           0        1.000000    0.000000    0.000000
 ---------------------------------------------------------------------

 SCF Done:  E(UB3LYP) =  -100.966115704     a.u. after    6 cycles

 Alpha  occ. eigenvalues --  -24.64196  -1.16069  -0.51663  -0.38815  -0.38815
 Alpha  occ. eigenvalues --   -0.33416
 Alpha virt. eigenvalues --    0.00540   0.23488   0.34577   0.94026   0.94026
 Alpha virt. eigenvalues --    0.98561   1.24027   1.24091   1.24091   1.28958
 Alpha virt. eigenvalues --    1.35911   1.35911   1.89876   2.13930   2.33770

  Beta  occ. eigenvalues --  -24.64196  -1.16067  -0.51661  -0.38814  -0.38814
  Beta virt. eigenvalues --   -0.05103   0.00834   0.33176   0.39764   0.94026
  Beta virt. eigenvalues --    0.94026   0.98563   1.28922   1.35910   1.35910
  Beta virt. eigenvalues --    1.50307   1.50763   1.50763   1.89934   2.33377

 Mulliken charges and spin densities:
               1          2
     1  H    0.320331   0.000244
     2  H    0.000422   0.999534
     3  F   -0.320753   0.000222
 Sum of Mulliken charges =   0.00000   1.00000

 Dipole moment (field-independent basis, Debye):
    X=             -2.0274    Y=             -0.0000    Z=              0.0000  Tot=              2.0274
 Quadrupole moment (field-independent basis, Debye-Ang):
   XX=             -8.2678   YY=             -6.9622   ZZ=             -6.9622
   XY=             -0.0000   XZ=              0.0000   YZ=             -0.0000

  Exact polarizability:       6.373      -0.000       2.396      -0.000       0.000       2.396
 Approx polarizability:       7.934       0.000       2.367       0.000       0.000       2.367

 ******    1 imaginary frequencies (negative Signs) ******

                      1                      2                      3
                      A                      A                      A
 Frequencies --    -29.3749               987.5428               987.5428
 Red. masses --      1.0532                 1.0386                 1.0386
 Frc consts  --      0.0005                 0.5968                 0.5968
 IR Inten    --      0.0149               170.9601               170.9601

                      4
                      A
 Frequencies --   3027.5685
 Red. masses --      1.0583
 Frc consts  --      5.7155
 IR Inten    --     86.3804

 - Thermochemistry -
 -------------------
 Temperature   298.150 Kelvin.  Pressure   1.00000 Atm.
 Atom     1 has atomic number  1 and mass   1.00783

 Molecular mass:    21.01405 amu.
 Principal axes and moments of inertia in atomic units:
                           1         2         3
     Eigenvalues --     0.00000  84.00276  84.00276
           X            1.00000  -0.00000   0.00000
           Y            0.00000   1.00000   0.00000
           Z            0.00000   0.00000   1.00000
 This molecule is a prolate symmetric top.
 Rotational symmetry number  1.
 Rotational temperature (Kelvin)      1.03108
 Rotational constant (GHZ):          21.484309
    1 imaginary frequencies ignored.
 Zero-point vibrational energy      29922.5 (Joules/Mol)
                                    7.15165 (Kcal/Mol)
 Vibrational temperatures:   1420.85  1420.85  4356.00
          (Kelvin)

 Zero-point correction=                           0.011397 (Hartree/Particle)
 Thermal correction to Energy=                    0.013835
 Thermal correction to Enthalpy=                  0.014779
 Thermal correction to Gibbs Free Energy=        -0.008926
 Sum of electronic and zero-point Energies=           -100.954719
 Sum of electronic and thermal Energies=              -100.952281
 Sum of electronic and thermal Enthalpies=            -100.951337
 Sum of electronic and thermal Free Energies=         -100.975042

                     E (Thermal)             CV                S
                      KCal/Mol        Cal/Mol-Kelvin    Cal/Mol-Kelvin
 Total                    8.681              5.750             49.891
 Electronic               0.000              0.000              1.377
 Translational            0.889              2.981             35.068
 Rotational               0.592              1.987             13.249
 Vibrational              7.200              0.782              0.197

 Normal termination of Gaussian 16 at Fri Aug 22 16:01:46 2025.
