 Gaussian 16, Revision C.01,
 Gaussian 16:  ES64L-G16RevC.01  3-Jul-2019

 -----------------------------------------
 # sp b3lyp/6-311g** Force nosymm scf=(qc)
 -----------------------------------------

 -------------------
 Title Card Required
 -------------------
 Symbolic Z-matrix:
 Charge =  0 Multiplicity = 2

                          Input orientation:
 ---------------------------------------------------------------------
 Center     Atomic      Atomic             Coordinates (Angstroms)
 Number     Number       Type             X           Y           Z
 ---------------------------------------------------------------------
      1          1           0        0.000000    0.000000    0.000000
      2          1           0       -2.800000    0.000000    0.000000
      3          9           0        1.250000    0.000000    0.000000
 ---------------------------------------------------------------------

 SCF Done:  E(UB3LYP) =  -100.913814684     a.u. after    6 cycles

 Alpha  occ. eigenvalues --  -24.64255  -1.11566  -0.46838  -0.37193  -0.37193
 Alpha  occ. eigenvalues --   -0.34781
 Alpha virt. eigenvalues --   -0.06962   0.23494   0.28095   0.93149   0.93149
 Alpha virt. eigenvalues --    1.01498   1.22060   1.22750   1.22750   1.26870
 Alpha virt. eigenvalues --    1.34370   1.34370   1.72052   2.13907   2.27304

  Beta  occ. eigenvalues --  -24.64227  -1.11497  -0.46740  -0.37168  -0.37168
  Beta virt. eigenvalues --   -0.10710  -0.04342   0.26980   0.37139   0.93146
  Beta virt. eigenvalues --    0.93146   1.01563   1.25222   1.34305   1.34305
  Beta virt. eigenvalues --    1.44800   1.44800   1.44891   1.72324   2.27200

 Mulliken charges and spin densities:
               1          2
     1  H    0.352489  -0.001118
     2  H    0.006289   0.992564
     3  F   -0.358777   0.008554
 Sum of Mulliken charges =  -0.00000   1.00000

 Dipole moment (field-independent basis, Debye):
    X=             -2.4248    Y=              0.0000    Z=             -0.0000  Tot=              2.4248
 Quadrupole moment (field-independent basis, Debye-Ang):
   XX=             -8.8195   YY=             -7.1641   ZZ=             -7.1641
   XY=              0.0000   XZ=              0.0000   YZ=             -0.0000

  Exact polarizability:      12.475      -0.000       2.314       0.000       0.000       2.314
 Approx polarizability:      17.192      -0.000       2.266      -0.000      -0.000       2.266

 ******    1 imaginary frequencies (negative Signs) ******

                      1                      2                      3
                      A                      A                      A
 Frequencies --   -164.9991               381.4109              1172.3390
 Red. masses --      1.0321                 1.0806                 1.0299
 Frc consts  --      0.0166                 0.0926                 0.8340
 IR Inten    --     10.5206                83.3219               132.4072

                      4
                      A
 Frequencies --   1172.3390
 Red. masses --      1.0299
 Frc consts  --      0.8340
 IR Inten    --    132.4072

 - Thermochemistry -
 -------------------
 Temperature   298.150 Kelvin.  Pressure   1.00000 Atm.
 Atom     1 has atomic number  1 and mass   1.00783

 Molecular mass:    21.01405 amu.
 Principal axes and moments of inertia in atomic units:
                           1         2         3
     Eigenvalues --     0.00000  59.80766  59.80766
           X            1.00000  -0.00000   0.00000
           Y            0.00000   1.00000   0.00000
           Z            0.00000   0.00000   1.00000
 This molecule is a prolate symmetric top.
 Rotational symmetry number  1.
 Rotational temperature (Kelvin)      1.44821
 Rotational constant (GHZ):          30.175753
    1 imaginary frequencies ignored.
 Zero-point vibrational energy      16305.6 (Joules/Mol)
                                    3.89714 (Kcal/Mol)
 Warning -- explicit consideration of   1 degrees of freedom as
           vibrations may cause significant error
 Vibrational temperatures:    548.77  1686.73  1686.73
          (Kelvin)

 Zero-point correction=                           0.006210 (Hartree/Particle)
 Thermal correction to Energy=                    0.008936
 Thermal correction to Enthalpy=                  0.009880
 Thermal correction to Gibbs Free Energy=        -0.013945
 Sum of electronic and zero-point Energies=           -100.907604
 Sum of electronic and thermal Energies=              -100.904878
 Sum of electronic and thermal Enthalpies=            -100.903934
 Sum of electronic and thermal Free Energies=         -100.927760

                     E (Thermal)             CV                S
                      KCal/Mol        Cal/Mol-Kelvin    Cal/Mol-Kelvin
 Total                    5.608              6.925             50.145
 Electronic               0.000              0.000              1.377
 Translational            0.889              2.981             35.068
 Rotational               0.592              1.987             12.574
 Vibrational              4.126              1.957              1.126
 Vibration     1          0.751              1.510              1.034

 Normal termination of Gaussian 16 at Fri Aug 22 16:13:08 2025.
