 Gaussian 16, Revision C.01,
 Gaussian 16:  ES64L-G16RevC.01  3-Jul-2019

 -----------------------------------------
 # sp b3lyp/6-311g** Force nosymm scf=(qc)
 -----------------------------------------

 -------------------
 Title Card Required
 -------------------
 Symbolic Z-matrix:
 Charge =  0 Multiplicity = 2

                          Input orientation:
 ---------------------------------------------------------------------
 Center     Atomic      Atomic             Coordinates (Angstroms)
 Number     Number       Type             X           Y           Z
 ---------------------------------------------------------------------
      1          1           0        0.000000    0.000000    0.000000
      2          1           0       -2.350000    0.000000    0.000000
      3          9           0        1.800000    0.000000    0.000000
 ---------------------------------------------------------------------

 SCF Done:  E(UB3LYP) =  -100.809296353     a.u. after   20 cycles

 Alpha  occ. eigenvalues --  -24.66344  -1.12566  -0.45260  -0.38120  -0.38120
 Alpha  occ. eigenvalues --   -0.35822
 Alpha virt. eigenvalues --   -0.14282   0.23726   0.29250   0.93471   0.94983
 Alpha virt. eigenvalues --    0.94983   1.06276   1.21862   1.21862   1.26013
 Alpha virt. eigenvalues --    1.33770   1.33770   1.69751   2.12341   2.26294

  Beta  occ. eigenvalues --  -24.64422  -1.07271  -0.38971  -0.36244  -0.36244
  Beta virt. eigenvalues --   -0.19580  -0.10252   0.24720   0.33933   0.94905
  Beta virt. eigenvalues --    0.95050   0.95050   1.08580   1.24368   1.24368
  Beta virt. eigenvalues --    1.39800   1.39800   1.42358   1.65430   2.13089

 Mulliken charges and spin densities:
               1          2
     1  H    0.228256  -0.561668
     2  H    0.027387   0.957353
     3  F   -0.255642   0.604315
 Sum of Mulliken charges =   0.00000   1.00000

 Dipole moment (field-independent basis, Debye):
    X=             -2.5581    Y=              0.0000    Z=             -0.0000  Tot=              2.5581
 Quadrupole moment (field-independent basis, Debye-Ang):
   XX=             -9.3292   YY=             -7.4691   ZZ=             -7.4691
   XY=             -0.0000   XZ=              0.0000   YZ=             -0.0000

  Exact polarizability:      36.538      -0.000       2.102       0.000      -0.000       2.102
 Approx polarizability:      46.416      -0.000       2.000       0.000       0.000       2.000

 ******    2 imaginary frequencies (negative Signs) ******

                      1                      2                      3
                      A                      A                      A
 Frequencies --  -1597.5455              -443.3601               674.3955
 Red. masses --      1.0450                 1.0668                 1.0215
 Frc consts  --      1.5713                 0.1235                 0.2737
 IR Inten    --     88.5256                15.7444                41.0553

                      4
                      A
 Frequencies --    674.3955
 Red. masses --      1.0215
 Frc consts  --      0.2737
 IR Inten    --     41.0553

 - Thermochemistry -
 -------------------
 Temperature   298.150 Kelvin.  Pressure   1.00000 Atm.
 Atom     1 has atomic number  1 and mass   1.00783

 Molecular mass:    21.01405 amu.
 Principal axes and moments of inertia in atomic units:
                           1         2         3
     Eigenvalues --     0.00000  67.53400  67.53400
           X            1.00000  -0.00000   0.00000
           Y            0.00000   1.00000   0.00000
           Z            0.00000   0.00000   1.00000
 This molecule is a prolate symmetric top.
 Rotational symmetry number  1.
 Rotational temperature (Kelvin)      1.28252
 Rotational constant (GHZ):          26.723448
    2 imaginary frequencies ignored.
 Zero-point vibrational energy       8067.6 (Joules/Mol)
                                    1.92819 (Kcal/Mol)
 Vibrational temperatures:    970.30   970.30
          (Kelvin)

 Zero-point correction=                           0.003073 (Hartree/Particle)
 Thermal correction to Energy=                    0.005680
 Thermal correction to Enthalpy=                  0.006624
 Thermal correction to Gibbs Free Energy=        -0.017102
 Sum of electronic and zero-point Energies=           -100.806224
 Sum of electronic and thermal Energies=              -100.803616
 Sum of electronic and thermal Enthalpies=            -100.802672
 Sum of electronic and thermal Free Energies=         -100.826399

                     E (Thermal)             CV                S
                      KCal/Mol        Cal/Mol-Kelvin    Cal/Mol-Kelvin
 Total                    3.564              6.726             49.936
 Electronic               0.000              0.000              1.377
 Translational            0.889              2.981             35.068
 Rotational               0.592              1.987             12.815
 Vibrational              2.083              1.758              0.676

 Normal termination of Gaussian 16 at Fri Aug 22 16:43:51 2025.
