 Gaussian 16, Revision C.01,
 Gaussian 16:  ES64L-G16RevC.01  3-Jul-2019

 -----------------------------------------
 # sp b3lyp/6-311g** Force nosymm scf=(qc)
 -----------------------------------------

 -------------------
 Title Card Required
 -------------------
 Symbolic Z-matrix:
 Charge =  0 Multiplicity = 2

                          Input orientation:
 ---------------------------------------------------------------------
 Center     Atomic      Atomic             Coordinates (Angstroms)
 Number     Number       Type             X           Y           Z
 ---------------------------------------------------------------------
      1          1           0        0.000000    0.000000    0.000000
      2          1           0       -2.600000    0.000000    0.000000
      3          9           0        0.900000    0.000000    0.000000
 ---------------------------------------------------------------------

 SCF Done:  E(UB3LYP) =  -100.971733620     a.u. after    5 cycles

 Alpha  occ. eigenvalues --  -24.63919  -1.18979  -0.53828  -0.39585  -0.39585
 Alpha  occ. eigenvalues --   -0.34657
 Alpha virt. eigenvalues --    0.04166   0.25305   0.39421   0.94400   0.94400
 Alpha virt. eigenvalues --    0.97694   1.19996   1.22890   1.22890   1.37337
 Alpha virt. eigenvalues --    1.37337   1.37506   2.01407   2.13969   2.37483

  Beta  occ. eigenvalues --  -24.63906  -1.18946  -0.53778  -0.39575  -0.39575
  Beta virt. eigenvalues --   -0.08834   0.05705   0.37143   0.40098   0.94401
  Beta virt. eigenvalues --    0.94401   0.97749   1.29401   1.37321   1.37321
  Beta virt. eigenvalues --    1.45610   1.45610   1.51786   2.01400   2.36762

 Mulliken charges and spin densities:
               1          2
     1  H    0.291907   0.002921
     2  H    0.004970   0.992941
     3  F   -0.296877   0.004138
 Sum of Mulliken charges =   0.00000   1.00000

 Dipole moment (field-independent basis, Debye):
    X=             -1.9494    Y=              0.0000    Z=             -0.0000  Tot=              1.9494
 Quadrupole moment (field-independent basis, Debye-Ang):
   XX=             -7.7231   YY=             -6.8636   ZZ=             -6.8636
   XY=              0.0000   XZ=             -0.0000   YZ=              0.0000

  Exact polarizability:       7.189      -0.000       2.450      -0.000      -0.000       2.450
 Approx polarizability:       7.887      -0.000       2.431       0.000      -0.000       2.431

 ******    3 imaginary frequencies (negative Signs) ******

                      1                      2                      3
                      A                      A                      A
 Frequencies --   -624.8174              -624.8174               -45.1449
 Red. masses --      1.0340                 1.0340                 1.0532
 Frc consts  --      0.2378                 0.2378                 0.0013
 IR Inten    --    169.5926               169.5926                 0.4927

                      4
                      A
 Frequencies --   4426.7208
 Red. masses --      1.0584
 Frc consts  --     12.2199
 IR Inten    --    122.8807

 - Thermochemistry -
 -------------------
 Temperature   298.150 Kelvin.  Pressure   1.00000 Atm.
 Atom     1 has atomic number  1 and mass   1.00783

 Molecular mass:    21.01405 amu.
 Principal axes and moments of inertia in atomic units:
                           1         2         3
     Eigenvalues --     0.00000  43.66138  43.66138
           X            1.00000  -0.00000   0.00000
           Y            0.00000   1.00000   0.00000
           Z            0.00000   0.00000   1.00000
 This molecule is a prolate symmetric top.
 Rotational symmetry number  1.
 Rotational temperature (Kelvin)      1.98377
 Rotational constant (GHZ):          41.334954
    3 imaginary frequencies ignored.
 Zero-point vibrational energy      26477.7 (Joules/Mol)
                                    6.32832 (Kcal/Mol)
 Vibrational temperatures:   6369.06
          (Kelvin)

 Zero-point correction=                           0.010085 (Hartree/Particle)
 Thermal correction to Energy=                    0.012445
 Thermal correction to Enthalpy=                  0.013389
 Thermal correction to Gibbs Free Energy=        -0.009604
 Sum of electronic and zero-point Energies=           -100.961649
 Sum of electronic and thermal Energies=              -100.959288
 Sum of electronic and thermal Enthalpies=            -100.958344
 Sum of electronic and thermal Free Energies=         -100.981338

                     E (Thermal)             CV                S
                      KCal/Mol        Cal/Mol-Kelvin    Cal/Mol-Kelvin
 Total                    7.810              4.968             48.394
 Electronic               0.000              0.000              1.377
 Translational            0.889              2.981             35.068
 Rotational               0.592              1.987             11.948
 Vibrational              6.328              0.000              0.000

 Normal termination of Gaussian 16 at Fri Aug 22 15:56:13 2025.
