 Gaussian 16, Revision C.01,
 Gaussian 16:  ES64L-G16RevC.01  3-Jul-2019

 -----------------------------------------
 # sp b3lyp/6-311g** Force nosymm scf=(qc)
 -----------------------------------------

 -------------------
 Title Card Required
 -------------------
 Symbolic Z-matrix:
 Charge =  0 Multiplicity = 2

                          Input orientation:
 ---------------------------------------------------------------------
 Center     Atomic      Atomic             Coordinates (Angstroms)
 Number     Number       Type             X           Y           Z
 ---------------------------------------------------------------------
      1          1           0        0.000000    0.000000    0.000000
      2          1           0       -3.900000    0.000000    0.000000
      3          9           0        3.000000    0.000000    0.000000
 ---------------------------------------------------------------------

 SCF Done:  E(UB3LYP) =  -100.760847091     a.u. after   22 cycles

 Alpha  occ. eigenvalues --  -24.74074  -1.20136  -0.53194  -0.44666  -0.44666
 Alpha  occ. eigenvalues --   -0.32464
 Alpha virt. eigenvalues --   -0.07781   0.23882   0.36245   0.89341   0.92282
 Alpha virt. eigenvalues --    0.92282   1.03871   1.25033   1.25033   1.25061
 Alpha virt. eigenvalues --    1.44339   1.44339   1.44995   2.14401   2.40775

  Beta  occ. eigenvalues --  -24.71048  -1.11462  -0.41636  -0.41636  -0.33723
  Beta virt. eigenvalues --   -0.24767  -0.06003   0.23763   0.38130   0.93743
  Beta virt. eigenvalues --    0.93743   0.98018   1.07578   1.23600   1.23600
  Beta virt. eigenvalues --    1.23986   1.46527   1.46672   1.46672   2.14449

 Mulliken charges and spin densities:
               1          2
     1  H    0.037172  -0.958321
     2  H    0.000158   0.999227
     3  F   -0.037330   0.959094
 Sum of Mulliken charges =  -0.00000   1.00000

 Dipole moment (field-independent basis, Debye):
    X=             -0.5779    Y=             -0.0000    Z=              0.0000  Tot=              0.5779
 Quadrupole moment (field-independent basis, Debye-Ang):
   XX=             -8.3442   YY=             -7.6052   ZZ=             -7.6052
   XY=             -0.0000   XZ=              0.0000   YZ=              0.0000

  Exact polarizability:      30.916      -0.000       2.027       0.000       0.000       2.027
 Approx polarizability:      31.821      -0.000       1.927       0.000      -0.000       1.927

 ******    2 imaginary frequencies (negative Signs) ******

                      1                      2                      3
                      A                      A                      A
 Frequencies --   -365.1781               -76.7454               127.1431
 Red. masses --      1.0535                 1.0581                 1.0214
 Frc consts  --      0.0828                 0.0037                 0.0097
 IR Inten    --     39.6096                 0.1051                 1.3272

                      4
                      A
 Frequencies --    127.1431
 Red. masses --      1.0214
 Frc consts  --      0.0097
 IR Inten    --      1.3272

 - Thermochemistry -
 -------------------
 Temperature   298.150 Kelvin.  Pressure   1.00000 Atm.
 Atom     1 has atomic number  1 and mass   1.00783

 Molecular mass:    21.01405 amu.
 Principal axes and moments of inertia in atomic units:
                           1         2         3
     Eigenvalues --     0.00000 186.82267 186.82267
           X            1.00000  -0.00000   0.00000
           Y            0.00000   1.00000   0.00000
           Z            0.00000   0.00000   1.00000
 This molecule is a prolate symmetric top.
 Rotational symmetry number  1.
 Rotational temperature (Kelvin)      0.46362
 Rotational constant (GHZ):           9.660183
    2 imaginary frequencies ignored.
 Zero-point vibrational energy       1521.0 (Joules/Mol)
                                    0.36352 (Kcal/Mol)
 Warning -- explicit consideration of   2 degrees of freedom as
           vibrations may cause significant error
 Vibrational temperatures:    182.93   182.93
          (Kelvin)

 Zero-point correction=                           0.000579 (Hartree/Particle)
 Thermal correction to Energy=                    0.004308
 Thermal correction to Enthalpy=                  0.005252
 Thermal correction to Gibbs Free Energy=        -0.021954
 Sum of electronic and zero-point Energies=           -100.760268
 Sum of electronic and thermal Energies=              -100.756539
 Sum of electronic and thermal Enthalpies=            -100.755595
 Sum of electronic and thermal Free Energies=         -100.782801

                     E (Thermal)             CV                S
                      KCal/Mol        Cal/Mol-Kelvin    Cal/Mol-Kelvin
 Total                    2.703              8.820             57.260
 Electronic               0.000              0.000              1.377
 Translational            0.889              2.981             35.068
 Rotational               0.592              1.987             14.837
 Vibrational              1.222              3.852              5.978
 Vibration     1          0.611              1.926              2.989
 Vibration     2          0.611              1.926              2.989

 Normal termination of Gaussian 16 at Fri Aug 22 19:33:33 2025.
