 Gaussian 16, Revision C.01,
 Gaussian 16:  ES64L-G16RevC.01  3-Jul-2019

 -----------------------------------------
 # sp b3lyp/6-311g** Force nosymm scf=(qc)
 -----------------------------------------

 -------------------
 Title Card Required
 -------------------
 Symbolic Z-matrix:
 Charge =  0 Multiplicity = 2

                          Input orientation:
 ---------------------------------------------------------------------
 Center     Atomic      Atomic             Coordinates (Angstroms)
 Number     Number       Type             X           Y           Z
 ---------------------------------------------------------------------
      1          1           0        0.000000    0.000000    0.000000
      2          1           0       -2.200000    0.000000    0.000000
      3          9           0        3.850000    0.000000    0.000000
 ---------------------------------------------------------------------

 SCF Done:  E(UB3LYP) =  -100.767596196     a.u. after   50 cycles

 Alpha  occ. eigenvalues --  -24.75871  -1.21800  -0.54996  -0.46179  -0.46179
 Alpha  occ. eigenvalues --   -0.32752
 Alpha virt. eigenvalues --   -0.10243   0.25992   0.33595   0.86737   0.91167
 Alpha virt. eigenvalues --    0.91167   1.01151   1.23598   1.25093   1.25093
 Alpha virt. eigenvalues --    1.39580   1.39580   1.45613   2.14201   2.35398

  Beta  occ. eigenvalues --  -24.72729  -1.12765  -0.43029  -0.43029  -0.32848
  Beta virt. eigenvalues --   -0.25752  -0.10061   0.25843   0.33874   0.92665
  Beta virt. eigenvalues --    0.92665   0.96086   1.05270   1.23519   1.24985
  Beta virt. eigenvalues --    1.24985   1.39831   1.39831   1.45814   2.14411

 Mulliken charges and spin densities:
               1          2
     1  H    0.001034  -0.920687
     2  H    0.002161   0.924406
     3  F   -0.003195   0.996281
 Sum of Mulliken charges =   0.00000   1.00000

 Dipole moment (field-independent basis, Debye):
    X=             -0.0855    Y=             -0.0000    Z=              0.0000  Tot=              0.0855
 Quadrupole moment (field-independent basis, Debye-Ang):
   XX=             -6.5448   YY=             -7.7002   ZZ=             -7.7002
   XY=             -0.0000   XZ=              0.0000   YZ=              0.0000

  Exact polarizability:      28.251      -0.000       2.013       0.000      -0.000       2.013
 Approx polarizability:      23.380      -0.000       1.932       0.000      -0.000       1.932

 ******    2 imaginary frequencies (negative Signs) ******

                      1                      2                      3
                      A                      A                      A
 Frequencies --  -1020.0091               -86.1754               396.6355
 Red. masses --      1.0078                 1.1085                 1.0126
 Frc consts  --      0.6178                 0.0049                 0.0939
 IR Inten    --      1.3012                 1.3564                 0.0000

                      4
                      A
 Frequencies --    396.6355
 Red. masses --      1.0126
 Frc consts  --      0.0939
 IR Inten    --      0.0000

 - Thermochemistry -
 -------------------
 Temperature   298.150 Kelvin.  Pressure   1.00000 Atm.
 Atom     1 has atomic number  1 and mass   1.00783

 Molecular mass:    21.01405 amu.
 Principal axes and moments of inertia in atomic units:
                           1         2         3
     Eigenvalues --     0.00000 168.16181 168.16181
           X            1.00000  -0.00000   0.00000
           Y            0.00000   1.00000   0.00000
           Z            0.00000   0.00000   1.00000
 This molecule is a prolate symmetric top.
 Rotational symmetry number  1.
 Rotational temperature (Kelvin)      0.51506
 Rotational constant (GHZ):          10.732170
    2 imaginary frequencies ignored.
 Zero-point vibrational energy       4744.8 (Joules/Mol)
                                    1.13404 (Kcal/Mol)
 Warning -- explicit consideration of   2 degrees of freedom as
           vibrations may cause significant error
 Vibrational temperatures:    570.67   570.67
          (Kelvin)

 Zero-point correction=                           0.001807 (Hartree/Particle)
 Thermal correction to Energy=                    0.004793
 Thermal correction to Enthalpy=                  0.005737
 Thermal correction to Gibbs Free Energy=        -0.019456
 Sum of electronic and zero-point Energies=           -100.765789
 Sum of electronic and thermal Energies=              -100.762803
 Sum of electronic and thermal Enthalpies=            -100.761859
 Sum of electronic and thermal Free Energies=         -100.787052

                     E (Thermal)             CV                S
                      KCal/Mol        Cal/Mol-Kelvin    Cal/Mol-Kelvin
 Total                    3.008              7.923             53.024
 Electronic               0.000              0.000              1.377
 Translational            0.889              2.981             35.068
 Rotational               0.592              1.987             14.628
 Vibrational              1.526              2.955              1.950
 Vibration     1          0.763              1.477              0.975
 Vibration     2          0.763              1.477              0.975

 Normal termination of Gaussian 16 at Sat Aug 23 01:08:28 2025.
