 Gaussian 16, Revision C.01,
 Gaussian 16:  ES64L-G16RevC.01  3-Jul-2019

 -----------------------------------------
 # sp b3lyp/6-311g** Force nosymm scf=(qc)
 -----------------------------------------

 -------------------
 Title Card Required
 -------------------
 Symbolic Z-matrix:
 Charge =  0 Multiplicity = 2

                          Input orientation:
 ---------------------------------------------------------------------
 Center     Atomic      Atomic             Coordinates (Angstroms)
 Number     Number       Type             X           Y           Z
 ---------------------------------------------------------------------
      1          1           0        0.000000    0.000000    0.000000
      2          1           0       -3.650000    0.000000    0.000000
      3          9           0        3.400000    0.000000    0.000000
 ---------------------------------------------------------------------

 SCF Done:  E(UB3LYP) =  -100.759238677     a.u. after   25 cycles

 Alpha  occ. eigenvalues --  -24.75196  -1.21173  -0.54318  -0.45606  -0.45606
 Alpha  occ. eigenvalues --   -0.32349
 Alpha virt. eigenvalues --   -0.06924   0.24150   0.36939   0.87921   0.91599
 Alpha virt. eigenvalues --    0.91599   1.02102   1.25152   1.25152   1.25239
 Alpha virt. eigenvalues --    1.45371   1.45371   1.45592   2.14799   2.41571

  Beta  occ. eigenvalues --  -24.72094  -1.12264  -0.42498  -0.42498  -0.32952
  Beta virt. eigenvalues --   -0.25383  -0.06259   0.23905   0.38065   0.93084
  Beta virt. eigenvalues --    0.93084   0.96987   1.06067   1.24458   1.24458
  Beta virt. eigenvalues --    1.24533   1.46166   1.46375   1.46375   2.15032

 Mulliken charges and spin densities:
               1          2
     1  H    0.014961  -0.981972
     2  H    0.000149   0.998547
     3  F   -0.015110   0.983425
 Sum of Mulliken charges =  -0.00000   1.00000

 Dipole moment (field-independent basis, Debye):
    X=             -0.2667    Y=             -0.0000    Z=              0.0000  Tot=              0.2667
 Quadrupole moment (field-independent basis, Debye-Ang):
   XX=             -7.5671   YY=             -7.6185   ZZ=             -7.6185
   XY=              0.0000   XZ=             -0.0000   YZ=             -0.0000

  Exact polarizability:      25.719       0.000       2.033      -0.000       0.000       2.033
 Approx polarizability:      21.328       0.000       1.932      -0.000      -0.000       1.932

 ******    2 imaginary frequencies (negative Signs) ******

                      1                      2                      3
                      A                      A                      A
 Frequencies --   -251.6658               -95.0154                78.0780
 Red. masses --      1.0382                 1.0739                 1.0188
 Frc consts  --      0.0387                 0.0057                 0.0037
 IR Inten    --     15.2010                 0.6817                 0.2040

                      4
                      A
 Frequencies --     78.0780
 Red. masses --      1.0188
 Frc consts  --      0.0037
 IR Inten    --      0.2040

 - Thermochemistry -
 -------------------
 Temperature   298.150 Kelvin.  Pressure   1.00000 Atm.
 Atom     1 has atomic number  1 and mass   1.00783

 Molecular mass:    21.01405 amu.
 Principal axes and moments of inertia in atomic units:
                           1         2         3
     Eigenvalues --     0.00000 201.63515 201.63515
           X            1.00000  -0.00000   0.00000
           Y            0.00000   1.00000   0.00000
           Z            0.00000   0.00000   1.00000
 This molecule is a prolate symmetric top.
 Rotational symmetry number  1.
 Rotational temperature (Kelvin)      0.42956
 Rotational constant (GHZ):           8.950529
    2 imaginary frequencies ignored.
 Zero-point vibrational energy        934.0 (Joules/Mol)
                                    0.22324 (Kcal/Mol)
 Warning -- explicit consideration of   2 degrees of freedom as
           vibrations may cause significant error
 Vibrational temperatures:    112.34   112.34
          (Kelvin)

 Zero-point correction=                           0.000356 (Hartree/Particle)
 Thermal correction to Energy=                    0.004271
 Thermal correction to Enthalpy=                  0.005215
 Thermal correction to Gibbs Free Energy=        -0.022965
 Sum of electronic and zero-point Energies=           -100.758883
 Sum of electronic and thermal Energies=              -100.754968
 Sum of electronic and thermal Enthalpies=            -100.754023
 Sum of electronic and thermal Free Energies=         -100.782204

                     E (Thermal)             CV                S
                      KCal/Mol        Cal/Mol-Kelvin    Cal/Mol-Kelvin
 Total                    2.680              8.896             59.311
 Electronic               0.000              0.000              1.377
 Translational            0.889              2.981             35.068
 Rotational               0.592              1.987             14.989
 Vibrational              1.199              3.928              7.877
 Vibration     1          0.599              1.964              3.939
 Vibration     2          0.599              1.964              3.939

 Normal termination of Gaussian 16 at Fri Aug 22 21:18:52 2025.
