 Gaussian 16, Revision C.01,
 Gaussian 16:  ES64L-G16RevC.01  3-Jul-2019

 -----------------------------------------
 # sp b3lyp/6-311g** Force nosymm scf=(qc)
 -----------------------------------------

 -------------------
 Title Card Required
 -------------------
 Symbolic Z-matrix:
 Charge =  0 Multiplicity = 2

                          Input orientation:
 ---------------------------------------------------------------------
 Center     Atomic      Atomic             Coordinates (Angstroms)
 Number     Number       Type             X           Y           Z
 ---------------------------------------------------------------------
      1          1           0        0.000000    0.000000    0.000000
      2          1           0       -3.200000    0.000000    0.000000
      3          9           0        2.850000    0.000000    0.000000
 ---------------------------------------------------------------------

 SCF Done:  E(UB3LYP) =  -100.762683111     a.u. after   21 cycles

 Alpha  occ. eigenvalues --  -24.73507  -1.19608  -0.52624  -0.44190  -0.44190
 Alpha  occ. eigenvalues --   -0.32739
 Alpha virt. eigenvalues --   -0.09114   0.24226   0.35423   0.89845   0.92620
 Alpha virt. eigenvalues --    0.92620   1.04819   1.24783   1.24783   1.25250
 Alpha virt. eigenvalues --    1.42619   1.42619   1.43234   2.15140   2.38532

  Beta  occ. eigenvalues --  -24.70521  -1.11064  -0.41204  -0.41204  -0.34148
  Beta virt. eigenvalues --   -0.24441  -0.07207   0.24372   0.37285   0.94067
  Beta virt. eigenvalues --    0.94067   0.98260   1.08388   1.23187   1.23187
  Beta virt. eigenvalues --    1.24527   1.45105   1.45315   1.45315   2.15138

 Mulliken charges and spin densities:
               1          2
     1  H    0.048097  -0.941173
     2  H    0.001215   0.995616
     3  F   -0.049312   0.945557
 Sum of Mulliken charges =  -0.00000   1.00000

 Dipole moment (field-independent basis, Debye):
    X=             -0.7395    Y=             -0.0000    Z=              0.0000  Tot=              0.7395
 Quadrupole moment (field-independent basis, Debye-Ang):
   XX=             -8.5533   YY=             -7.6076   ZZ=             -7.6076
   XY=             -0.0000   XZ=              0.0000   YZ=              0.0000

  Exact polarizability:      33.893      -0.000       2.022       0.000       0.000       2.022
 Approx polarizability:      36.305      -0.000       1.923       0.000      -0.000       1.923

 ******    2 imaginary frequencies (negative Signs) ******

                      1                      2                      3
                      A                      A                      A
 Frequencies --   -459.4227              -163.7218               169.0513
 Red. masses --      1.0411                 1.0709                 1.0194
 Frc consts  --      0.1295                 0.0169                 0.0172
 IR Inten    --     49.1851                 2.0407                 2.1301

                      4
                      A
 Frequencies --    169.0513
 Red. masses --      1.0194
 Frc consts  --      0.0172
 IR Inten    --      2.1301

 - Thermochemistry -
 -------------------
 Temperature   298.150 Kelvin.  Pressure   1.00000 Atm.
 Atom     1 has atomic number  1 and mass   1.00783

 Molecular mass:    21.01405 amu.
 Principal axes and moments of inertia in atomic units:
                           1         2         3
     Eigenvalues --     0.00000 147.29346 147.29346
           X            1.00000  -0.00000   0.00000
           Y            0.00000   1.00000   0.00000
           Z            0.00000   0.00000   1.00000
 This molecule is a prolate symmetric top.
 Rotational symmetry number  1.
 Rotational temperature (Kelvin)      0.58804
 Rotational constant (GHZ):          12.252690
    2 imaginary frequencies ignored.
 Zero-point vibrational energy       2022.3 (Joules/Mol)
                                    0.48334 (Kcal/Mol)
 Warning -- explicit consideration of   2 degrees of freedom as
           vibrations may cause significant error
 Vibrational temperatures:    243.23   243.23
          (Kelvin)

 Zero-point correction=                           0.000770 (Hartree/Particle)
 Thermal correction to Energy=                    0.004352
 Thermal correction to Enthalpy=                  0.005297
 Thermal correction to Gibbs Free Energy=        -0.021169
 Sum of electronic and zero-point Energies=           -100.761913
 Sum of electronic and thermal Energies=              -100.758331
 Sum of electronic and thermal Enthalpies=            -100.757387
 Sum of electronic and thermal Free Energies=         -100.783852

                     E (Thermal)             CV                S
                      KCal/Mol        Cal/Mol-Kelvin    Cal/Mol-Kelvin
 Total                    2.731              8.729             55.702
 Electronic               0.000              0.000              1.377
 Translational            0.889              2.981             35.068
 Rotational               0.592              1.987             14.365
 Vibrational              1.250              3.761              4.892
 Vibration     1          0.625              1.881              2.446
 Vibration     2          0.625              1.881              2.446

 Normal termination of Gaussian 16 at Fri Aug 22 18:54:37 2025.
