 Gaussian 16, Revision C.01,
 Gaussian 16:  ES64L-G16RevC.01  3-Jul-2019

 -----------------------------------------
 # sp b3lyp/6-311g** Force nosymm scf=(qc)
 -----------------------------------------

 -------------------
 Title Card Required
 -------------------
 Symbolic Z-matrix:
 Charge =  0 Multiplicity = 2

                          Input orientation:
 ---------------------------------------------------------------------
 Center     Atomic      Atomic             Coordinates (Angstroms)
 Number     Number       Type             X           Y           Z
 ---------------------------------------------------------------------
      1          1           0        0.000000    0.000000    0.000000
      2          1           0       -1.650000    0.000000    0.000000
      3          9           0        4.000000    0.000000    0.000000
 ---------------------------------------------------------------------

 SCF Done:  E(UB3LYP) =  -100.799975608     a.u. after   49 cycles

 Alpha  occ. eigenvalues --  -24.76181  -1.22088  -0.55293  -0.46463  -0.46449
 Alpha  occ. eigenvalues --   -0.33176
 Alpha virt. eigenvalues --   -0.10446   0.25582   0.30796   0.86068   0.90946
 Alpha virt. eigenvalues --    0.91233   1.00860   1.06937   1.23185   1.23186
 Alpha virt. eigenvalues --    1.38783   1.38785   1.70957   2.18044   2.42451

  Beta  occ. eigenvalues --  -24.73027  -1.13016  -0.43302  -0.43287  -0.33171
  Beta virt. eigenvalues --   -0.25945  -0.10469   0.25580   0.30802   0.92447
  Beta virt. eigenvalues --    0.92712   0.95535   1.05005   1.06934   1.23182
  Beta virt. eigenvalues --    1.23184   1.38776   1.38777   1.70964   2.18108

 Mulliken charges and spin densities:
               1          2
     1  H    0.000944  -0.541058
     2  H   -0.001556   0.541042
     3  F    0.000612   1.000016
 Sum of Mulliken charges =   0.00000   1.00000

 Dipole moment (field-independent basis, Debye):
    X=              0.0194    Y=             -0.0000    Z=             -0.0000  Tot=              0.0194
 Quadrupole moment (field-independent basis, Debye-Ang):
   XX=             -6.5465   YY=             -7.5959   ZZ=             -7.0782
   XY=             -0.0000   XZ=             -0.0001   YZ=              0.3463

  Exact polarizability:      23.621      -0.000       2.116      -0.000       0.186       2.393
 Approx polarizability:      39.511      -0.000       2.108      -0.000       0.233       2.457

 ******    2 imaginary frequencies (negative Signs) ******

                      1                      2                      3
                      A                      A                      A
 Frequencies --  -1988.3751               -55.2359               982.1926
 Red. masses --      1.0078                 1.1085                 1.0107
 Frc consts  --      2.3476                 0.0020                 0.5745
 IR Inten    --      0.0075                 0.0262                 0.0014

                      4
                      A
 Frequencies --    982.9567
 Red. masses --      1.0107
 Frc consts  --      0.5754
 IR Inten    --      0.0005

 - Thermochemistry -
 -------------------
 Temperature   298.150 Kelvin.  Pressure   1.00000 Atm.
 Atom     1 has atomic number  1 and mass   1.00783

 Molecular mass:    21.01405 amu.
 Principal axes and moments of inertia in atomic units:
                           1         2         3
     Eigenvalues --     0.00000 156.39990 156.39990
           X            1.00000  -0.00000   0.00000
           Y            0.00000   1.00000   0.00000
           Z            0.00000   0.00000   1.00000
 This molecule is a prolate symmetric top.
 Rotational symmetry number  1.
 Rotational temperature (Kelvin)      0.55380
 Rotational constant (GHZ):          11.539273
    2 imaginary frequencies ignored.
 Zero-point vibrational energy      11754.2 (Joules/Mol)
                                    2.80932 (Kcal/Mol)
 Vibrational temperatures:   1413.16  1414.26
          (Kelvin)

 Zero-point correction=                           0.004477 (Hartree/Particle)
 Thermal correction to Energy=                    0.006916
 Thermal correction to Enthalpy=                  0.007860
 Thermal correction to Gibbs Free Energy=        -0.016433
 Sum of electronic and zero-point Energies=           -100.795499
 Sum of electronic and thermal Energies=              -100.793059
 Sum of electronic and thermal Enthalpies=            -100.792115
 Sum of electronic and thermal Free Energies=         -100.816409

                     E (Thermal)             CV                S
                      KCal/Mol        Cal/Mol-Kelvin    Cal/Mol-Kelvin
 Total                    4.340              5.761             51.130
 Electronic               0.000              0.000              1.377
 Translational            0.889              2.981             35.068
 Rotational               0.592              1.987             14.484
 Vibrational              2.859              0.793              0.201

 Normal termination of Gaussian 16 at Sat Aug 23 01:50:24 2025.
