 Gaussian 16, Revision C.01,
 Gaussian 16:  ES64L-G16RevC.01  3-Jul-2019

 -----------------------------------------
 # sp b3lyp/6-311g** Force nosymm scf=(qc)
 -----------------------------------------

 -------------------
 Title Card Required
 -------------------
 Symbolic Z-matrix:
 Charge =  0 Multiplicity = 2

                          Input orientation:
 ---------------------------------------------------------------------
 Center     Atomic      Atomic             Coordinates (Angstroms)
 Number     Number       Type             X           Y           Z
 ---------------------------------------------------------------------
      1          1           0        0.000000    0.000000    0.000000
      2          1           0       -1.700000    0.000000    0.000000
      3          9           0        2.150000    0.000000    0.000000
 ---------------------------------------------------------------------

 SCF Done:  E(UB3LYP) =  -100.809656721     a.u. after   13 cycles

 Alpha  occ. eigenvalues --  -24.70023  -1.16328  -0.49225  -0.41271  -0.41271
 Alpha  occ. eigenvalues --   -0.36763
 Alpha virt. eigenvalues --   -0.12403   0.23453   0.31126   0.85812   0.94249
 Alpha virt. eigenvalues --    0.94249   1.02981   1.20095   1.20095   1.23836
 Alpha virt. eigenvalues --    1.35093   1.35093   1.67374   2.14402   2.38758

  Beta  occ. eigenvalues --  -24.67381  -1.08868  -0.38650  -0.38650  -0.36541
  Beta virt. eigenvalues --   -0.23053  -0.11252   0.25855   0.30567   0.89729
  Beta virt. eigenvalues --    0.95370   0.95370   1.06978   1.21518   1.21518
  Beta virt. eigenvalues --    1.28746   1.35917   1.35917   1.67979   2.15224

 Mulliken charges and spin densities:
               1          2
     1  H    0.081454  -0.537931
     2  H    0.053456   0.706113
     3  F   -0.134910   0.831817
 Sum of Mulliken charges =  -0.00000   1.00000

 Dipole moment (field-independent basis, Debye):
    X=             -1.8905    Y=             -0.0000    Z=             -0.0000  Tot=              1.8905
 Quadrupole moment (field-independent basis, Debye-Ang):
   XX=             -7.9945   YY=             -7.6018   ZZ=             -7.6018
   XY=              0.0000   XZ=              0.0000   YZ=             -0.0000

  Exact polarizability:      57.155       0.000       2.056       0.000       0.000       2.056
 Approx polarizability:      77.140      -0.000       1.991      -0.000       0.000       1.991

 ******    2 imaginary frequencies (negative Signs) ******

                      1                      2                      3
                      A                      A                      A
 Frequencies --  -1952.6208              -499.8490               864.7520
 Red. masses --      1.0105                 1.1054                 1.0153
 Frc consts  --      2.2699                 0.1627                 0.4474
 IR Inten    --    330.3378                40.6224                 2.4670

                      4
                      A
 Frequencies --    864.7520
 Red. masses --      1.0153
 Frc consts  --      0.4474
 IR Inten    --      2.4670

 - Thermochemistry -
 -------------------
 Temperature   298.150 Kelvin.  Pressure   1.00000 Atm.
 Atom     1 has atomic number  1 and mass   1.00783

 Molecular mass:    21.01405 amu.
 Principal axes and moments of inertia in atomic units:
                           1         2         3
     Eigenvalues --     0.00000  63.76887  63.76887
           X            1.00000  -0.00000   0.00000
           Y            0.00000   1.00000   0.00000
           Z            0.00000   0.00000   1.00000
 This molecule is a prolate symmetric top.
 Rotational symmetry number  1.
 Rotational temperature (Kelvin)      1.35825
 Rotational constant (GHZ):          28.301288
    2 imaginary frequencies ignored.
 Zero-point vibrational energy      10344.7 (Joules/Mol)
                                    2.47245 (Kcal/Mol)
 Vibrational temperatures:   1244.19  1244.19
          (Kelvin)

 Zero-point correction=                           0.003940 (Hartree/Particle)
 Thermal correction to Energy=                    0.006424
 Thermal correction to Enthalpy=                  0.007368
 Thermal correction to Gibbs Free Energy=        -0.016136
 Sum of electronic and zero-point Energies=           -100.805717
 Sum of electronic and thermal Energies=              -100.803233
 Sum of electronic and thermal Enthalpies=            -100.802289
 Sum of electronic and thermal Free Energies=         -100.825792

                     E (Thermal)             CV                S
                      KCal/Mol        Cal/Mol-Kelvin    Cal/Mol-Kelvin
 Total                    4.031              6.068             49.468
 Electronic               0.000              0.000              1.377
 Translational            0.889              2.981             35.068
 Rotational               0.592              1.987             12.701
 Vibrational              2.550              1.100              0.321

 Normal termination of Gaussian 16 at Fri Aug 22 17:07:23 2025.
