 Gaussian 16, Revision C.01,
 Gaussian 16:  ES64L-G16RevC.01  3-Jul-2019

 -----------------------------------------
 # sp b3lyp/6-311g** Force nosymm scf=(qc)
 -----------------------------------------

 -------------------
 Title Card Required
 -------------------
 Symbolic Z-matrix:
 Charge =  0 Multiplicity = 2

                          Input orientation:
 ---------------------------------------------------------------------
 Center     Atomic      Atomic             Coordinates (Angstroms)
 Number     Number       Type             X           Y           Z
 ---------------------------------------------------------------------
      1          1           0        0.000000    0.000000    0.000000
      2          1           0       -3.950000    0.000000    0.000000
      3          9           0        3.450000    0.000000    0.000000
 ---------------------------------------------------------------------

 SCF Done:  E(UB3LYP) =  -100.758984390     a.u. after   27 cycles

 Alpha  occ. eigenvalues --  -24.75289  -1.21259  -0.54411  -0.45684  -0.45684
 Alpha  occ. eigenvalues --   -0.32304
 Alpha virt. eigenvalues --   -0.06293   0.24110   0.37216   0.87743   0.91542
 Alpha virt. eigenvalues --    0.91542   1.01948   1.25191   1.25191   1.25215
 Alpha virt. eigenvalues --    1.46529   1.46529   1.46999   2.14539   2.42483

  Beta  occ. eigenvalues --  -24.72181  -1.12331  -0.42570  -0.42570  -0.32873
  Beta virt. eigenvalues --   -0.25431  -0.05870   0.23825   0.38183   0.93029
  Beta virt. eigenvalues --    0.93029   0.96842   1.05932   1.24541   1.24541
  Beta virt. eigenvalues --    1.24553   1.46655   1.46761   1.46761   2.14712

 Mulliken charges and spin densities:
               1          2
     1  H    0.013273  -0.984682
     2  H    0.000060   0.999300
     3  F   -0.013333   0.985382
 Sum of Mulliken charges =  -0.00000   1.00000

 Dipole moment (field-independent basis, Debye):
    X=             -0.2376    Y=             -0.0000    Z=              0.0000  Tot=              0.2376
 Quadrupole moment (field-independent basis, Debye-Ang):
   XX=             -7.5062   YY=             -7.6165   ZZ=             -7.6165
   XY=              0.0000   XZ=             -0.0000   YZ=              0.0000

  Exact polarizability:      24.057       0.000       2.035      -0.000       0.000       2.035
 Approx polarizability:      19.561       0.000       1.934      -0.000      -0.000       1.934

 ******    2 imaginary frequencies (negative Signs) ******

                      1                      2                      3
                      A                      A                      A
 Frequencies --   -225.0688               -70.7600                64.8020
 Red. masses --      1.0463                 1.0654                 1.0197
 Frc consts  --      0.0312                 0.0031                 0.0025
 IR Inten    --     13.3823                 0.1997                 0.1625

                      4
                      A
 Frequencies --     64.8021
 Red. masses --      1.0197
 Frc consts  --      0.0025
 IR Inten    --      0.1625

 - Thermochemistry -
 -------------------
 Temperature   298.150 Kelvin.  Pressure   1.00000 Atm.
 Atom     1 has atomic number  1 and mass   1.00783

 Molecular mass:    21.01405 amu.
 Principal axes and moments of inertia in atomic units:
                           1         2         3
     Eigenvalues --     0.00000 219.59919 219.59919
           X            1.00000  -0.00000   0.00000
           Y            0.00000   1.00000   0.00000
           Z            0.00000   0.00000   1.00000
 This molecule is a prolate symmetric top.
 Rotational symmetry number  1.
 Rotational temperature (Kelvin)      0.39442
 Rotational constant (GHZ):           8.218342
    2 imaginary frequencies ignored.
 Zero-point vibrational energy        775.2 (Joules/Mol)
                                    0.18528 (Kcal/Mol)
 Warning -- explicit consideration of   2 degrees of freedom as
           vibrations may cause significant error
 Vibrational temperatures:     93.24    93.24
          (Kelvin)

 Zero-point correction=                           0.000295 (Hartree/Particle)
 Thermal correction to Energy=                    0.004264
 Thermal correction to Enthalpy=                  0.005208
 Thermal correction to Gibbs Free Energy=        -0.023401
 Sum of electronic and zero-point Energies=           -100.758689
 Sum of electronic and thermal Energies=              -100.754720
 Sum of electronic and thermal Enthalpies=            -100.753776
 Sum of electronic and thermal Free Energies=         -100.782386

                     E (Thermal)             CV                S
                      KCal/Mol        Cal/Mol-Kelvin    Cal/Mol-Kelvin
 Total                    2.676              8.910             60.214
 Electronic               0.000              0.000              1.377
 Translational            0.889              2.981             35.068
 Rotational               0.592              1.987             15.158
 Vibrational              1.195              3.942              8.611
 Vibration     1          0.597              1.971              4.305
 Vibration     2          0.597              1.971              4.305

 Normal termination of Gaussian 16 at Fri Aug 22 21:43:57 2025.
