 Gaussian 16, Revision C.01,
 Gaussian 16:  ES64L-G16RevC.01  3-Jul-2019

 -----------------------------------------
 # sp b3lyp/6-311g** Force nosymm scf=(qc)
 -----------------------------------------

 -------------------
 Title Card Required
 -------------------
 Symbolic Z-matrix:
 Charge =  0 Multiplicity = 2

                          Input orientation:
 ---------------------------------------------------------------------
 Center     Atomic      Atomic             Coordinates (Angstroms)
 Number     Number       Type             X           Y           Z
 ---------------------------------------------------------------------
      1          1           0        0.000000    0.000000    0.000000
      2          1           0       -0.950000    0.000000    0.000000
      3          9           0        4.000000    0.000000    0.000000
 ---------------------------------------------------------------------

 SCF Done:  E(UB3LYP) =  -100.914653877     a.u. after  103 cycles

 Alpha  occ. eigenvalues --  -24.76179  -1.22080  -0.55284  -0.46457  -0.46441
 Alpha  occ. eigenvalues --   -0.39635
 Alpha virt. eigenvalues --    0.01474   0.21090   0.40160   0.86082   0.90959
 Alpha virt. eigenvalues --    0.91429   1.00946   1.08690   1.08691   1.41502
 Alpha virt. eigenvalues --    1.69007   1.69009   2.20488   2.36690   2.64676

  Beta  occ. eigenvalues --  -24.73024  -1.13007  -0.43294  -0.43277  -0.39634
  Beta virt. eigenvalues --   -0.25935   0.01476   0.21092   0.40173   0.92459
  Beta virt. eigenvalues --    0.92922   0.95548   1.05095   1.08690   1.08691
  Beta virt. eigenvalues --    1.41504   1.69007   1.69009   2.20491   2.36690

 Mulliken charges and spin densities:
               1          2
     1  H    0.000769  -0.000084
     2  H   -0.001705  -0.000016
     3  F    0.000936   1.000100
 Sum of Mulliken charges =   0.00000   1.00000

 Dipole moment (field-independent basis, Debye):
    X=              0.0183    Y=             -0.0000    Z=              0.0000  Tot=              0.0183
 Quadrupole moment (field-independent basis, Debye-Ang):
   XX=             -6.3474   YY=             -7.1920   ZZ=             -6.3659
   XY=              0.0000   XZ=              0.0000   YZ=              0.1277

  Exact polarizability:      11.047       0.000       2.054       0.000       0.070       2.506
 Approx polarizability:      14.199       0.000       2.113       0.000       0.086       2.669

 ******    1 imaginary frequencies (negative Signs) ******

                      1                      2                      3
                      A                      A                      A
 Frequencies --    -65.4641              1511.1453              1517.7136
 Red. masses --      1.1085                 1.0090                 1.0090
 Frc consts  --      0.0028                 1.3575                 1.3693
 IR Inten    --      0.0346                 0.0091                 0.0005

                      4
                      A
 Frequencies --   2200.0682
 Red. masses --      1.0078
 Frc consts  --      2.8741
 IR Inten    --      0.0341

 - Thermochemistry -
 -------------------
 Temperature   298.150 Kelvin.  Pressure   1.00000 Atm.
 Atom     1 has atomic number  1 and mass   1.00783

 Molecular mass:    21.01405 amu.
 Principal axes and moments of inertia in atomic units:
                           1         2         3
     Eigenvalues --     0.00000 131.94260 131.94260
           X            1.00000  -0.00000   0.00000
           Y            0.00000   1.00000   0.00000
           Z            0.00000   0.00000   1.00000
 This molecule is a prolate symmetric top.
 Rotational symmetry number  1.
 Rotational temperature (Kelvin)      0.65645
 Rotational constant (GHZ):          13.678230
    1 imaginary frequencies ignored.
 Zero-point vibrational energy      31275.9 (Joules/Mol)
                                    7.47513 (Kcal/Mol)
 Vibrational temperatures:   2174.20  2183.65  3165.41
          (Kelvin)

 Zero-point correction=                           0.011912 (Hartree/Particle)
 Thermal correction to Energy=                    0.014282
 Thermal correction to Enthalpy=                  0.015227
 Thermal correction to Gibbs Free Energy=        -0.008822
 Sum of electronic and zero-point Energies=           -100.902742
 Sum of electronic and thermal Energies=              -100.900372
 Sum of electronic and thermal Enthalpies=            -100.899427
 Sum of electronic and thermal Free Energies=         -100.923476

                     E (Thermal)             CV                S
                      KCal/Mol        Cal/Mol-Kelvin    Cal/Mol-Kelvin
 Total                    8.962              5.116             50.614
 Electronic               0.000              0.000              1.377
 Translational            0.889              2.981             35.068
 Rotational               0.592              1.987             14.146
 Vibrational              7.481              0.148              0.023

 Normal termination of Gaussian 16 at Sat Aug 23 01:45:29 2025.
