 Gaussian 16, Revision C.01,
 Gaussian 16:  ES64L-G16RevC.01  3-Jul-2019

 -----------------------------------------
 # sp b3lyp/6-311g** Force nosymm scf=(qc)
 -----------------------------------------

 -------------------
 Title Card Required
 -------------------
 Symbolic Z-matrix:
 Charge =  0 Multiplicity = 2

                          Input orientation:
 ---------------------------------------------------------------------
 Center     Atomic      Atomic             Coordinates (Angstroms)
 Number     Number       Type             X           Y           Z
 ---------------------------------------------------------------------
      1          1           0        0.000000    0.000000    0.000000
      2          1           0       -1.950000    0.000000    0.000000
      3          9           0        2.800000    0.000000    0.000000
 ---------------------------------------------------------------------

 SCF Done:  E(UB3LYP) =  -100.780076778     a.u. after   20 cycles

 Alpha  occ. eigenvalues --  -24.73571  -1.19661  -0.52689  -0.44239  -0.44239
 Alpha  occ. eigenvalues --   -0.34178
 Alpha virt. eigenvalues --   -0.12146   0.25213   0.31645   0.90204   0.92584
 Alpha virt. eigenvalues --    0.92584   1.05064   1.15573   1.23762   1.23762
 Alpha virt. eigenvalues --    1.36028   1.36028   1.51892   2.12087   2.36874

  Beta  occ. eigenvalues --  -24.70587  -1.11121  -0.41254  -0.41254  -0.34297
  Beta virt. eigenvalues --   -0.24582  -0.11430   0.26190   0.31883   0.94027
  Beta virt. eigenvalues --    0.94027   0.98519   1.08628   1.16249   1.23606
  Beta virt. eigenvalues --    1.23606   1.37127   1.37127   1.52699   2.13229

 Mulliken charges and spin densities:
               1          2
     1  H    0.026837  -0.784734
     2  H    0.021352   0.839801
     3  F   -0.048190   0.944933
 Sum of Mulliken charges =   0.00000   1.00000

 Dipole moment (field-independent basis, Debye):
    X=             -0.8897    Y=             -0.0000    Z=             -0.0000  Tot=              0.8897
 Quadrupole moment (field-independent basis, Debye-Ang):
   XX=             -7.5816   YY=             -7.7021   ZZ=             -7.7021
   XY=             -0.0000   XZ=             -0.0000   YZ=             -0.0000

  Exact polarizability:      61.521      -0.000       2.004      -0.000      -0.000       2.004
 Approx polarizability:      61.519      -0.000       1.934      -0.000       0.000       1.934

 ******    2 imaginary frequencies (negative Signs) ******

                      1                      2                      3
                      A                      A                      A
 Frequencies --  -1464.6158              -293.5642               599.0862
 Red. masses --      1.0082                 1.1081                 1.0142
 Frc consts  --      1.2742                 0.0563                 0.2145
 IR Inten    --     63.4885                39.0533                 0.2807

                      4
                      A
 Frequencies --    599.0862
 Red. masses --      1.0142
 Frc consts  --      0.2145
 IR Inten    --      0.2807

 - Thermochemistry -
 -------------------
 Temperature   298.150 Kelvin.  Pressure   1.00000 Atm.
 Atom     1 has atomic number  1 and mass   1.00783

 Molecular mass:    21.01405 amu.
 Principal axes and moments of inertia in atomic units:
                           1         2         3
     Eigenvalues --     0.00000  99.57983  99.57983
           X            1.00000  -0.00000   0.00000
           Y            0.00000   1.00000   0.00000
           Z            0.00000   0.00000   1.00000
 This molecule is a prolate symmetric top.
 Rotational symmetry number  1.
 Rotational temperature (Kelvin)      0.86979
 Rotational constant (GHZ):          18.123562
    2 imaginary frequencies ignored.
 Zero-point vibrational energy       7166.7 (Joules/Mol)
                                    1.71287 (Kcal/Mol)
 Warning -- explicit consideration of   2 degrees of freedom as
           vibrations may cause significant error
 Vibrational temperatures:    861.95   861.95
          (Kelvin)

 Zero-point correction=                           0.002730 (Hartree/Particle)
 Thermal correction to Energy=                    0.005411
 Thermal correction to Enthalpy=                  0.006355
 Thermal correction to Gibbs Free Energy=        -0.017845
 Sum of electronic and zero-point Energies=           -100.777347
 Sum of electronic and thermal Energies=              -100.774666
 Sum of electronic and thermal Enthalpies=            -100.773722
 Sum of electronic and thermal Free Energies=         -100.797922

                     E (Thermal)             CV                S
                      KCal/Mol        Cal/Mol-Kelvin    Cal/Mol-Kelvin
 Total                    3.395              7.035             50.935
 Electronic               0.000              0.000              1.377
 Translational            0.889              2.981             35.068
 Rotational               0.592              1.987             13.587
 Vibrational              1.914              2.067              0.902
 Vibration     1          0.957              1.034              0.451
 Vibration     2          0.957              1.034              0.451

 Normal termination of Gaussian 16 at Fri Aug 22 18:42:57 2025.
