 Gaussian 16, Revision C.01,
 Gaussian 16:  ES64L-G16RevC.01  3-Jul-2019

 -----------------------------------------
 # sp b3lyp/6-311g** Force nosymm scf=(qc)
 -----------------------------------------

 -------------------
 Title Card Required
 -------------------
 Symbolic Z-matrix:
 Charge =  0 Multiplicity = 2

                          Input orientation:
 ---------------------------------------------------------------------
 Center     Atomic      Atomic             Coordinates (Angstroms)
 Number     Number       Type             X           Y           Z
 ---------------------------------------------------------------------
      1          1           0        0.000000    0.000000    0.000000
      2          1           0       -3.850000    0.000000    0.000000
      3          9           0        2.650000    0.000000    0.000000
 ---------------------------------------------------------------------

 SCF Done:  E(UB3LYP) =  -100.764559006     a.u. after   18 cycles

 Alpha  occ. eigenvalues --  -24.72554  -1.18721  -0.51666  -0.43394  -0.43394
 Alpha  occ. eigenvalues --   -0.32669
 Alpha virt. eigenvalues --   -0.09310   0.23596   0.35686   0.89896   0.93169
 Alpha virt. eigenvalues --    0.93169   1.05762   1.24832   1.24832   1.24865
 Alpha virt. eigenvalues --    1.41780   1.41780   1.44254   2.14240   2.38797

  Beta  occ. eigenvalues --  -24.69642  -1.10410  -0.40486  -0.40486  -0.34779
  Beta virt. eigenvalues --   -0.23859  -0.06160   0.23793   0.38105   0.94581
  Beta virt. eigenvalues --    0.94581   0.97385   1.08619   1.22560   1.22560
  Beta virt. eigenvalues --    1.26294   1.46382   1.46567   1.46567   2.13152

 Mulliken charges and spin densities:
               1          2
     1  H    0.070445  -0.920491
     2  H    0.000298   0.999133
     3  F   -0.070744   0.921358
 Sum of Mulliken charges =  -0.00000   1.00000

 Dipole moment (field-independent basis, Debye):
    X=             -0.9633    Y=             -0.0000    Z=             -0.0000  Tot=              0.9633
 Quadrupole moment (field-independent basis, Debye-Ang):
   XX=             -9.0582   YY=             -7.5827   ZZ=             -7.5827
   XY=             -0.0000   XZ=             -0.0000   YZ=              0.0000

  Exact polarizability:      30.936       0.000       2.025       0.000      -0.000       2.025
 Approx polarizability:      37.414       0.000       1.922       0.000      -0.000       1.922

 ******    2 imaginary frequencies (negative Signs) ******

                      1                      2                      3
                      A                      A                      A
 Frequencies --   -523.2661               -81.1639               197.5931
 Red. masses --      1.0558                 1.0558                 1.0230
 Frc consts  --      0.1703                 0.0041                 0.0235
 IR Inten    --     67.5209                 0.0722                 4.8262

                      4
                      A
 Frequencies --    197.5931
 Red. masses --      1.0230
 Frc consts  --      0.0235
 IR Inten    --      4.8262

 - Thermochemistry -
 -------------------
 Temperature   298.150 Kelvin.  Pressure   1.00000 Atm.
 Atom     1 has atomic number  1 and mass   1.00783

 Molecular mass:    21.01405 amu.
 Principal axes and moments of inertia in atomic units:
                           1         2         3
     Eigenvalues --     0.00000 162.88107 162.88107
           X            1.00000  -0.00000   0.00000
           Y            0.00000   1.00000   0.00000
           Z            0.00000   0.00000   1.00000
 This molecule is a prolate symmetric top.
 Rotational symmetry number  1.
 Rotational temperature (Kelvin)      0.53176
 Rotational constant (GHZ):          11.080117
    2 imaginary frequencies ignored.
 Zero-point vibrational energy       2363.7 (Joules/Mol)
                                    0.56495 (Kcal/Mol)
 Warning -- explicit consideration of   2 degrees of freedom as
           vibrations may cause significant error
 Vibrational temperatures:    284.29   284.29
          (Kelvin)

 Zero-point correction=                           0.000900 (Hartree/Particle)
 Thermal correction to Energy=                    0.004390
 Thermal correction to Enthalpy=                  0.005334
 Thermal correction to Gibbs Free Energy=        -0.020951
 Sum of electronic and zero-point Energies=           -100.763659
 Sum of electronic and thermal Energies=              -100.760169
 Sum of electronic and thermal Enthalpies=            -100.759225
 Sum of electronic and thermal Free Energies=         -100.785510

                     E (Thermal)             CV                S
                      KCal/Mol        Cal/Mol-Kelvin    Cal/Mol-Kelvin
 Total                    2.755              8.655             55.321
 Electronic               0.000              0.000              1.377
 Translational            0.889              2.981             35.068
 Rotational               0.592              1.987             14.565
 Vibrational              1.273              3.686              4.311
 Vibration     1          0.637              1.843              2.155
 Vibration     2          0.637              1.843              2.155

 Normal termination of Gaussian 16 at Fri Aug 22 18:16:10 2025.
