 Gaussian 16, Revision C.01,
 Gaussian 16:  ES64L-G16RevC.01  3-Jul-2019

 -----------------------------------------
 # sp b3lyp/6-311g** Force nosymm scf=(qc)
 -----------------------------------------

 -------------------
 Title Card Required
 -------------------
 Symbolic Z-matrix:
 Charge =  0 Multiplicity = 2

                          Input orientation:
 ---------------------------------------------------------------------
 Center     Atomic      Atomic             Coordinates (Angstroms)
 Number     Number       Type             X           Y           Z
 ---------------------------------------------------------------------
      1          1           0        0.000000    0.000000    0.000000
      2          1           0       -2.850000    0.000000    0.000000
      3          9           0        2.500000    0.000000    0.000000
 ---------------------------------------------------------------------

 SCF Done:  E(UB3LYP) =  -100.768815667     a.u. after   22 cycles

 Alpha  occ. eigenvalues --  -24.71747  -1.17959  -0.50847  -0.42713  -0.42713
 Alpha  occ. eigenvalues --   -0.33337
 Alpha virt. eigenvalues --   -0.11144   0.24333   0.34032   0.89902   0.93616
 Alpha virt. eigenvalues --    0.93616   1.06493   1.24225   1.24225   1.25612
 Alpha virt. eigenvalues --    1.39617   1.39617   1.43833   2.15128   2.34663

  Beta  occ. eigenvalues --  -24.68905  -1.09871  -0.39881  -0.39881  -0.35350
  Beta virt. eigenvalues --   -0.23359  -0.08319   0.25023   0.36137   0.94979
  Beta virt. eigenvalues --    0.94979   0.96565   1.09066   1.22170   1.22170
  Beta virt. eigenvalues --    1.29870   1.43815   1.43815   1.44183   2.14155

 Mulliken charges and spin densities:
               1          2
     1  H    0.085115  -0.886808
     2  H    0.004658   0.988857
     3  F   -0.089773   0.897951
 Sum of Mulliken charges =  -0.00000   1.00000

 Dipole moment (field-independent basis, Debye):
    X=             -1.2052    Y=              0.0000    Z=             -0.0000  Tot=              1.2052
 Quadrupole moment (field-independent basis, Debye-Ang):
   XX=             -9.0841   YY=             -7.5895   ZZ=             -7.5895
   XY=              0.0000   XZ=             -0.0000   YZ=              0.0000

  Exact polarizability:      36.286       0.000       2.021      -0.000       0.000       2.021
 Approx polarizability:      42.290       0.000       1.919      -0.000      -0.000       1.919

 ******    2 imaginary frequencies (negative Signs) ******

                      1                      2                      3
                      A                      A                      A
 Frequencies --   -678.6049              -251.5667               267.6837
 Red. masses --      1.0386                 1.0735                 1.0196
 Frc consts  --      0.2818                 0.0400                 0.0430
 IR Inten    --     72.1675                 6.3961                 6.4727

                      4
                      A
 Frequencies --    267.6837
 Red. masses --      1.0196
 Frc consts  --      0.0430
 IR Inten    --      6.4727

 - Thermochemistry -
 -------------------
 Temperature   298.150 Kelvin.  Pressure   1.00000 Atm.
 Atom     1 has atomic number  1 and mass   1.00783

 Molecular mass:    21.01405 amu.
 Principal axes and moments of inertia in atomic units:
                           1         2         3
     Eigenvalues --     0.00000 114.86996 114.86996
           X            1.00000  -0.00000   0.00000
           Y            0.00000   1.00000   0.00000
           Z            0.00000   0.00000   1.00000
 This molecule is a prolate symmetric top.
 Rotational symmetry number  1.
 Rotational temperature (Kelvin)      0.75402
 Rotational constant (GHZ):          15.711168
    2 imaginary frequencies ignored.
 Zero-point vibrational energy       3202.2 (Joules/Mol)
                                    0.76535 (Kcal/Mol)
 Warning -- explicit consideration of   2 degrees of freedom as
           vibrations may cause significant error
 Vibrational temperatures:    385.14   385.14
          (Kelvin)

 Zero-point correction=                           0.001220 (Hartree/Particle)
 Thermal correction to Energy=                    0.004504
 Thermal correction to Enthalpy=                  0.005449
 Thermal correction to Gibbs Free Energy=        -0.019989
 Sum of electronic and zero-point Energies=           -100.767596
 Sum of electronic and thermal Energies=              -100.764311
 Sum of electronic and thermal Enthalpies=            -100.763367
 Sum of electronic and thermal Free Energies=         -100.788805

                     E (Thermal)             CV                S
                      KCal/Mol        Cal/Mol-Kelvin    Cal/Mol-Kelvin
 Total                    2.827              8.433             53.538
 Electronic               0.000              0.000              1.377
 Translational            0.889              2.981             35.068
 Rotational               0.592              1.987             13.871
 Vibrational              1.345              3.465              3.222
 Vibration     1          0.673              1.732              1.611
 Vibration     2          0.673              1.732              1.611

 Normal termination of Gaussian 16 at Fri Aug 22 17:45:37 2025.
