 Gaussian 16, Revision C.01,
 Gaussian 16:  ES64L-G16RevC.01  3-Jul-2019

 -----------------------------------------
 # sp b3lyp/6-311g** Force nosymm scf=(qc)
 -----------------------------------------

 -------------------
 Title Card Required
 -------------------
 Symbolic Z-matrix:
 Charge =  0 Multiplicity = 2

                          Input orientation:
 ---------------------------------------------------------------------
 Center     Atomic      Atomic             Coordinates (Angstroms)
 Number     Number       Type             X           Y           Z
 ---------------------------------------------------------------------
      1          1           0        0.000000    0.000000    0.000000
      2          1           0       -2.200000    0.000000    0.000000
      3          9           0        1.100000    0.000000    0.000000
 ---------------------------------------------------------------------

 SCF Done:  E(UB3LYP) =  -100.949477661     a.u. after    6 cycles

 Alpha  occ. eigenvalues --  -24.63957  -1.13621  -0.49577  -0.37822  -0.37822
 Alpha  occ. eigenvalues --   -0.35857
 Alpha virt. eigenvalues --   -0.00485   0.24557   0.30792   0.93833   0.93833
 Alpha virt. eigenvalues --    0.99601   1.16691   1.21630   1.21630   1.35553
 Alpha virt. eigenvalues --    1.35553   1.42389   1.79323   2.12991   2.33230

  Beta  occ. eigenvalues --  -24.63890  -1.13453  -0.49241  -0.37762  -0.37762
  Beta virt. eigenvalues --   -0.12264   0.02013   0.30714   0.35558   0.93836
  Beta virt. eigenvalues --    0.93836   0.99857   1.25686   1.35308   1.35308
  Beta virt. eigenvalues --    1.41971   1.41971   1.52742   1.79505   2.30914

 Mulliken charges and spin densities:
               1          2
     1  H    0.329027   0.001390
     2  H    0.015076   0.978867
     3  F   -0.344103   0.019743
 Sum of Mulliken charges =  -0.00000   1.00000

 Dipole moment (field-independent basis, Debye):
    X=             -2.3389    Y=              0.0000    Z=              0.0000  Tot=              2.3389
 Quadrupole moment (field-independent basis, Debye-Ang):
   XX=             -8.1179   YY=             -7.0272   ZZ=             -7.0272
   XY=             -0.0000   XZ=              0.0000   YZ=              0.0000

  Exact polarizability:      11.927       0.000       2.407      -0.000      -0.000       2.407
 Approx polarizability:      14.009       0.000       2.378      -0.000      -0.000       2.378

 ******    1 imaginary frequencies (negative Signs) ******

                      1                      2                      3
                      A                      A                      A
 Frequencies --   -168.4704              1149.1830              1149.1830
 Red. masses --      1.0502                 1.0281                 1.0281
 Frc consts  --      0.0176                 0.7999                 0.7999
 IR Inten    --      4.9056               131.5491               131.5491

                      4
                      A
 Frequencies --   1878.5783
 Red. masses --      1.0614
 Frc consts  --      2.2070
 IR Inten    --    161.9280

 - Thermochemistry -
 -------------------
 Temperature   298.150 Kelvin.  Pressure   1.00000 Atm.
 Atom     1 has atomic number  1 and mass   1.00783

 Molecular mass:    21.01405 amu.
 Principal axes and moments of inertia in atomic units:
                           1         2         3
     Eigenvalues --     0.00000  40.20633  40.20633
           X            1.00000  -0.00000   0.00000
           Y            0.00000   1.00000   0.00000
           Z            0.00000   0.00000   1.00000
 This molecule is a prolate symmetric top.
 Rotational symmetry number  1.
 Rotational temperature (Kelvin)      2.15424
 Rotational constant (GHZ):          44.886988
    1 imaginary frequencies ignored.
 Zero-point vibrational energy      24983.7 (Joules/Mol)
                                    5.97124 (Kcal/Mol)
 Vibrational temperatures:   1653.42  1653.42  2702.86
          (Kelvin)

 Zero-point correction=                           0.009516 (Hartree/Particle)
 Thermal correction to Energy=                    0.011918
 Thermal correction to Enthalpy=                  0.012862
 Thermal correction to Gibbs Free Energy=        -0.010103
 Sum of electronic and zero-point Energies=           -100.939962
 Sum of electronic and thermal Energies=              -100.937559
 Sum of electronic and thermal Enthalpies=            -100.936615
 Sum of electronic and thermal Free Energies=         -100.959580

                     E (Thermal)             CV                S
                      KCal/Mol        Cal/Mol-Kelvin    Cal/Mol-Kelvin
 Total                    7.479              5.468             48.334
 Electronic               0.000              0.000              1.377
 Translational            0.889              2.981             35.068
 Rotational               0.592              1.987             11.784
 Vibrational              5.998              0.500              0.104

 Normal termination of Gaussian 16 at Fri Aug 22 16:05:28 2025.
