 Gaussian 16, Revision C.01,
 Gaussian 16:  ES64L-G16RevC.01  3-Jul-2019

 -----------------------------------------
 # sp b3lyp/6-311g** Force nosymm scf=(qc)
 -----------------------------------------

 -------------------
 Title Card Required
 -------------------
 Symbolic Z-matrix:
 Charge =  0 Multiplicity = 2

                          Input orientation:
 ---------------------------------------------------------------------
 Center     Atomic      Atomic             Coordinates (Angstroms)
 Number     Number       Type             X           Y           Z
 ---------------------------------------------------------------------
      1          1           0        0.000000    0.000000    0.000000
      2          1           0       -1.350000    0.000000    0.000000
      3          9           0        3.300000    0.000000    0.000000
 ---------------------------------------------------------------------

 SCF Done:  E(UB3LYP) =  -100.845338424     a.u. after   29 cycles

 Alpha  occ. eigenvalues --  -24.76496  -1.22351  -0.55547  -0.46758  -0.46700
 Alpha  occ. eigenvalues --   -0.34751
 Alpha virt. eigenvalues --   -0.07082   0.23951   0.32007   0.85871   0.90746
 Alpha virt. eigenvalues --    0.92587   1.01880   1.13084   1.16703   1.16707
 Alpha virt. eigenvalues --    1.47272   1.47277   1.94649   2.27428   2.51901

  Beta  occ. eigenvalues --  -24.73337  -1.13271  -0.43594  -0.43534  -0.34747
  Beta virt. eigenvalues --   -0.26184  -0.07075   0.23964   0.32052   0.92246
  Beta virt. eigenvalues --    0.94125   0.95333   1.05923   1.13099   1.16703
  Beta virt. eigenvalues --    1.16706   1.47272   1.47276   1.94657   2.27430

 Mulliken charges and spin densities:
               1          2
     1  H   -0.000113   0.000159
     2  H   -0.004283  -0.000704
     3  F    0.004397   1.000545
 Sum of Mulliken charges =   0.00000   1.00000

 Dipole moment (field-independent basis, Debye):
    X=              0.0690    Y=             -0.0000    Z=              0.0000  Tot=              0.0690
 Quadrupole moment (field-independent basis, Debye-Ang):
   XX=             -6.2099   YY=             -7.6220   ZZ=             -6.7983
   XY=              0.0000   XZ=              0.0000   YZ=              0.1305

  Exact polarizability:      19.504      -0.000       2.077       0.000       0.070       2.519
 Approx polarizability:      32.805       0.000       2.090       0.000       0.088       2.645

 ******    2 imaginary frequencies (negative Signs) ******

                      1                      2                      3
                      A                      A                      A
 Frequencies --  -1087.5350               -41.0495              1351.5527
 Red. masses --      1.0078                 1.1085                 1.0107
 Frc consts  --      0.7023                 0.0011                 1.0877
 IR Inten    --      0.4088                 0.2968                 0.0024

                      4
                      A
 Frequencies --   1352.5966
 Red. masses --      1.0107
 Frc consts  --      1.0894
 IR Inten    --      0.0023

 - Thermochemistry -
 -------------------
 Temperature   298.150 Kelvin.  Pressure   1.00000 Atm.
 Atom     1 has atomic number  1 and mass   1.00783

 Molecular mass:    21.01405 amu.
 Principal axes and moments of inertia in atomic units:
                           1         2         3
     Eigenvalues --     0.00000 106.10358 106.10358
           X            1.00000  -0.00000   0.00000
           Y            0.00000   1.00000   0.00000
           Z            0.00000   0.00000   1.00000
 This molecule is a prolate symmetric top.
 Rotational symmetry number  1.
 Rotational temperature (Kelvin)      0.81631
 Rotational constant (GHZ):          17.009240
    2 imaginary frequencies ignored.
 Zero-point vibrational energy      16174.4 (Joules/Mol)
                                    3.86578 (Kcal/Mol)
 Vibrational temperatures:   1944.58  1946.08
          (Kelvin)

 Zero-point correction=                           0.006161 (Hartree/Particle)
 Thermal correction to Energy=                    0.008539
 Thermal correction to Enthalpy=                  0.009483
 Thermal correction to Gibbs Free Energy=        -0.014369
 Sum of electronic and zero-point Energies=           -100.839178
 Sum of electronic and thermal Energies=              -100.836799
 Sum of electronic and thermal Enthalpies=            -100.835855
 Sum of electronic and thermal Free Energies=         -100.859708

                     E (Thermal)             CV                S
                      KCal/Mol        Cal/Mol-Kelvin    Cal/Mol-Kelvin
 Total                    5.358              5.217             50.202
 Electronic               0.000              0.000              1.377
 Translational            0.889              2.981             35.068
 Rotational               0.592              1.987             13.713
 Vibrational              3.877              0.249              0.044

 Normal termination of Gaussian 16 at Fri Aug 22 20:44:40 2025.
