 Gaussian 16, Revision C.01,
 Gaussian 16:  ES64L-G16RevC.01  3-Jul-2019

 -----------------------------------------
 # sp b3lyp/6-311g** Force nosymm scf=(qc)
 -----------------------------------------

 -------------------
 Title Card Required
 -------------------
 Symbolic Z-matrix:
 Charge =  0 Multiplicity = 2

                          Input orientation:
 ---------------------------------------------------------------------
 Center     Atomic      Atomic             Coordinates (Angstroms)
 Number     Number       Type             X           Y           Z
 ---------------------------------------------------------------------
      1          1           0        0.000000    0.000000    0.000000
      2          1           0       -0.500000    0.000000    0.000000
      3          9           0        2.850000    0.000000    0.000000
 ---------------------------------------------------------------------

 SCF Done:  E(UB3LYP) =  -100.862260789     a.u. after   75 cycles

 Alpha  occ. eigenvalues --  -24.76624  -1.22411  -0.55602  -0.49227  -0.46751
 Alpha  occ. eigenvalues --   -0.46686
 Alpha virt. eigenvalues --    0.10601   0.18646   0.56840   0.85874   0.90745
 Alpha virt. eigenvalues --    0.93920   1.09489   1.12228   1.12238   1.62101
 Alpha virt. eigenvalues --    1.86043   1.99763   1.99776   2.37188   3.64671

  Beta  occ. eigenvalues --  -24.73462  -1.13320  -0.49159  -0.43579  -0.43579
  Beta virt. eigenvalues --   -0.26220   0.10679   0.18696   0.56966   0.92243
  Beta virt. eigenvalues --    0.95329   0.95853   1.12228   1.12237   1.12980
  Beta virt. eigenvalues --    1.62130   1.86071   1.99762   1.99775   2.37196

 Mulliken charges and spin densities:
               1          2
     1  H   -0.011098  -0.002280
     2  H   -0.000930   0.000540
     3  F    0.012028   1.001740
 Sum of Mulliken charges =   0.00000   1.00000

 Dipole moment (field-independent basis, Debye):
    X=              0.1015    Y=              0.0000    Z=              0.0000  Tot=              0.1015
 Quadrupole moment (field-independent basis, Debye-Ang):
   XX=             -5.9473   YY=             -5.7339   ZZ=             -6.5972
   XY=              0.0000   XZ=             -0.0000   YZ=             -0.0066

  Exact polarizability:       5.893       0.000       2.270      -0.000      -0.003       1.813
 Approx polarizability:       6.142       0.000       2.468      -0.000      -0.004       1.896

 ******    2 imaginary frequencies (negative Signs) ******

                      1                      2                      3
                      A                      A                      A
 Frequencies --  -4821.5424             -4821.0258               100.8931
 Red. masses --      1.0085                 1.0085                 1.1085
 Frc consts  --     13.8130                13.8101                 0.0066
 IR Inten    --      0.1030                 0.1048                 0.1558

                      4
                      A
 Frequencies --   9960.3183
 Red. masses --      1.0078
 Frc consts  --     58.9090
 IR Inten    --      0.4208

 - Thermochemistry -
 -------------------
 Temperature   298.150 Kelvin.  Pressure   1.00000 Atm.
 Atom     1 has atomic number  1 and mass   1.00783

 Molecular mass:    21.01405 amu.
 Principal axes and moments of inertia in atomic units:
                           1         2         3
     Eigenvalues --     0.00000  62.98781  62.98781
           X            1.00000  -0.00000   0.00000
           Y            0.00000   1.00000   0.00000
           Z            0.00000   0.00000   1.00000
 This molecule is a prolate symmetric top.
 Rotational symmetry number  1.
 Rotational temperature (Kelvin)      1.37509
 Rotational constant (GHZ):          28.652230
    2 imaginary frequencies ignored.
 Zero-point vibrational energy      60179.4 (Joules/Mol)
                                   14.38322 (Kcal/Mol)
 Warning -- explicit consideration of   1 degrees of freedom as
           vibrations may cause significant error
 Vibrational temperatures:    145.16 14330.68
          (Kelvin)

 Zero-point correction=                           0.022921 (Hartree/Particle)
 Thermal correction to Energy=                    0.026014
 Thermal correction to Enthalpy=                  0.026959
 Thermal correction to Gibbs Free Energy=         0.001986
 Sum of electronic and zero-point Energies=           -100.839340
 Sum of electronic and thermal Energies=              -100.836246
 Sum of electronic and thermal Enthalpies=            -100.835302
 Sum of electronic and thermal Free Energies=         -100.860275

                     E (Thermal)             CV                S
                      KCal/Mol        Cal/Mol-Kelvin    Cal/Mol-Kelvin
 Total                   16.324              6.916             52.559
 Electronic               0.000              0.000              1.377
 Translational            0.889              2.981             35.068
 Rotational               0.592              1.987             12.677
 Vibrational             14.843              1.948              3.437
 Vibration     1          0.604              1.948              3.437

 Normal termination of Gaussian 16 at Fri Aug 22 18:45:27 2025.
