 Gaussian 16, Revision C.01,
 Gaussian 16:  ES64L-G16RevC.01  3-Jul-2019

 -----------------------------------------
 # sp b3lyp/6-311g** Force nosymm scf=(qc)
 -----------------------------------------

 -------------------
 Title Card Required
 -------------------
 Symbolic Z-matrix:
 Charge =  0 Multiplicity = 2

                          Input orientation:
 ---------------------------------------------------------------------
 Center     Atomic      Atomic             Coordinates (Angstroms)
 Number     Number       Type             X           Y           Z
 ---------------------------------------------------------------------
      1          1           0        0.000000    0.000000    0.000000
      2          1           0       -2.700000    0.000000    0.000000
      3          9           0        2.800000    0.000000    0.000000
 ---------------------------------------------------------------------

 SCF Done:  E(UB3LYP) =  -100.764927856     a.u. after   22 cycles

 Alpha  occ. eigenvalues --  -24.73317  -1.19429  -0.52431  -0.44028  -0.44028
 Alpha  occ. eigenvalues --   -0.33106
 Alpha virt. eigenvalues --   -0.10408   0.24941   0.33975   0.90069   0.92735
 Alpha virt. eigenvalues --    0.92735   1.05187   1.24483   1.24483   1.26216
 Alpha virt. eigenvalues --    1.40334   1.40334   1.41815   2.15482   2.36811

  Beta  occ. eigenvalues --  -24.70347  -1.10932  -0.41058  -0.41058  -0.34311
  Beta virt. eigenvalues --   -0.24339  -0.08637   0.25304   0.35570   0.94175
  Beta virt. eigenvalues --    0.94175   0.98441   1.08851   1.23104   1.23104
  Beta virt. eigenvalues --    1.25504   1.43120   1.43120   1.43825   2.15877

 Mulliken charges and spin densities:
               1          2
     1  H    0.048660  -0.924052
     2  H    0.004620   0.983413
     3  F   -0.053281   0.940639
 Sum of Mulliken charges =  -0.00000   1.00000

 Dipole moment (field-independent basis, Debye):
    X=             -0.8240    Y=              0.0000    Z=              0.0000  Tot=              0.8240
 Quadrupole moment (field-independent basis, Debye-Ang):
   XX=             -8.4503   YY=             -7.6256   ZZ=             -7.6256
   XY=              0.0000   XZ=             -0.0000   YZ=             -0.0000

  Exact polarizability:      40.108       0.000       2.016      -0.000       0.000       2.016
 Approx polarizability:      40.761       0.000       1.920      -0.000      -0.000       1.920

 ******    2 imaginary frequencies (negative Signs) ******

                      1                      2                      3
                      A                      A                      A
 Frequencies --   -607.0064              -253.9238               230.9417
 Red. masses --      1.0191                 1.0951                 1.0175
 Frc consts  --      0.2212                 0.0416                 0.0320
 IR Inten    --     40.8723                14.4605                 2.0181

                      4
                      A
 Frequencies --    230.9417
 Red. masses --      1.0175
 Frc consts  --      0.0320
 IR Inten    --      2.0181

 - Thermochemistry -
 -------------------
 Temperature   298.150 Kelvin.  Pressure   1.00000 Atm.
 Atom     1 has atomic number  1 and mass   1.00783

 Molecular mass:    21.01405 amu.
 Principal axes and moments of inertia in atomic units:
                           1         2         3
     Eigenvalues --     0.00000 125.19534 125.19534
           X            1.00000  -0.00000   0.00000
           Y            0.00000   1.00000   0.00000
           Z            0.00000   0.00000   1.00000
 This molecule is a prolate symmetric top.
 Rotational symmetry number  1.
 Rotational temperature (Kelvin)      0.69183
 Rotational constant (GHZ):          14.415402
    2 imaginary frequencies ignored.
 Zero-point vibrational energy       2762.7 (Joules/Mol)
                                    0.66030 (Kcal/Mol)
 Warning -- explicit consideration of   2 degrees of freedom as
           vibrations may cause significant error
 Vibrational temperatures:    332.27   332.27
          (Kelvin)

 Zero-point correction=                           0.001052 (Hartree/Particle)
 Thermal correction to Energy=                    0.004440
 Thermal correction to Enthalpy=                  0.005385
 Thermal correction to Gibbs Free Energy=        -0.020382
 Sum of electronic and zero-point Energies=           -100.763876
 Sum of electronic and thermal Energies=              -100.760488
 Sum of electronic and thermal Enthalpies=            -100.759543
 Sum of electronic and thermal Free Energies=         -100.785310

                     E (Thermal)             CV                S
                      KCal/Mol        Cal/Mol-Kelvin    Cal/Mol-Kelvin
 Total                    2.786              8.555             54.230
 Electronic               0.000              0.000              1.377
 Translational            0.889              2.981             35.068
 Rotational               0.592              1.987             14.042
 Vibrational              1.305              3.587              3.743
 Vibration     1          0.653              1.794              1.872
 Vibration     2          0.653              1.794              1.872

 Normal termination of Gaussian 16 at Fri Aug 22 18:43:47 2025.
