 Gaussian 16, Revision C.01,
 Gaussian 16:  ES64L-G16RevC.01  3-Jul-2019

 -----------------------------------------
 # sp b3lyp/6-311g** Force nosymm scf=(qc)
 -----------------------------------------

 -------------------
 Title Card Required
 -------------------
 Symbolic Z-matrix:
 Charge =  0 Multiplicity = 2

                          Input orientation:
 ---------------------------------------------------------------------
 Center     Atomic      Atomic             Coordinates (Angstroms)
 Number     Number       Type             X           Y           Z
 ---------------------------------------------------------------------
      1          1           0        0.000000    0.000000    0.000000
      2          1           0       -1.250000    0.000000    0.000000
      3          9           0        3.450000    0.000000    0.000000
 ---------------------------------------------------------------------

 SCF Done:  E(UB3LYP) =  -100.862862001     a.u. after  299 cycles

 Alpha  occ. eigenvalues --  -24.76406  -1.22274  -0.55472  -0.46671  -0.46626
 Alpha  occ. eigenvalues --   -0.35753
 Alpha virt. eigenvalues --   -0.05091   0.23218   0.33396   0.85932   0.90807
 Alpha virt. eigenvalues --    0.92286   1.01503   1.14147   1.14150   1.18849
 Alpha virt. eigenvalues --    1.51902   1.51905   2.03219   2.30423   2.54031

  Beta  occ. eigenvalues --  -24.73249  -1.13196  -0.43507  -0.43461  -0.35750
  Beta virt. eigenvalues --   -0.26113  -0.05085   0.23228   0.33433   0.92307
  Beta virt. eigenvalues --    0.93798   0.95395   1.05591   1.14146   1.14149
  Beta virt. eigenvalues --    1.18859   1.51901   1.51905   2.03226   2.30425

 Mulliken charges and spin densities:
               1          2
     1  H    0.000101  -0.000136
     2  H   -0.003435  -0.000259
     3  F    0.003333   1.000396
 Sum of Mulliken charges =  -0.00000   1.00000

 Dipole moment (field-independent basis, Debye):
    X=              0.0530    Y=              0.0000    Z=              0.0000  Tot=              0.0530
 Quadrupole moment (field-independent basis, Debye-Ang):
   XX=             -6.2455   YY=             -6.6827   ZZ=             -7.5468
   XY=              0.0000   XZ=              0.0000   YZ=              0.0062

  Exact polarizability:      17.150       0.000       2.541       0.000       0.003       2.076
 Approx polarizability:      26.733       0.000       2.679       0.000       0.004       2.097

 ******    2 imaginary frequencies (negative Signs) ******

                      1                      2                      3
                      A                      A                      A
 Frequencies --   -788.9135               -33.2084              1433.8296
 Red. masses --      1.0078                 1.1085                 1.0102
 Frc consts  --      0.3696                 0.0007                 1.2236
 IR Inten    --      0.2301                 0.1927                 0.0014

                      4
                      A
 Frequencies --   1434.6135
 Red. masses --      1.0102
 Frc consts  --      1.2249
 IR Inten    --      0.0013

 - Thermochemistry -
 -------------------
 Temperature   298.150 Kelvin.  Pressure   1.00000 Atm.
 Atom     1 has atomic number  1 and mass   1.00783

 Molecular mass:    21.01405 amu.
 Principal axes and moments of inertia in atomic units:
                           1         2         3
     Eigenvalues --     0.00000 110.87431 110.87431
           X            1.00000  -0.00000   0.00000
           Y            0.00000   1.00000   0.00000
           Z            0.00000   0.00000   1.00000
 This molecule is a prolate symmetric top.
 Rotational symmetry number  1.
 Rotational temperature (Kelvin)      0.78119
 Rotational constant (GHZ):          16.277361
    2 imaginary frequencies ignored.
 Zero-point vibrational energy      17157.1 (Joules/Mol)
                                    4.10065 (Kcal/Mol)
 Vibrational temperatures:   2062.96  2064.09
          (Kelvin)

 Zero-point correction=                           0.006535 (Hartree/Particle)
 Thermal correction to Energy=                    0.008908
 Thermal correction to Enthalpy=                  0.009852
 Thermal correction to Gibbs Free Energy=        -0.014036
 Sum of electronic and zero-point Energies=           -100.856327
 Sum of electronic and thermal Energies=              -100.853954
 Sum of electronic and thermal Enthalpies=            -100.853010
 Sum of electronic and thermal Free Energies=         -100.876898

                     E (Thermal)             CV                S
                      KCal/Mol        Cal/Mol-Kelvin    Cal/Mol-Kelvin
 Total                    5.590              5.156             50.277
 Electronic               0.000              0.000              1.377
 Translational            0.889              2.981             35.068
 Rotational               0.592              1.987             13.800
 Vibrational              4.109              0.188              0.031

 Normal termination of Gaussian 16 at Fri Aug 22 21:30:39 2025.
