 Gaussian 16, Revision C.01,
 Gaussian 16:  ES64L-G16RevC.01  3-Jul-2019

 -----------------------------------------
 # sp b3lyp/6-311g** Force nosymm scf=(qc)
 -----------------------------------------

 -------------------
 Title Card Required
 -------------------
 Symbolic Z-matrix:
 Charge =  0 Multiplicity = 2

                          Input orientation:
 ---------------------------------------------------------------------
 Center     Atomic      Atomic             Coordinates (Angstroms)
 Number     Number       Type             X           Y           Z
 ---------------------------------------------------------------------
      1          1           0        0.000000    0.000000    0.000000
      2          1           0       -2.650000    0.000000    0.000000
      3          9           0        2.500000    0.000000    0.000000
 ---------------------------------------------------------------------

 SCF Done:  E(UB3LYP) =  -100.769877539     a.u. after   20 cycles

 Alpha  occ. eigenvalues --  -24.71748  -1.17957  -0.50846  -0.42711  -0.42711
 Alpha  occ. eigenvalues --   -0.33570
 Alpha virt. eigenvalues --   -0.11581   0.24636   0.33497   0.90004   0.93621
 Alpha virt. eigenvalues --    0.93621   1.06557   1.24033   1.24033   1.26250
 Alpha virt. eigenvalues --    1.38714   1.38714   1.43353   2.15061   2.34059

  Beta  occ. eigenvalues --  -24.68906  -1.09868  -0.39878  -0.39878  -0.35331
  Beta virt. eigenvalues --   -0.23370  -0.09007   0.25474   0.35323   0.94985
  Beta virt. eigenvalues --    0.94985   0.96811   1.09278   1.22241   1.22241
  Beta virt. eigenvalues --    1.30103   1.42657   1.42657   1.43670   2.14432

 Mulliken charges and spin densities:
               1          2
     1  H    0.081749  -0.878771
     2  H    0.007652   0.980765
     3  F   -0.089401   0.898005
 Sum of Mulliken charges =  -0.00000   1.00000

 Dipole moment (field-independent basis, Debye):
    X=             -1.2338    Y=             -0.0000    Z=             -0.0000  Tot=              1.2338
 Quadrupole moment (field-independent basis, Debye-Ang):
   XX=             -8.9544   YY=             -7.6006   ZZ=             -7.6006
   XY=             -0.0000   XZ=             -0.0000   YZ=             -0.0000

  Exact polarizability:      39.931      -0.000       2.018      -0.000      -0.000       2.018
 Approx polarizability:      44.576      -0.000       1.918      -0.000       0.000       1.918

 ******    2 imaginary frequencies (negative Signs) ******

                      1                      2                      3
                      A                      A                      A
 Frequencies --   -738.8202              -304.3036               292.8220
 Red. masses --      1.0284                 1.0846                 1.0187
 Frc consts  --      0.3307                 0.0592                 0.0515
 IR Inten    --     63.1403                14.8814                 5.7281

                      4
                      A
 Frequencies --    292.8220
 Red. masses --      1.0187
 Frc consts  --      0.0515
 IR Inten    --      5.7281

 - Thermochemistry -
 -------------------
 Temperature   298.150 Kelvin.  Pressure   1.00000 Atm.
 Atom     1 has atomic number  1 and mass   1.00783

 Molecular mass:    21.01405 amu.
 Principal axes and moments of inertia in atomic units:
                           1         2         3
     Eigenvalues --     0.00000 107.84712 107.84712
           X            1.00000  -0.00000   0.00000
           Y            0.00000   1.00000   0.00000
           Z            0.00000   0.00000   1.00000
 This molecule is a prolate symmetric top.
 Rotational symmetry number  1.
 Rotational temperature (Kelvin)      0.80312
 Rotational constant (GHZ):          16.734255
    2 imaginary frequencies ignored.
 Zero-point vibrational energy       3502.9 (Joules/Mol)
                                    0.83722 (Kcal/Mol)
 Warning -- explicit consideration of   2 degrees of freedom as
           vibrations may cause significant error
 Vibrational temperatures:    421.31   421.31
          (Kelvin)

 Zero-point correction=                           0.001334 (Hartree/Particle)
 Thermal correction to Energy=                    0.004553
 Thermal correction to Enthalpy=                  0.005497
 Thermal correction to Gibbs Free Energy=        -0.019735
 Sum of electronic and zero-point Energies=           -100.768543
 Sum of electronic and thermal Energies=              -100.765324
 Sum of electronic and thermal Enthalpies=            -100.764380
 Sum of electronic and thermal Free Energies=         -100.789613

                     E (Thermal)             CV                S
                      KCal/Mol        Cal/Mol-Kelvin    Cal/Mol-Kelvin
 Total                    2.857              8.342             53.106
 Electronic               0.000              0.000              1.377
 Translational            0.889              2.981             35.068
 Rotational               0.592              1.987             13.745
 Vibrational              1.376              3.374              2.915
 Vibration     1          0.688              1.687              1.458
 Vibration     2          0.688              1.687              1.458

 Normal termination of Gaussian 16 at Fri Aug 22 17:45:25 2025.
