 Gaussian 16, Revision C.01,
 Gaussian 16:  ES64L-G16RevC.01  3-Jul-2019

 -----------------------------------------
 # sp b3lyp/6-311g** Force nosymm scf=(qc)
 -----------------------------------------

 -------------------
 Title Card Required
 -------------------
 Symbolic Z-matrix:
 Charge =  0 Multiplicity = 2

                          Input orientation:
 ---------------------------------------------------------------------
 Center     Atomic      Atomic             Coordinates (Angstroms)
 Number     Number       Type             X           Y           Z
 ---------------------------------------------------------------------
      1          1           0        0.000000    0.000000    0.000000
      2          1           0       -2.450000    0.000000    0.000000
      3          9           0        1.150000    0.000000    0.000000
 ---------------------------------------------------------------------

 SCF Done:  E(UB3LYP) =  -100.938067088     a.u. after    6 cycles

 Alpha  occ. eigenvalues --  -24.64111  -1.12844  -0.48597  -0.37618  -0.37618
 Alpha  occ. eigenvalues --   -0.35351
 Alpha virt. eigenvalues --   -0.03018   0.24716   0.29391   0.93528   0.93528
 Alpha virt. eigenvalues --    1.00269   1.19888   1.22184   1.22184   1.35141
 Alpha virt. eigenvalues --    1.35141   1.35204   1.76724   2.13154   2.31257

  Beta  occ. eigenvalues --  -24.64068  -1.12736  -0.48408  -0.37579  -0.37579
  Beta virt. eigenvalues --   -0.11311  -0.00649   0.29391   0.36442   0.93528
  Beta virt. eigenvalues --    0.93528   1.00378   1.27818   1.35046   1.35046
  Beta virt. eigenvalues --    1.43312   1.43312   1.47471   1.76942   2.30495

 Mulliken charges and spin densities:
               1          2
     1  H    0.340363   0.000490
     2  H    0.010466   0.986371
     3  F   -0.350829   0.013140
 Sum of Mulliken charges =  -0.00000   1.00000

 Dipole moment (field-independent basis, Debye):
    X=             -2.3549    Y=              0.0000    Z=              0.0000  Tot=              2.3549
 Quadrupole moment (field-independent basis, Debye-Ang):
   XX=             -8.3733   YY=             -7.0814   ZZ=             -7.0814
   XY=              0.0000   XZ=              0.0000   YZ=              0.0000

  Exact polarizability:      11.853       0.000       2.372      -0.000      -0.000       2.372
 Approx polarizability:      14.662       0.000       2.336      -0.000      -0.000       2.336

 ******    1 imaginary frequencies (negative Signs) ******

                      1                      2                      3
                      A                      A                      A
 Frequencies --   -164.6152              1181.4711              1181.4711
 Red. masses --      1.0499                 1.0291                 1.0291
 Frc consts  --      0.0168                 0.8463                 0.8463
 IR Inten    --      3.5551               134.8377               134.8377

                      4
                      A
 Frequencies --   1420.9699
 Red. masses --      1.0617
 Frc consts  --      1.2631
 IR Inten    --    127.8794

 - Thermochemistry -
 -------------------
 Temperature   298.150 Kelvin.  Pressure   1.00000 Atm.
 Atom     1 has atomic number  1 and mass   1.00783

 Molecular mass:    21.01405 amu.
 Principal axes and moments of inertia in atomic units:
                           1         2         3
     Eigenvalues --     0.00000  47.50840  47.50840
           X            1.00000  -0.00000   0.00000
           Y            0.00000   1.00000   0.00000
           Z            0.00000   0.00000   1.00000
 This molecule is a prolate symmetric top.
 Rotational symmetry number  1.
 Rotational temperature (Kelvin)      1.82313
 Rotational constant (GHZ):          37.987837
    1 imaginary frequencies ignored.
 Zero-point vibrational energy      22632.8 (Joules/Mol)
                                    5.40937 (Kcal/Mol)
 Vibrational temperatures:   1699.87  1699.87  2044.46
          (Kelvin)

 Zero-point correction=                           0.008620 (Hartree/Particle)
 Thermal correction to Energy=                    0.011024
 Thermal correction to Enthalpy=                  0.011968
 Thermal correction to Gibbs Free Energy=        -0.011155
 Sum of electronic and zero-point Energies=           -100.929447
 Sum of electronic and thermal Energies=              -100.927043
 Sum of electronic and thermal Enthalpies=            -100.926099
 Sum of electronic and thermal Free Energies=         -100.949223

                     E (Thermal)             CV                S
                      KCal/Mol        Cal/Mol-Kelvin    Cal/Mol-Kelvin
 Total                    6.918              5.501             48.667
 Electronic               0.000              0.000              1.377
 Translational            0.889              2.981             35.068
 Rotational               0.592              1.987             12.116
 Vibrational              5.436              0.533              0.106

 Normal termination of Gaussian 16 at Fri Aug 22 16:08:02 2025.
