 Gaussian 16, Revision C.01,
 Gaussian 16:  ES64L-G16RevC.01  3-Jul-2019

 -----------------------------------------
 # sp b3lyp/6-311g** Force nosymm scf=(qc)
 -----------------------------------------

 -------------------
 Title Card Required
 -------------------
 Symbolic Z-matrix:
 Charge =  0 Multiplicity = 2

                          Input orientation:
 ---------------------------------------------------------------------
 Center     Atomic      Atomic             Coordinates (Angstroms)
 Number     Number       Type             X           Y           Z
 ---------------------------------------------------------------------
      1          1           0        0.000000    0.000000    0.000000
      2          1           0       -3.950000    0.000000    0.000000
      3          9           0        3.900000    0.000000    0.000000
 ---------------------------------------------------------------------

 SCF Done:  E(UB3LYP) =  -100.758434748     a.u. after   41 cycles

 Alpha  occ. eigenvalues --  -24.75822  -1.21753  -0.54947  -0.46134  -0.46134
 Alpha  occ. eigenvalues --   -0.32233
 Alpha virt. eigenvalues --   -0.05976   0.24191   0.37837   0.86689   0.91208
 Alpha virt. eigenvalues --    0.91208   1.01161   1.25261   1.25261   1.25287
 Alpha virt. eigenvalues --    1.46498   1.46498   1.46804   2.14616   2.42429

  Beta  occ. eigenvalues --  -24.72680  -1.12719  -0.42984  -0.42984  -0.32472
  Beta virt. eigenvalues --   -0.25702  -0.05837   0.24003   0.38220   0.92705
  Beta virt. eigenvalues --    0.92705   0.96035   1.05274   1.25001   1.25001
  Beta virt. eigenvalues --    1.25012   1.46678   1.46774   1.46774   2.14603

 Mulliken charges and spin densities:
               1          2
     1  H    0.003411  -0.995484
     2  H    0.000023   0.999288
     3  F   -0.003434   0.996196
 Sum of Mulliken charges =  -0.00000   1.00000

 Dipole moment (field-independent basis, Debye):
    X=             -0.0698    Y=              0.0000    Z=              0.0000  Tot=              0.0698
 Quadrupole moment (field-independent basis, Debye-Ang):
   XX=             -6.9893   YY=             -7.6191   ZZ=             -7.6191
   XY=              0.0000   XZ=             -0.0000   YZ=             -0.0000

  Exact polarizability:      12.208       0.000       2.035       0.000      -0.000       2.035
 Approx polarizability:       9.001       0.000       1.937      -0.000      -0.000       1.937

 ******    2 imaginary frequencies (negative Signs) ******

                      1                      2                      3
                      A                      A                      A
 Frequencies --   -142.6009               -60.5762                44.8883
 Red. masses --      1.0258                 1.0876                 1.0181
 Frc consts  --      0.0123                 0.0024                 0.0012
 IR Inten    --      1.7641                 0.2454                 0.0114

                      4
                      A
 Frequencies --     44.8883
 Red. masses --      1.0181
 Frc consts  --      0.0012
 IR Inten    --      0.0114

 - Thermochemistry -
 -------------------
 Temperature   298.150 Kelvin.  Pressure   1.00000 Atm.
 Atom     1 has atomic number  1 and mass   1.00783

 Molecular mass:    21.01405 amu.
 Principal axes and moments of inertia in atomic units:
                           1         2         3
     Eigenvalues --     0.00000 252.69028 252.69028
           X            1.00000  -0.00000   0.00000
           Y            0.00000   1.00000   0.00000
           Z            0.00000   0.00000   1.00000
 This molecule is a prolate symmetric top.
 Rotational symmetry number  1.
 Rotational temperature (Kelvin)      0.34277
 Rotational constant (GHZ):           7.142108
    2 imaginary frequencies ignored.
 Zero-point vibrational energy        537.0 (Joules/Mol)
                                    0.12834 (Kcal/Mol)
 Warning -- explicit consideration of   2 degrees of freedom as
           vibrations may cause significant error
 Vibrational temperatures:     64.58    64.58
          (Kelvin)

 Zero-point correction=                           0.000205 (Hartree/Particle)
 Thermal correction to Energy=                    0.004256
 Thermal correction to Enthalpy=                  0.005200
 Thermal correction to Gibbs Free Energy=        -0.024231
 Sum of electronic and zero-point Energies=           -100.758230
 Sum of electronic and thermal Energies=              -100.754179
 Sum of electronic and thermal Enthalpies=            -100.753234
 Sum of electronic and thermal Free Energies=         -100.782666

                     E (Thermal)             CV                S
                      KCal/Mol        Cal/Mol-Kelvin    Cal/Mol-Kelvin
 Total                    2.671              8.927             61.944
 Electronic               0.000              0.000              1.377
 Translational            0.889              2.981             35.068
 Rotational               0.592              1.987             15.437
 Vibrational              1.190              3.959             10.062
 Vibration     1          0.595              1.979              5.031
 Vibration     2          0.595              1.979              5.031

 Normal termination of Gaussian 16 at Sat Aug 23 01:28:05 2025.
