 Gaussian 16, Revision C.01,
 Gaussian 16:  ES64L-G16RevC.01  3-Jul-2019

 -----------------------------------------
 # sp b3lyp/6-311g** Force nosymm scf=(qc)
 -----------------------------------------

 -------------------
 Title Card Required
 -------------------
 Symbolic Z-matrix:
 Charge =  0 Multiplicity = 2

                          Input orientation:
 ---------------------------------------------------------------------
 Center     Atomic      Atomic             Coordinates (Angstroms)
 Number     Number       Type             X           Y           Z
 ---------------------------------------------------------------------
      1          1           0        0.000000    0.000000    0.000000
      2          1           0       -3.700000    0.000000    0.000000
      3          9           0        0.700000    0.000000    0.000000
 ---------------------------------------------------------------------

 SCF Done:  E(UB3LYP) =  -100.874757567     a.u. after    6 cycles

 Alpha  occ. eigenvalues --  -24.63199  -1.28233  -0.58589  -0.41765  -0.41765
 Alpha  occ. eigenvalues --   -0.33298
 Alpha virt. eigenvalues --    0.06445   0.24632   0.52478   0.93479   0.93479
 Alpha virt. eigenvalues --    0.95784   1.24055   1.24209   1.24209   1.30902
 Alpha virt. eigenvalues --    1.44058   1.44058   1.97773   2.14428   2.86568

  Beta  occ. eigenvalues --  -24.63199  -1.28232  -0.58589  -0.41765  -0.41765
  Beta virt. eigenvalues --   -0.05128   0.06750   0.39293   0.52452   0.93479
  Beta virt. eigenvalues --    0.93479   0.95778   1.30611   1.44058   1.44058
  Beta virt. eigenvalues --    1.50590   1.50590   1.50746   1.97798   2.44774

 Mulliken charges and spin densities:
               1          2
     1  H    0.262358   0.000415
     2  H    0.000518   0.999391
     3  F   -0.262876   0.000194
 Sum of Mulliken charges =   0.00000   1.00000

 Dipole moment (field-independent basis, Debye):
    X=             -1.5865    Y=             -0.0000    Z=             -0.0000  Tot=              1.5865
 Quadrupole moment (field-independent basis, Debye-Ang):
   XX=             -7.3044   YY=             -6.6631   ZZ=             -6.6631
   XY=             -0.0000   XZ=             -0.0000   YZ=              0.0000

  Exact polarizability:       3.843      -0.000       2.445       0.000      -0.000       2.445
 Approx polarizability:       4.212       0.000       2.425       0.000      -0.000       2.425

 ******    3 imaginary frequencies (negative Signs) ******

                      1                      2                      3
                      A                      A                      A
 Frequencies --  -3565.5565             -3565.5565               -35.3304
 Red. masses --      1.0427                 1.0427                 1.0532
 Frc consts  --      7.8100                 7.8100                 0.0008
 IR Inten    --    215.5945               215.5945                 0.0159

                      4
                      A
 Frequencies --   9073.2178
 Red. masses --      1.0583
 Frc consts  --     51.3318
 IR Inten    --    104.6379

 - Thermochemistry -
 -------------------
 Temperature   298.150 Kelvin.  Pressure   1.00000 Atm.
 Atom     1 has atomic number  1 and mass   1.00783

 Molecular mass:    21.01405 amu.
 Principal axes and moments of inertia in atomic units:
                           1         2         3
     Eigenvalues --     0.00000  66.95081  66.95081
           X            1.00000  -0.00000   0.00000
           Y            0.00000   1.00000   0.00000
           Z            0.00000   0.00000   1.00000
 This molecule is a prolate symmetric top.
 Rotational symmetry number  1.
 Rotational temperature (Kelvin)      1.29369
 Rotational constant (GHZ):          26.956225
    3 imaginary frequencies ignored.
 Zero-point vibrational energy      54269.9 (Joules/Mol)
                                   12.97082 (Kcal/Mol)
 Vibrational temperatures:  13054.34
          (Kelvin)

 Zero-point correction=                           0.020670 (Hartree/Particle)
 Thermal correction to Energy=                    0.023031
 Thermal correction to Enthalpy=                  0.023975
 Thermal correction to Gibbs Free Energy=         0.000578
 Sum of electronic and zero-point Energies=           -100.854087
 Sum of electronic and thermal Energies=              -100.851727
 Sum of electronic and thermal Enthalpies=            -100.850783
 Sum of electronic and thermal Free Energies=         -100.874180

                     E (Thermal)             CV                S
                      KCal/Mol        Cal/Mol-Kelvin    Cal/Mol-Kelvin
 Total                   14.452              4.968             49.243
 Electronic               0.000              0.000              1.377
 Translational            0.889              2.981             35.068
 Rotational               0.592              1.987             12.798
 Vibrational             12.971              0.000              0.000

 Normal termination of Gaussian 16 at Fri Aug 22 15:47:30 2025.
