 Gaussian 16, Revision C.01,
 Gaussian 16:  ES64L-G16RevC.01  3-Jul-2019

 -----------------------------------------
 # sp b3lyp/6-311g** Force nosymm scf=(qc)
 -----------------------------------------

 -------------------
 Title Card Required
 -------------------
 Symbolic Z-matrix:
 Charge =  0 Multiplicity = 2

                          Input orientation:
 ---------------------------------------------------------------------
 Center     Atomic      Atomic             Coordinates (Angstroms)
 Number     Number       Type             X           Y           Z
 ---------------------------------------------------------------------
      1          1           0        0.000000    0.000000    0.000000
      2          1           0       -1.250000    0.000000    0.000000
      3          9           0        1.150000    0.000000    0.000000
 ---------------------------------------------------------------------

 SCF Done:  E(UB3LYP) =  -100.946494030     a.u. after    8 cycles

 Alpha  occ. eigenvalues --  -24.64067  -1.13565  -0.52633  -0.37773  -0.37773
 Alpha  occ. eigenvalues --   -0.37610
 Alpha virt. eigenvalues --    0.05882   0.19573   0.32808   0.92284   0.92284
 Alpha virt. eigenvalues --    0.99836   1.10477   1.10477   1.21716   1.49548
 Alpha virt. eigenvalues --    1.49548   1.56393   2.09253   2.32452   2.47779

  Beta  occ. eigenvalues --  -24.63233  -1.11451  -0.47822  -0.37011  -0.37011
  Beta virt. eigenvalues --   -0.19785   0.08776   0.22970   0.36613   0.92945
  Beta virt. eigenvalues --    0.92945   1.01678   1.17653   1.17653   1.28226
  Beta virt. eigenvalues --    1.53785   1.53785   1.59409   2.21521   2.31312

 Mulliken charges and spin densities:
               1          2
     1  H    0.288864  -0.047275
     2  H    0.050429   0.809225
     3  F   -0.339293   0.238051
 Sum of Mulliken charges =  -0.00000   1.00000

 Dipole moment (field-independent basis, Debye):
    X=             -2.4658    Y=             -0.0000    Z=              0.0000  Tot=              2.4658
 Quadrupole moment (field-independent basis, Debye-Ang):
   XX=             -7.8172   YY=             -6.8864   ZZ=             -6.8864
   XY=             -0.0000   XZ=             -0.0000   YZ=              0.0000

  Exact polarizability:      19.485       0.000       2.508       0.000      -0.000       2.508
 Approx polarizability:      24.480      -0.000       2.500       0.000      -0.000       2.500

 ******    1 imaginary frequencies (negative Signs) ******

                      1                      2                      3
                      A                      A                      A
 Frequencies --  -1771.4930               977.3725              1057.8877
 Red. masses --      1.0140                 1.1011                 1.0190
 Frc consts  --      1.8749                 0.6197                 0.6719
 IR Inten    --      4.8694                45.0679                54.3485

                      4
                      A
 Frequencies --   1057.8877
 Red. masses --      1.0190
 Frc consts  --      0.6719
 IR Inten    --     54.3485

 - Thermochemistry -
 -------------------
 Temperature   298.150 Kelvin.  Pressure   1.00000 Atm.
 Atom     1 has atomic number  1 and mass   1.00783

 Molecular mass:    21.01405 amu.
 Principal axes and moments of inertia in atomic units:
                           1         2         3
     Eigenvalues --     0.00000  23.31470  23.31470
           X            1.00000  -0.00000   0.00000
           Y            0.00000   1.00000   0.00000
           Z            0.00000   0.00000   1.00000
 This molecule is a prolate symmetric top.
 Rotational symmetry number  1.
 Rotational temperature (Kelvin)      3.71499
 Rotational constant (GHZ):          77.407869
    1 imaginary frequencies ignored.
 Zero-point vibrational energy      18501.1 (Joules/Mol)
                                    4.42188 (Kcal/Mol)
 Vibrational temperatures:   1406.22  1522.06  1522.06
          (Kelvin)

 Zero-point correction=                           0.007047 (Hartree/Particle)
 Thermal correction to Energy=                    0.009506
 Thermal correction to Enthalpy=                  0.010450
 Thermal correction to Gibbs Free Energy=        -0.012070
 Sum of electronic and zero-point Energies=           -100.939447
 Sum of electronic and thermal Energies=              -100.936988
 Sum of electronic and thermal Enthalpies=            -100.936044
 Sum of electronic and thermal Free Energies=         -100.958564

                     E (Thermal)             CV                S
                      KCal/Mol        Cal/Mol-Kelvin    Cal/Mol-Kelvin
 Total                    5.965              6.007             47.397
 Electronic               0.000              0.000              1.377
 Translational            0.889              2.981             35.068
 Rotational               0.592              1.987             10.702
 Vibrational              4.484              1.039              0.250

 Normal termination of Gaussian 16 at Fri Aug 22 16:07:12 2025.
