 Gaussian 16, Revision C.01,
 Gaussian 16:  ES64L-G16RevC.01  3-Jul-2019

 -----------------------------------------
 # sp b3lyp/6-311g** Force nosymm scf=(qc)
 -----------------------------------------

 -------------------
 Title Card Required
 -------------------
 Symbolic Z-matrix:
 Charge =  0 Multiplicity = 2

                          Input orientation:
 ---------------------------------------------------------------------
 Center     Atomic      Atomic             Coordinates (Angstroms)
 Number     Number       Type             X           Y           Z
 ---------------------------------------------------------------------
      1          1           0        0.000000    0.000000    0.000000
      2          1           0       -3.400000    0.000000    0.000000
      3          9           0        2.200000    0.000000    0.000000
 ---------------------------------------------------------------------

 SCF Done:  E(UB3LYP) =  -100.776060188     a.u. after   16 cycles

 Alpha  occ. eigenvalues --  -24.67049  -1.08596  -0.38381  -0.38381  -0.36815
 Alpha  occ. eigenvalues --   -0.33139
 Alpha virt. eigenvalues --   -0.21898   0.20690   0.27990   0.91494   0.95639
 Alpha virt. eigenvalues --    0.95639   1.08277   1.21512   1.21512   1.24281
 Alpha virt. eigenvalues --    1.24281   1.24393   1.42108   2.11351   2.15232

  Beta  occ. eigenvalues --  -24.69667  -1.15981  -0.48721  -0.40976  -0.40976
  Beta virt. eigenvalues --   -0.12631  -0.04658   0.31206   0.40095   0.88550
  Beta virt. eigenvalues --    0.94560   0.94560   1.06158   1.37580   1.37580
  Beta virt. eigenvalues --    1.47772   1.47772   1.47898   1.52010   2.32601

 Mulliken charges and spin densities:
               1          2
     1  H    0.144644   0.825916
     2  H    0.001512   0.998522
     3  F   -0.146156  -0.824438
 Sum of Mulliken charges =   0.00000   1.00000

 Dipole moment (field-independent basis, Debye):
    X=             -1.6355    Y=             -0.0000    Z=              0.0000  Tot=              1.6355
 Quadrupole moment (field-independent basis, Debye-Ang):
   XX=             -9.8582   YY=             -7.5163   ZZ=             -7.5163
   XY=              0.0000   XZ=             -0.0000   YZ=              0.0000

  Exact polarizability:      29.336       0.000       2.041       0.000       0.000       2.041
 Approx polarizability:      40.507      -0.000       1.930       0.000      -0.000       1.930

 ******    1 imaginary frequencies (negative Signs) ******

                      1                      2                      3
                      A                      A                      A
 Frequencies --   -851.5887                83.2528               355.3932
 Red. masses --      1.0598                 1.0518                 1.0240
 Frc consts  --      0.4528                 0.0043                 0.0762
 IR Inten    --     95.9022                 0.3155                19.6845

                      4
                      A
 Frequencies --    355.3932
 Red. masses --      1.0240
 Frc consts  --      0.0762
 IR Inten    --     19.6845

 - Thermochemistry -
 -------------------
 Temperature   298.150 Kelvin.  Pressure   1.00000 Atm.
 Atom     1 has atomic number  1 and mass   1.00783

 Molecular mass:    21.01405 amu.
 Principal axes and moments of inertia in atomic units:
                           1         2         3
     Eigenvalues --     0.00000 119.78270 119.78270
           X            1.00000  -0.00000   0.00000
           Y            0.00000   1.00000   0.00000
           Z            0.00000   0.00000   1.00000
 This molecule is a prolate symmetric top.
 Rotational symmetry number  1.
 Rotational temperature (Kelvin)      0.72309
 Rotational constant (GHZ):          15.066793
    1 imaginary frequencies ignored.
 Zero-point vibrational energy       4749.4 (Joules/Mol)
                                    1.13514 (Kcal/Mol)
 Warning -- explicit consideration of   3 degrees of freedom as
           vibrations may cause significant error
 Vibrational temperatures:    119.78   511.33   511.33
          (Kelvin)

 Zero-point correction=                           0.001809 (Hartree/Particle)
 Thermal correction to Energy=                    0.005647
 Thermal correction to Enthalpy=                  0.006592
 Thermal correction to Gibbs Free Energy=        -0.020252
 Sum of electronic and zero-point Energies=           -100.774251
 Sum of electronic and thermal Energies=              -100.770413
 Sum of electronic and thermal Enthalpies=            -100.769469
 Sum of electronic and thermal Free Energies=         -100.796312

                     E (Thermal)             CV                S
                      KCal/Mol        Cal/Mol-Kelvin    Cal/Mol-Kelvin
 Total                    3.544             10.057             56.496
 Electronic               0.000              0.000              1.377
 Translational            0.889              2.981             35.068
 Rotational               0.592              1.987             13.954
 Vibrational              2.063              5.089              6.097
 Vibration     1          0.600              1.961              3.813
 Vibration     2          0.731              1.564              1.142
 Vibration     3          0.731              1.564              1.142

 Normal termination of Gaussian 16 at Fri Aug 22 17:12:59 2025.
