 Gaussian 16, Revision C.01,
 Gaussian 16:  ES64L-G16RevC.01  3-Jul-2019

 -----------------------------------------
 # sp b3lyp/6-311g** Force nosymm scf=(qc)
 -----------------------------------------

 -------------------
 Title Card Required
 -------------------
 Symbolic Z-matrix:
 Charge =  0 Multiplicity = 2

                          Input orientation:
 ---------------------------------------------------------------------
 Center     Atomic      Atomic             Coordinates (Angstroms)
 Number     Number       Type             X           Y           Z
 ---------------------------------------------------------------------
      1          1           0        0.000000    0.000000    0.000000
      2          1           0       -0.950000    0.000000    0.000000
      3          9           0        1.800000    0.000000    0.000000
 ---------------------------------------------------------------------

 SCF Done:  E(UB3LYP) =  -100.920613080     a.u. after    8 cycles

 Alpha  occ. eigenvalues --  -24.72438  -1.18830  -0.53159  -0.43466  -0.43466
 Alpha  occ. eigenvalues --   -0.41906
 Alpha virt. eigenvalues --    0.02701   0.20707   0.37562   0.90700   0.90700
 Alpha virt. eigenvalues --    0.93983   1.07003   1.07003   1.12119   1.59500
 Alpha virt. eigenvalues --    1.66919   1.66919   2.19559   2.33986   2.66422

  Beta  occ. eigenvalues --  -24.69644  -1.10969  -0.42579  -0.40703  -0.40703
  Beta virt. eigenvalues --   -0.24747   0.04236   0.21619   0.38447   0.91885
  Beta virt. eigenvalues --    0.91885   1.01260   1.08527   1.08527   1.14962
  Beta virt. eigenvalues --    1.62208   1.67847   1.67847   2.21123   2.35679

 Mulliken charges and spin densities:
               1          2
     1  H    0.056144  -0.066152
     2  H    0.043881   0.196999
     3  F   -0.100025   0.869153
 Sum of Mulliken charges =   0.00000   1.00000

 Dipole moment (field-independent basis, Debye):
    X=             -1.0584    Y=             -0.0000    Z=             -0.0000  Tot=              1.0584
 Quadrupole moment (field-independent basis, Debye-Ang):
   XX=             -6.7387   YY=             -7.0979   ZZ=             -7.0979
   XY=             -0.0000   XZ=             -0.0000   YZ=             -0.0000

  Exact polarizability:      28.519       0.000       2.224       0.000       0.000       2.224
 Approx polarizability:      37.825       0.000       2.246       0.000      -0.000       2.246

 ******    1 imaginary frequencies (negative Signs) ******

                      1                      2                      3
                      A                      A                      A
 Frequencies --   -585.8400              1363.5637              1363.5637
 Red. masses --      1.1041                 1.0121                 1.0121
 Frc consts  --      0.2233                 1.1087                 1.1087
 IR Inten    --    198.5195                 0.0746                 0.0746

                      4
                      A
 Frequencies --   1823.7646
 Red. masses --      1.0115
 Frc consts  --      1.9822
 IR Inten    --    647.3082

 - Thermochemistry -
 -------------------
 Temperature   298.150 Kelvin.  Pressure   1.00000 Atm.
 Atom     1 has atomic number  1 and mass   1.00783

 Molecular mass:    21.01405 amu.
 Principal axes and moments of inertia in atomic units:
                           1         2         3
     Eigenvalues --     0.00000  35.30490  35.30490
           X            1.00000  -0.00000   0.00000
           Y            0.00000   1.00000   0.00000
           Z            0.00000   0.00000   1.00000
 This molecule is a prolate symmetric top.
 Rotational symmetry number  1.
 Rotational temperature (Kelvin)      2.45331
 Rotational constant (GHZ):          51.118724
    1 imaginary frequencies ignored.
 Zero-point vibrational energy      27220.4 (Joules/Mol)
                                    6.50583 (Kcal/Mol)
 Vibrational temperatures:   1961.86  1961.86  2623.99
          (Kelvin)

 Zero-point correction=                           0.010368 (Hartree/Particle)
 Thermal correction to Energy=                    0.012747
 Thermal correction to Enthalpy=                  0.013691
 Thermal correction to Gibbs Free Energy=        -0.009123
 Sum of electronic and zero-point Energies=           -100.910245
 Sum of electronic and thermal Energies=              -100.907866
 Sum of electronic and thermal Enthalpies=            -100.906922
 Sum of electronic and thermal Free Energies=         -100.929736

                     E (Thermal)             CV                S
                      KCal/Mol        Cal/Mol-Kelvin    Cal/Mol-Kelvin
 Total                    7.999              5.231             48.016
 Electronic               0.000              0.000              1.377
 Translational            0.889              2.981             35.068
 Rotational               0.592              1.987             11.526
 Vibrational              6.517              0.263              0.045

 Normal termination of Gaussian 16 at Fri Aug 22 16:42:31 2025.
