 Gaussian 16, Revision C.01,
 Gaussian 16:  ES64L-G16RevC.01  3-Jul-2019

 -----------------------------------------
 # sp b3lyp/6-311g** Force nosymm scf=(qc)
 -----------------------------------------

 -------------------
 Title Card Required
 -------------------
 Symbolic Z-matrix:
 Charge =  0 Multiplicity = 2

                          Input orientation:
 ---------------------------------------------------------------------
 Center     Atomic      Atomic             Coordinates (Angstroms)
 Number     Number       Type             X           Y           Z
 ---------------------------------------------------------------------
      1          1           0        0.000000    0.000000    0.000000
      2          1           0       -2.600000    0.000000    0.000000
      3          9           0        0.650000    0.000000    0.000000
 ---------------------------------------------------------------------

 SCF Done:  E(UB3LYP) =  -100.800830108     a.u. after    6 cycles

 Alpha  occ. eigenvalues --  -24.62904  -1.31276  -0.59791  -0.42320  -0.42320
 Alpha  occ. eigenvalues --   -0.34249
 Alpha virt. eigenvalues --    0.08120   0.25608   0.55528   0.92919   0.92919
 Alpha virt. eigenvalues --    0.94687   1.18952   1.23296   1.23296   1.42639
 Alpha virt. eigenvalues --    1.46945   1.46945   1.95836   2.14598   3.09683

  Beta  occ. eigenvalues --  -24.62898  -1.31258  -0.59773  -0.42317  -0.42317
  Beta virt. eigenvalues --   -0.07753   0.09420   0.38399   0.55384   0.92914
  Beta virt. eigenvalues --    0.92914   0.94775   1.30384   1.46867   1.46867
  Beta virt. eigenvalues --    1.46990   1.46990   1.55696   1.95680   2.43604

 Mulliken charges and spin densities:
               1          2
     1  H    0.250703   0.002823
     2  H    0.003815   0.994655
     3  F   -0.254518   0.002522
 Sum of Mulliken charges =   0.00000   1.00000

 Dipole moment (field-independent basis, Debye):
    X=             -1.5540    Y=             -0.0000    Z=             -0.0000  Tot=              1.5540
 Quadrupole moment (field-independent basis, Debye-Ang):
   XX=             -6.9850   YY=             -6.6033   ZZ=             -6.6033
   XY=             -0.0000   XZ=             -0.0000   YZ=             -0.0000

  Exact polarizability:       4.935       0.000       2.466      -0.000       0.000       2.466
 Approx polarizability:       5.037      -0.000       2.450       0.000       0.000       2.450

 ******    2 imaginary frequencies (negative Signs) ******

                      1                      2                      3
                      A                      A                      A
 Frequencies --  -4565.3320             -4565.3320                89.9825
 Red. masses --      1.0389                 1.0389                 1.0532
 Frc consts  --     12.7579                12.7579                 0.0050
 IR Inten    --    213.5564               213.5564                 0.1761

                      4
                      A
 Frequencies --  10873.2824
 Red. masses --      1.0583
 Frc consts  --     73.7200
 IR Inten    --    114.0578

 - Thermochemistry -
 -------------------
 Temperature   298.150 Kelvin.  Pressure   1.00000 Atm.
 Atom     1 has atomic number  1 and mass   1.00783

 Molecular mass:    21.01405 amu.
 Principal axes and moments of inertia in atomic units:
                           1         2         3
     Eigenvalues --     0.00000  36.90976  36.90976
           X            1.00000  -0.00000   0.00000
           Y            0.00000   1.00000   0.00000
           Z            0.00000   0.00000   1.00000
 This molecule is a prolate symmetric top.
 Rotational symmetry number  1.
 Rotational temperature (Kelvin)      2.34664
 Rotational constant (GHZ):          48.896046
    2 imaginary frequencies ignored.
 Zero-point vibrational energy      65574.9 (Joules/Mol)
                                   15.67277 (Kcal/Mol)
 Warning -- explicit consideration of   1 degrees of freedom as
           vibrations may cause significant error
 Vibrational temperatures:    129.46 15644.23
          (Kelvin)

 Zero-point correction=                           0.024976 (Hartree/Particle)
 Thermal correction to Energy=                    0.028091
 Thermal correction to Enthalpy=                  0.029035
 Thermal correction to Gibbs Free Energy=         0.004461
 Sum of electronic and zero-point Energies=           -100.775854
 Sum of electronic and thermal Energies=              -100.772740
 Sum of electronic and thermal Enthalpies=            -100.771795
 Sum of electronic and thermal Free Energies=         -100.796369

                     E (Thermal)             CV                S
                      KCal/Mol        Cal/Mol-Kelvin    Cal/Mol-Kelvin
 Total                   17.627              6.924             51.720
 Electronic               0.000              0.000              1.377
 Translational            0.889              2.981             35.068
 Rotational               0.592              1.987             11.614
 Vibrational             16.146              1.956              3.660
 Vibration     1          0.602              1.956              3.660

 Normal termination of Gaussian 16 at Fri Aug 22 15:44:28 2025.
