 Gaussian 16, Revision C.01,
 Gaussian 16:  ES64L-G16RevC.01  3-Jul-2019

 -----------------------------------------
 # sp b3lyp/6-311g** Force nosymm scf=(qc)
 -----------------------------------------

 -------------------
 Title Card Required
 -------------------
 Symbolic Z-matrix:
 Charge =  0 Multiplicity = 2

                          Input orientation:
 ---------------------------------------------------------------------
 Center     Atomic      Atomic             Coordinates (Angstroms)
 Number     Number       Type             X           Y           Z
 ---------------------------------------------------------------------
      1          1           0        0.000000    0.000000    0.000000
      2          1           0       -3.100000    0.000000    0.000000
      3          9           0        2.850000    0.000000    0.000000
 ---------------------------------------------------------------------

 SCF Done:  E(UB3LYP) =  -100.762882972     a.u. after   24 cycles

 Alpha  occ. eigenvalues --  -24.73512  -1.19612  -0.52628  -0.44193  -0.44193
 Alpha  occ. eigenvalues --   -0.32785
 Alpha virt. eigenvalues --   -0.09296   0.24373   0.35187   0.89866   0.92618
 Alpha virt. eigenvalues --    0.92618   1.04833   1.24745   1.24745   1.25379
 Alpha virt. eigenvalues --    1.42300   1.42300   1.42987   2.15267   2.38338

  Beta  occ. eigenvalues --  -24.70526  -1.11067  -0.41207  -0.41207  -0.34152
  Beta virt. eigenvalues --   -0.24445  -0.07441   0.24538   0.37003   0.94064
  Beta virt. eigenvalues --    0.94064   0.98295   1.08429   1.23192   1.23192
  Beta virt. eigenvalues --    1.24627   1.44853   1.44990   1.44990   2.15345

 Mulliken charges and spin densities:
               1          2
     1  H    0.047636  -0.939946
     2  H    0.001568   0.994327
     3  F   -0.049204   0.945619
 Sum of Mulliken charges =  -0.00000   1.00000

 Dipole moment (field-independent basis, Debye):
    X=             -0.7425    Y=             -0.0000    Z=              0.0000  Tot=              0.7425
 Quadrupole moment (field-independent basis, Debye-Ang):
   XX=             -8.5261   YY=             -7.6105   ZZ=             -7.6105
   XY=             -0.0000   XZ=              0.0000   YZ=              0.0000

  Exact polarizability:      34.670      -0.000       2.021       0.000       0.000       2.021
 Approx polarizability:      36.760      -0.000       1.922       0.000      -0.000       1.922

 ******    2 imaginary frequencies (negative Signs) ******

                      1                      2                      3
                      A                      A                      A
 Frequencies --   -472.7302              -180.8107               175.2016
 Red. masses --      1.0369                 1.0754                 1.0190
 Frc consts  --      0.1365                 0.0207                 0.0184
 IR Inten    --     48.0262                 3.2277                 2.0669

                      4
                      A
 Frequencies --    175.2016
 Red. masses --      1.0190
 Frc consts  --      0.0184
 IR Inten    --      2.0669

 - Thermochemistry -
 -------------------
 Temperature   298.150 Kelvin.  Pressure   1.00000 Atm.
 Atom     1 has atomic number  1 and mass   1.00783

 Molecular mass:    21.01405 amu.
 Principal axes and moments of inertia in atomic units:
                           1         2         3
     Eigenvalues --     0.00000 143.28017 143.28017
           X            1.00000  -0.00000   0.00000
           Y            0.00000   1.00000   0.00000
           Z            0.00000   0.00000   1.00000
 This molecule is a prolate symmetric top.
 Rotational symmetry number  1.
 Rotational temperature (Kelvin)      0.60451
 Rotational constant (GHZ):          12.595890
    2 imaginary frequencies ignored.
 Zero-point vibrational energy       2095.9 (Joules/Mol)
                                    0.50093 (Kcal/Mol)
 Warning -- explicit consideration of   2 degrees of freedom as
           vibrations may cause significant error
 Vibrational temperatures:    252.08   252.08
          (Kelvin)

 Zero-point correction=                           0.000798 (Hartree/Particle)
 Thermal correction to Energy=                    0.004360
 Thermal correction to Enthalpy=                  0.005304
 Thermal correction to Gibbs Free Energy=        -0.021072
 Sum of electronic and zero-point Energies=           -100.762085
 Sum of electronic and thermal Energies=              -100.758523
 Sum of electronic and thermal Enthalpies=            -100.757579
 Sum of electronic and thermal Free Energies=         -100.783955

                     E (Thermal)             CV                S
                      KCal/Mol        Cal/Mol-Kelvin    Cal/Mol-Kelvin
 Total                    2.736              8.714             55.513
 Electronic               0.000              0.000              1.377
 Translational            0.889              2.981             35.068
 Rotational               0.592              1.987             14.310
 Vibrational              1.255              3.746              4.758
 Vibration     1          0.627              1.873              2.379
 Vibration     2          0.627              1.873              2.379

 Normal termination of Gaussian 16 at Fri Aug 22 18:54:31 2025.
