 Gaussian 16, Revision C.01,
 Gaussian 16:  ES64L-G16RevC.01  3-Jul-2019

 -----------------------------------------
 # sp b3lyp/6-311g** Force nosymm scf=(qc)
 -----------------------------------------

 -------------------
 Title Card Required
 -------------------
 Symbolic Z-matrix:
 Charge =  0 Multiplicity = 2

                          Input orientation:
 ---------------------------------------------------------------------
 Center     Atomic      Atomic             Coordinates (Angstroms)
 Number     Number       Type             X           Y           Z
 ---------------------------------------------------------------------
      1          1           0        0.000000    0.000000    0.000000
      2          1           0       -1.500000    0.000000    0.000000
      3          9           0        1.050000    0.000000    0.000000
 ---------------------------------------------------------------------

 SCF Done:  E(UB3LYP) =  -100.960506485     a.u. after    6 cycles

 Alpha  occ. eigenvalues --  -24.63501  -1.14547  -0.51947  -0.37891  -0.37891
 Alpha  occ. eigenvalues --   -0.37269
 Alpha virt. eigenvalues --    0.06231   0.20931   0.32784   0.93982   0.93982
 Alpha virt. eigenvalues --    0.99487   1.15407   1.15476   1.15476   1.41374
 Alpha virt. eigenvalues --    1.41374   1.53022   1.97886   2.33683   2.39737

  Beta  occ. eigenvalues --  -24.63164  -1.13706  -0.49761  -0.37591  -0.37591
  Beta virt. eigenvalues --   -0.16626   0.08923   0.26164   0.36355   0.94179
  Beta virt. eigenvalues --    0.94179   1.00231   1.23909   1.25906   1.25906
  Beta virt. eigenvalues --    1.46389   1.46389   1.55752   2.09651   2.33133

 Mulliken charges and spin densities:
               1          2
     1  H    0.298959  -0.008310
     2  H    0.038422   0.916387
     3  F   -0.337381   0.091923
 Sum of Mulliken charges =   0.00000   1.00000

 Dipole moment (field-independent basis, Debye):
    X=             -2.4051    Y=             -0.0000    Z=              0.0000  Tot=              2.4051
 Quadrupole moment (field-independent basis, Debye-Ang):
   XX=             -7.7346   YY=             -6.8751   ZZ=             -6.8751
   XY=             -0.0000   XZ=              0.0000   YZ=              0.0000

  Exact polarizability:      14.407       0.000       2.501      -0.000       0.000       2.501
 Approx polarizability:      16.248       0.000       2.491       0.000       0.000       2.491

 ******    1 imaginary frequencies (negative Signs) ******

                      1                      2                      3
                      A                      A                      A
 Frequencies --   -263.3433              1001.6003              1001.6003
 Red. masses --      1.0390                 1.0228                 1.0228
 Frc consts  --      0.0425                 0.6045                 0.6045
 IR Inten    --      2.4810                92.5187                92.5187

                      4
                      A
 Frequencies --   2118.5237
 Red. masses --      1.0731
 Frc consts  --      2.8378
 IR Inten    --    184.5700

 - Thermochemistry -
 -------------------
 Temperature   298.150 Kelvin.  Pressure   1.00000 Atm.
 Atom     1 has atomic number  1 and mass   1.00783

 Molecular mass:    21.01405 amu.
 Principal axes and moments of inertia in atomic units:
                           1         2         3
     Eigenvalues --     0.00000  25.13347  25.13347
           X            1.00000  -0.00000   0.00000
           Y            0.00000   1.00000   0.00000
           Z            0.00000   0.00000   1.00000
 This molecule is a prolate symmetric top.
 Rotational symmetry number  1.
 Rotational temperature (Kelvin)      3.44616
 Rotational constant (GHZ):          71.806276
    1 imaginary frequencies ignored.
 Zero-point vibrational energy      24653.4 (Joules/Mol)
                                    5.89230 (Kcal/Mol)
 Vibrational temperatures:   1441.08  1441.08  3048.08
          (Kelvin)

 Zero-point correction=                           0.009390 (Hartree/Particle)
 Thermal correction to Energy=                    0.011824
 Thermal correction to Enthalpy=                  0.012768
 Thermal correction to Gibbs Free Energy=        -0.009792
 Sum of electronic and zero-point Energies=           -100.951117
 Sum of electronic and thermal Energies=              -100.948682
 Sum of electronic and thermal Enthalpies=            -100.947738
 Sum of electronic and thermal Free Energies=         -100.970299

                     E (Thermal)             CV                S
                      KCal/Mol        Cal/Mol-Kelvin    Cal/Mol-Kelvin
 Total                    7.420              5.726             47.483
 Electronic               0.000              0.000              1.377
 Translational            0.889              2.981             35.068
 Rotational               0.592              1.987             10.851
 Vibrational              5.938              0.758              0.187

 Normal termination of Gaussian 16 at Fri Aug 22 16:02:35 2025.
