 Gaussian 16, Revision C.01,
 Gaussian 16:  ES64L-G16RevC.01  3-Jul-2019

 -----------------------------------------
 # sp b3lyp/6-311g** Force nosymm scf=(qc)
 -----------------------------------------

 -------------------
 Title Card Required
 -------------------
 Symbolic Z-matrix:
 Charge =  0 Multiplicity = 2

                          Input orientation:
 ---------------------------------------------------------------------
 Center     Atomic      Atomic             Coordinates (Angstroms)
 Number     Number       Type             X           Y           Z
 ---------------------------------------------------------------------
      1          1           0        0.000000    0.000000    0.000000
      2          1           0       -1.150000    0.000000    0.000000
      3          9           0        2.100000    0.000000    0.000000
 ---------------------------------------------------------------------

 SCF Done:  E(UB3LYP) =  -100.884979500     a.u. after   12 cycles

 Alpha  occ. eigenvalues --  -24.73302  -1.19477  -0.52857  -0.44085  -0.44085
 Alpha  occ. eigenvalues --   -0.39267
 Alpha virt. eigenvalues --   -0.03382   0.21809   0.35193   0.88704   0.91946
 Alpha virt. eigenvalues --    0.91946   1.07742   1.09562   1.09562   1.36971
 Alpha virt. eigenvalues --    1.54846   1.54846   2.11021   2.30464   2.54467

  Beta  occ. eigenvalues --  -24.70400  -1.11227  -0.41196  -0.41196  -0.38972
  Beta virt. eigenvalues --   -0.25196  -0.02115   0.22542   0.35671   0.93270
  Beta virt. eigenvalues --    0.93270   0.95905   1.10502   1.10502   1.10691
  Beta virt. eigenvalues --    1.39658   1.55529   1.55529   2.12212   2.31496

 Mulliken charges and spin densities:
               1          2
     1  H    0.024328  -0.081511
     2  H    0.043579   0.169494
     3  F   -0.067906   0.912016
 Sum of Mulliken charges =  -0.00000   1.00000

 Dipole moment (field-independent basis, Debye):
    X=             -0.9379    Y=             -0.0000    Z=             -0.0000  Tot=              0.9379
 Quadrupole moment (field-independent basis, Debye-Ang):
   XX=             -6.6214   YY=             -7.3613   ZZ=             -7.3613
   XY=              0.0000   XZ=             -0.0000   YZ=              0.0000

  Exact polarizability:      38.300       0.000       2.156      -0.000      -0.000       2.156
 Approx polarizability:      52.102      -0.000       2.162       0.000       0.000       2.162

 ******    1 imaginary frequencies (negative Signs) ******

                      1                      2                      3
                      A                      A                      A
 Frequencies --   -976.6137               285.2376              1426.1531
 Red. masses --      1.0300                 1.0828                 1.0123
 Frc consts  --      0.5788                 0.0519                 1.2131
 IR Inten    --    725.8963                30.3859                 0.0001

                      4
                      A
 Frequencies --   1426.1531
 Red. masses --      1.0123
 Frc consts  --      1.2131
 IR Inten    --      0.0001

 - Thermochemistry -
 -------------------
 Temperature   298.150 Kelvin.  Pressure   1.00000 Atm.
 Atom     1 has atomic number  1 and mass   1.00783

 Molecular mass:    21.01405 amu.
 Principal axes and moments of inertia in atomic units:
                           1         2         3
     Eigenvalues --     0.00000  48.94571  48.94571
           X            1.00000  -0.00000   0.00000
           Y            0.00000   1.00000   0.00000
           Z            0.00000   0.00000   1.00000
 This molecule is a prolate symmetric top.
 Rotational symmetry number  1.
 Rotational temperature (Kelvin)      1.76959
 Rotational constant (GHZ):          36.872303
    1 imaginary frequencies ignored.
 Zero-point vibrational energy      18766.7 (Joules/Mol)
                                    4.48534 (Kcal/Mol)
 Warning -- explicit consideration of   1 degrees of freedom as
           vibrations may cause significant error
 Vibrational temperatures:    410.39  2051.92  2051.92
          (Kelvin)

 Zero-point correction=                           0.007148 (Hartree/Particle)
 Thermal correction to Energy=                    0.009961
 Thermal correction to Enthalpy=                  0.010905
 Thermal correction to Gibbs Free Energy=        -0.012925
 Sum of electronic and zero-point Energies=           -100.877832
 Sum of electronic and thermal Energies=              -100.875019
 Sum of electronic and thermal Enthalpies=            -100.874075
 Sum of electronic and thermal Free Energies=         -100.897905

                     E (Thermal)             CV                S
                      KCal/Mol        Cal/Mol-Kelvin    Cal/Mol-Kelvin
 Total                    6.250              6.863             50.155
 Electronic               0.000              0.000              1.377
 Translational            0.889              2.981             35.068
 Rotational               0.592              1.987             12.175
 Vibrational              4.769              1.895              1.534
 Vibration     1          0.683              1.701              1.502

 Normal termination of Gaussian 16 at Fri Aug 22 17:03:02 2025.
