 Gaussian 16, Revision C.01,
 Gaussian 16:  ES64L-G16RevC.01  3-Jul-2019

 -----------------------------------------
 # sp b3lyp/6-311g** Force nosymm scf=(qc)
 -----------------------------------------

 -------------------
 Title Card Required
 -------------------
 Symbolic Z-matrix:
 Charge =  0 Multiplicity = 2

                          Input orientation:
 ---------------------------------------------------------------------
 Center     Atomic      Atomic             Coordinates (Angstroms)
 Number     Number       Type             X           Y           Z
 ---------------------------------------------------------------------
      1          1           0        0.000000    0.000000    0.000000
      2          1           0       -2.450000    0.000000    0.000000
      3          9           0        3.400000    0.000000    0.000000
 ---------------------------------------------------------------------

 SCF Done:  E(UB3LYP) =  -100.763746389     a.u. after   31 cycles

 Alpha  occ. eigenvalues --  -24.75279  -1.21249  -0.54401  -0.45677  -0.45677
 Alpha  occ. eigenvalues --   -0.32769
 Alpha virt. eigenvalues --   -0.09838   0.25680   0.33988   0.87951   0.91544
 Alpha virt. eigenvalues --    0.91544   1.02067   1.24905   1.24905   1.26410
 Alpha virt. eigenvalues --    1.40778   1.40778   1.42798   2.15521   2.36476

  Beta  occ. eigenvalues --  -24.72174  -1.12329  -0.42565  -0.42565  -0.33108
  Beta virt. eigenvalues --   -0.25444  -0.09266   0.25521   0.34802   0.93031
  Beta virt. eigenvalues --    0.93031   0.97060   1.06081   1.24495   1.24495
  Beta virt. eigenvalues --    1.25910   1.41669   1.41669   1.43684   2.16193

 Mulliken charges and spin densities:
               1          2
     1  H    0.010702  -0.949791
     2  H    0.003129   0.965294
     3  F   -0.013831   0.984498
 Sum of Mulliken charges =  -0.00000   1.00000

 Dipole moment (field-independent basis, Debye):
    X=             -0.2779    Y=              0.0000    Z=              0.0000  Tot=              0.2779
 Quadrupole moment (field-independent basis, Debye-Ang):
   XX=             -7.2114   YY=             -7.6684   ZZ=             -7.6684
   XY=              0.0000   XZ=             -0.0000   YZ=              0.0000

  Exact polarizability:      37.260       0.000       2.020      -0.000       0.000       2.020
 Approx polarizability:      28.688       0.000       1.927      -0.000      -0.000       1.927

 ******    2 imaginary frequencies (negative Signs) ******

                      1                      2                      3
                      A                      A                      A
 Frequencies --   -721.9583              -155.4164               267.0168
 Red. masses --      1.0081                 1.1082                 1.0145
 Frc consts  --      0.3096                 0.0158                 0.0426
 IR Inten    --      8.4860                 8.6901                 0.0768

                      4
                      A
 Frequencies --    267.0168
 Red. masses --      1.0145
 Frc consts  --      0.0426
 IR Inten    --      0.0768

 - Thermochemistry -
 -------------------
 Temperature   298.150 Kelvin.  Pressure   1.00000 Atm.
 Atom     1 has atomic number  1 and mass   1.00783

 Molecular mass:    21.01405 amu.
 Principal axes and moments of inertia in atomic units:
                           1         2         3
     Eigenvalues --     0.00000 150.00293 150.00293
           X            1.00000  -0.00000   0.00000
           Y            0.00000   1.00000   0.00000
           Z            0.00000   0.00000   1.00000
 This molecule is a prolate symmetric top.
 Rotational symmetry number  1.
 Rotational temperature (Kelvin)      0.57741
 Rotational constant (GHZ):          12.031373
    2 imaginary frequencies ignored.
 Zero-point vibrational energy       3194.2 (Joules/Mol)
                                    0.76344 (Kcal/Mol)
 Warning -- explicit consideration of   2 degrees of freedom as
           vibrations may cause significant error
 Vibrational temperatures:    384.18   384.18
          (Kelvin)

 Zero-point correction=                           0.001217 (Hartree/Particle)
 Thermal correction to Energy=                    0.004503
 Thermal correction to Enthalpy=                  0.005447
 Thermal correction to Gibbs Free Energy=        -0.020246
 Sum of electronic and zero-point Energies=           -100.762530
 Sum of electronic and thermal Energies=              -100.759243
 Sum of electronic and thermal Enthalpies=            -100.758299
 Sum of electronic and thermal Free Energies=         -100.783993

                     E (Thermal)             CV                S
                      KCal/Mol        Cal/Mol-Kelvin    Cal/Mol-Kelvin
 Total                    2.826              8.435             54.077
 Electronic               0.000              0.000              1.377
 Translational            0.889              2.981             35.068
 Rotational               0.592              1.987             14.401
 Vibrational              1.345              3.467              3.231
 Vibration     1          0.672              1.734              1.615
 Vibration     2          0.672              1.734              1.615

 Normal termination of Gaussian 16 at Fri Aug 22 21:17:20 2025.
