 Gaussian 16, Revision C.01,
 Gaussian 16:  ES64L-G16RevC.01  3-Jul-2019

 -----------------------------------------
 # sp b3lyp/6-311g** Force nosymm scf=(qc)
 -----------------------------------------

 -------------------
 Title Card Required
 -------------------
 Symbolic Z-matrix:
 Charge =  0 Multiplicity = 2

                          Input orientation:
 ---------------------------------------------------------------------
 Center     Atomic      Atomic             Coordinates (Angstroms)
 Number     Number       Type             X           Y           Z
 ---------------------------------------------------------------------
      1          1           0        0.000000    0.000000    0.000000
      2          1           0       -2.350000    0.000000    0.000000
      3          9           0        2.900000    0.000000    0.000000
 ---------------------------------------------------------------------

 SCF Done:  E(UB3LYP) =  -100.767530574     a.u. after   29 cycles

 Alpha  occ. eigenvalues --  -24.73796  -1.19871  -0.52911  -0.44427  -0.44427
 Alpha  occ. eigenvalues --   -0.33373
 Alpha virt. eigenvalues --   -0.11143   0.25381   0.33091   0.89910   0.92454
 Alpha virt. eigenvalues --    0.92454   1.04588   1.24356   1.24356   1.25817
 Alpha virt. eigenvalues --    1.38653   1.38653   1.42017   2.14480   2.35421

  Beta  occ. eigenvalues --  -24.70791  -1.11267  -0.41421  -0.41421  -0.34044
  Beta virt. eigenvalues --   -0.24635  -0.09913   0.25793   0.34195   0.93908
  Beta virt. eigenvalues --    0.93908   0.98540   1.08473   1.23540   1.23540
  Beta virt. eigenvalues --    1.24983   1.40658   1.40658   1.43815   2.15541

 Mulliken charges and spin densities:
               1          2
     1  H    0.033825  -0.905912
     2  H    0.009190   0.954115
     3  F   -0.043016   0.951797
 Sum of Mulliken charges =  -0.00000   1.00000

 Dipole moment (field-independent basis, Debye):
    X=             -0.7427    Y=             -0.0000    Z=              0.0000  Tot=              0.7427
 Quadrupole moment (field-independent basis, Debye-Ang):
   XX=             -7.9806   YY=             -7.6608   ZZ=             -7.6608
   XY=             -0.0000   XZ=             -0.0000   YZ=             -0.0000

  Exact polarizability:      49.039      -0.000       2.010      -0.000      -0.000       2.010
 Approx polarizability:      44.843      -0.000       1.921      -0.000       0.000       1.921

 ******    2 imaginary frequencies (negative Signs) ******

                      1                      2                      3
                      A                      A                      A
 Frequencies --   -861.4766              -264.2871               327.7118
 Red. masses --      1.0093                 1.1068                 1.0156
 Frc consts  --      0.4413                 0.0455                 0.0643
 IR Inten    --     26.1884                26.3636                 0.8170

                      4
                      A
 Frequencies --    327.7118
 Red. masses --      1.0156
 Frc consts  --      0.0643
 IR Inten    --      0.8170

 - Thermochemistry -
 -------------------
 Temperature   298.150 Kelvin.  Pressure   1.00000 Atm.
 Atom     1 has atomic number  1 and mass   1.00783

 Molecular mass:    21.01405 amu.
 Principal axes and moments of inertia in atomic units:
                           1         2         3
     Eigenvalues --     0.00000 118.00035 118.00035
           X            1.00000  -0.00000   0.00000
           Y            0.00000   1.00000   0.00000
           Z            0.00000   0.00000   1.00000
 This molecule is a prolate symmetric top.
 Rotational symmetry number  1.
 Rotational temperature (Kelvin)      0.73401
 Rotational constant (GHZ):          15.294371
    2 imaginary frequencies ignored.
 Zero-point vibrational energy       3920.3 (Joules/Mol)
                                    0.93698 (Kcal/Mol)
 Warning -- explicit consideration of   2 degrees of freedom as
           vibrations may cause significant error
 Vibrational temperatures:    471.50   471.50
          (Kelvin)

 Zero-point correction=                           0.001493 (Hartree/Particle)
 Thermal correction to Energy=                    0.004627
 Thermal correction to Enthalpy=                  0.005571
 Thermal correction to Gibbs Free Energy=        -0.019569
 Sum of electronic and zero-point Energies=           -100.766037
 Sum of electronic and thermal Energies=              -100.762904
 Sum of electronic and thermal Enthalpies=            -100.761959
 Sum of electronic and thermal Free Energies=         -100.787100

                     E (Thermal)             CV                S
                      KCal/Mol        Cal/Mol-Kelvin    Cal/Mol-Kelvin
 Total                    2.903              8.208             52.912
 Electronic               0.000              0.000              1.377
 Translational            0.889              2.981             35.068
 Rotational               0.592              1.987             13.924
 Vibrational              1.422              3.240              2.543
 Vibration     1          0.711              1.620              1.271
 Vibration     2          0.711              1.620              1.271

 Normal termination of Gaussian 16 at Fri Aug 22 19:03:33 2025.
