 Gaussian 16, Revision C.01,
 Gaussian 16:  ES64L-G16RevC.01  3-Jul-2019

 -----------------------------------------
 # sp b3lyp/6-311g** Force nosymm scf=(qc)
 -----------------------------------------

 -------------------
 Title Card Required
 -------------------
 Symbolic Z-matrix:
 Charge =  0 Multiplicity = 2

                          Input orientation:
 ---------------------------------------------------------------------
 Center     Atomic      Atomic             Coordinates (Angstroms)
 Number     Number       Type             X           Y           Z
 ---------------------------------------------------------------------
      1          1           0        0.000000    0.000000    0.000000
      2          1           0       -3.350000    0.000000    0.000000
      3          9           0        1.950000    0.000000    0.000000
 ---------------------------------------------------------------------

 SCF Done:  E(UB3LYP) =  -100.790981140     a.u. after   13 cycles

 Alpha  occ. eigenvalues --  -24.67836  -1.14139  -0.46782  -0.39424  -0.39424
 Alpha  occ. eigenvalues --   -0.33634
 Alpha virt. eigenvalues --   -0.14058   0.22285   0.31501   0.89589   0.94878
 Alpha virt. eigenvalues --    0.94878   1.05735   1.23887   1.23887   1.24091
 Alpha virt. eigenvalues --    1.34934   1.34934   1.62871   2.14053   2.28731

  Beta  occ. eigenvalues --  -24.65553  -1.07779  -0.38255  -0.37179  -0.37179
  Beta virt. eigenvalues --   -0.20413  -0.07327   0.22622   0.37645   0.90747
  Beta virt. eigenvalues --    0.95365   0.95365   1.08152   1.22276   1.22276
  Beta virt. eigenvalues --    1.44964   1.45467   1.45467   1.56493   2.12189

 Mulliken charges and spin densities:
               1          2
     1  H    0.205582  -0.714282
     2  H    0.002497   0.996492
     3  F   -0.208078   0.717790
 Sum of Mulliken charges =   0.00000   1.00000

 Dipole moment (field-independent basis, Debye):
    X=             -2.0383    Y=              0.0000    Z=             -0.0000  Tot=              2.0383
 Quadrupole moment (field-independent basis, Debye-Ang):
   XX=            -10.0196   YY=             -7.4804   ZZ=             -7.4804
   XY=              0.0000   XZ=             -0.0000   YZ=             -0.0000

  Exact polarizability:      26.156      -0.000       2.069       0.000      -0.000       2.069
 Approx polarizability:      37.603      -0.000       1.955       0.000       0.000       1.955

 ******    2 imaginary frequencies (negative Signs) ******

                      1                      2                      3
                      A                      A                      A
 Frequencies --  -1218.1713              -143.2664               516.8852
 Red. masses --      1.0567                 1.0548                 1.0256
 Frc consts  --      0.9239                 0.0128                 0.1614
 IR Inten    --    123.7766                 0.5406                39.0688

                      4
                      A
 Frequencies --    516.8852
 Red. masses --      1.0256
 Frc consts  --      0.1614
 IR Inten    --     39.0688

 - Thermochemistry -
 -------------------
 Temperature   298.150 Kelvin.  Pressure   1.00000 Atm.
 Atom     1 has atomic number  1 and mass   1.00783

 Molecular mass:    21.01405 amu.
 Principal axes and moments of inertia in atomic units:
                           1         2         3
     Eigenvalues --     0.00000 105.70873 105.70873
           X            1.00000  -0.00000   0.00000
           Y            0.00000   1.00000   0.00000
           Z            0.00000   0.00000   1.00000
 This molecule is a prolate symmetric top.
 Rotational symmetry number  1.
 Rotational temperature (Kelvin)      0.81936
 Rotational constant (GHZ):          17.072774
    2 imaginary frequencies ignored.
 Zero-point vibrational energy       6183.3 (Joules/Mol)
                                    1.47785 (Kcal/Mol)
 Warning -- explicit consideration of   2 degrees of freedom as
           vibrations may cause significant error
 Vibrational temperatures:    743.68   743.68
          (Kelvin)

 Zero-point correction=                           0.002355 (Hartree/Particle)
 Thermal correction to Energy=                    0.005139
 Thermal correction to Enthalpy=                  0.006084
 Thermal correction to Gibbs Free Energy=        -0.018331
 Sum of electronic and zero-point Energies=           -100.788626
 Sum of electronic and thermal Energies=              -100.785842
 Sum of electronic and thermal Enthalpies=            -100.784898
 Sum of electronic and thermal Free Energies=         -100.809312

                     E (Thermal)             CV                S
                      KCal/Mol        Cal/Mol-Kelvin    Cal/Mol-Kelvin
 Total                    3.225              7.393             51.385
 Electronic               0.000              0.000              1.377
 Translational            0.889              2.981             35.068
 Rotational               0.592              1.987             13.705
 Vibrational              1.744              2.425              1.234
 Vibration     1          0.872              1.213              0.617
 Vibration     2          0.872              1.213              0.617

 Normal termination of Gaussian 16 at Fri Aug 22 16:54:26 2025.
