 Gaussian 16, Revision C.01,
 Gaussian 16:  ES64L-G16RevC.01  3-Jul-2019

 -----------------------------------------
 # sp b3lyp/6-311g** Force nosymm scf=(qc)
 -----------------------------------------

 -------------------
 Title Card Required
 -------------------
 Symbolic Z-matrix:
 Charge =  0 Multiplicity = 2

                          Input orientation:
 ---------------------------------------------------------------------
 Center     Atomic      Atomic             Coordinates (Angstroms)
 Number     Number       Type             X           Y           Z
 ---------------------------------------------------------------------
      1          1           0        0.000000    0.000000    0.000000
      2          1           0       -1.150000    0.000000    0.000000
      3          9           0        2.600000    0.000000    0.000000
 ---------------------------------------------------------------------

 SCF Done:  E(UB3LYP) =  -100.881533740     a.u. after  139 cycles

 Alpha  occ. eigenvalues --  -24.76843  -1.22644  -0.55815  -0.47190  -0.46976
 Alpha  occ. eigenvalues --   -0.36693
 Alpha virt. eigenvalues --   -0.02485   0.22901   0.36365   0.85885   0.90488
 Alpha virt. eigenvalues --    0.92859   1.07868   1.11917   1.11931   1.26735
 Alpha virt. eigenvalues --    1.57215   1.57228   2.13008   2.33708   2.56242

  Beta  occ. eigenvalues --  -24.73690  -1.13586  -0.44075  -0.43815  -0.36611
  Beta virt. eigenvalues --   -0.26523  -0.02390   0.22964   0.36519   0.91979
  Beta virt. eigenvalues --    0.93973   0.95838   1.11565   1.11958   1.11966
  Beta virt. eigenvalues --    1.26873   1.57244   1.57256   2.13057   2.33753

 Mulliken charges and spin densities:
               1          2
     1  H   -0.002159  -0.003539
     2  H   -0.007408   0.005374
     3  F    0.009567   0.998165
 Sum of Mulliken charges =   0.00000   1.00000

 Dipole moment (field-independent basis, Debye):
    X=              0.1127    Y=              0.0015    Z=             -0.0003  Tot=              0.1128
 Quadrupole moment (field-independent basis, Debye-Ang):
   XX=             -6.0892   YY=             -6.7258   ZZ=             -7.4156
   XY=              0.2671   XZ=             -0.0589   YZ=             -0.1599

  Exact polarizability:    -470.342       4.090       2.440      -1.206      -0.074       2.110
 Approx polarizability:      25.315       0.064       2.611      -0.014      -0.106       2.153

                      1                      2                      3
                      A                      A                      A
 Frequencies --    227.0277              1445.0608              1495.3659
 Red. masses --      1.0958                 1.0118                 1.0110
 Frc consts  --      0.0333                 1.2449                 1.3320
 IR Inten    --     50.7201              1706.5574                 0.0252

                      4
                      A
 Frequencies --   2243.0141
 Red. masses --      1.0178
 Frc consts  --      3.0169
 IR Inten    --  81635.8286

 - Thermochemistry -
 -------------------
 Temperature   298.150 Kelvin.  Pressure   1.00000 Atm.
 Atom     1 has atomic number  1 and mass   1.00783

 Molecular mass:    21.01405 amu.
 Principal axes and moments of inertia in atomic units:
                           1         2         3
     Eigenvalues --     0.00000  67.98041  67.98041
           X            1.00000  -0.00000   0.00000
           Y            0.00000   1.00000   0.00000
           Z            0.00000   0.00000   1.00000
 This molecule is a prolate symmetric top.
 Rotational symmetry number  1.
 Rotational temperature (Kelvin)      1.27410
 Rotational constant (GHZ):          26.547959
 Zero-point vibrational energy      32361.8 (Joules/Mol)
                                    7.73465 (Kcal/Mol)
 Warning -- explicit consideration of   1 degrees of freedom as
           vibrations may cause significant error
 Vibrational temperatures:    326.64  2079.12  2151.50  3227.20
          (Kelvin)

 Zero-point correction=                           0.012326 (Hartree/Particle)
 Thermal correction to Energy=                    0.015217
 Thermal correction to Enthalpy=                  0.016162
 Thermal correction to Gibbs Free Energy=        -0.008167
 Sum of electronic and zero-point Energies=           -100.869208
 Sum of electronic and thermal Energies=              -100.866316
 Sum of electronic and thermal Enthalpies=            -100.865372
 Sum of electronic and thermal Free Energies=         -100.889700

                     E (Thermal)             CV                S
                      KCal/Mol        Cal/Mol-Kelvin    Cal/Mol-Kelvin
 Total                    9.549              6.939             51.203
 Electronic               0.000              0.000              1.377
 Translational            0.889              2.981             35.068
 Rotational               0.592              1.987             12.828
 Vibrational              8.068              1.971              1.930
 Vibration     1          0.651              1.800              1.902

 Normal termination of Gaussian 16 at Fri Aug 22 18:01:31 2025.
