 Gaussian 16, Revision C.01,
 Gaussian 16:  ES64L-G16RevC.01  3-Jul-2019

 -----------------------------------------
 # sp b3lyp/6-311g** Force nosymm scf=(qc)
 -----------------------------------------

 -------------------
 Title Card Required
 -------------------
 Symbolic Z-matrix:
 Charge =  0 Multiplicity = 2

                          Input orientation:
 ---------------------------------------------------------------------
 Center     Atomic      Atomic             Coordinates (Angstroms)
 Number     Number       Type             X           Y           Z
 ---------------------------------------------------------------------
      1          1           0        0.000000    0.000000    0.000000
      2          1           0       -0.800000    0.000000    0.000000
      3          9           0        0.850000    0.000000    0.000000
 ---------------------------------------------------------------------

 SCF Done:  E(UB3LYP) =  -100.910151738     a.u. after    6 cycles

 Alpha  occ. eigenvalues --  -24.66081  -1.24620  -0.64179  -0.42325  -0.42325
 Alpha  occ. eigenvalues --   -0.33803
 Alpha virt. eigenvalues --    0.15666   0.18075   0.63970   0.87622   0.87622
 Alpha virt. eigenvalues --    0.94625   1.09079   1.09079   1.44813   1.74350
 Alpha virt. eigenvalues --    1.74350   1.77210   2.12462   2.37007   3.78591

  Beta  occ. eigenvalues --  -24.65081  -1.21983  -0.58669  -0.41448  -0.41448
  Beta virt. eigenvalues --   -0.15448   0.17190   0.21195   0.69490   0.89658
  Beta virt. eigenvalues --    0.89658   0.96667   1.14196   1.14196   1.46516
  Beta virt. eigenvalues --    1.79507   1.79507   1.85844   2.15212   2.46021

 Mulliken charges and spin densities:
               1          2
     1  H    0.268797  -0.017442
     2  H   -0.038344   0.798742
     3  F   -0.230452   0.218700
 Sum of Mulliken charges =   0.00000   1.00000

 Dipole moment (field-independent basis, Debye):
    X=             -1.3743    Y=             -0.0000    Z=              0.0000  Tot=              1.3743
 Quadrupole moment (field-independent basis, Debye-Ang):
   XX=             -7.5231   YY=             -6.5171   ZZ=             -6.5171
   XY=             -0.0000   XZ=              0.0000   YZ=             -0.0000

  Exact polarizability:      10.980       0.000       2.559      -0.000       0.000       2.559
 Approx polarizability:      11.980      -0.000       2.622      -0.000      -0.000       2.622

 ******    2 imaginary frequencies (negative Signs) ******

                      1                      2                      3
                      A                      A                      A
 Frequencies --  -2372.5848             -2372.5848              2767.4964
 Red. masses --      1.0172                 1.0172                 1.0730
 Frc consts  --      3.3737                 3.3737                 4.8420
 IR Inten    --     72.3142                72.3142               131.7893

                      4
                      A
 Frequencies --   5237.2442
 Red. masses --      1.0391
 Frc consts  --     16.7922
 IR Inten    --     11.0110

 - Thermochemistry -
 -------------------
 Temperature   298.150 Kelvin.  Pressure   1.00000 Atm.
 Atom     1 has atomic number  1 and mass   1.00783

 Molecular mass:    21.01405 amu.
 Principal axes and moments of inertia in atomic units:
                           1         2         3
     Eigenvalues --     0.00000  11.31979  11.31979
           X            1.00000  -0.00000   0.00000
           Y            0.00000   1.00000   0.00000
           Z            0.00000   0.00000   1.00000
 This molecule is a prolate symmetric top.
 Rotational symmetry number  1.
 Rotational temperature (Kelvin)      7.65155
 Rotational constant (GHZ):         159.432376
    2 imaginary frequencies ignored.
 Zero-point vibrational energy      47879.0 (Joules/Mol)
                                   11.44335 (Kcal/Mol)
 Vibrational temperatures:   3981.81  7535.23
          (Kelvin)

 Zero-point correction=                           0.018236 (Hartree/Particle)
 Thermal correction to Energy=                    0.020597
 Thermal correction to Enthalpy=                  0.021541
 Thermal correction to Gibbs Free Energy=        -0.000178
 Sum of electronic and zero-point Energies=           -100.891916
 Sum of electronic and thermal Energies=              -100.889555
 Sum of electronic and thermal Enthalpies=            -100.888611
 Sum of electronic and thermal Free Energies=         -100.910330

                     E (Thermal)             CV                S
                      KCal/Mol        Cal/Mol-Kelvin    Cal/Mol-Kelvin
 Total                   12.925              4.969             45.711
 Electronic               0.000              0.000              1.377
 Translational            0.889              2.981             35.068
 Rotational               0.592              1.987              9.266
 Vibrational             11.443              0.001              0.000

 Normal termination of Gaussian 16 at Fri Aug 22 15:52:37 2025.
