 Gaussian 16, Revision C.01,
 Gaussian 16:  ES64L-G16RevC.01  3-Jul-2019

 -----------------------------------------
 # sp b3lyp/6-311g** Force nosymm scf=(qc)
 -----------------------------------------

 -------------------
 Title Card Required
 -------------------
 Symbolic Z-matrix:
 Charge =  0 Multiplicity = 2

                          Input orientation:
 ---------------------------------------------------------------------
 Center     Atomic      Atomic             Coordinates (Angstroms)
 Number     Number       Type             X           Y           Z
 ---------------------------------------------------------------------
      1          1           0        0.000000    0.000000    0.000000
      2          1           0       -0.750000    0.000000    0.000000
      3          9           0        1.900000    0.000000    0.000000
 ---------------------------------------------------------------------

 SCF Done:  E(UB3LYP) =  -100.935257927     a.u. after    7 cycles

 Alpha  occ. eigenvalues --  -24.74335  -1.20523  -0.54747  -0.44994  -0.44994
 Alpha  occ. eigenvalues --   -0.44507
 Alpha virt. eigenvalues --    0.07399   0.20337   0.44092   0.90421   0.90421
 Alpha virt. eigenvalues --    0.93170   1.07388   1.07388   1.15659   1.65061
 Alpha virt. eigenvalues --    1.81023   1.81023   1.95631   2.40365   3.28363

  Beta  occ. eigenvalues --  -24.71349  -1.12046  -0.45198  -0.42024  -0.42024
  Beta virt. eigenvalues --   -0.25326   0.08290   0.20975   0.44806   0.91738
  Beta virt. eigenvalues --    0.91738   1.00834   1.08267   1.08267   1.19048
  Beta virt. eigenvalues --    1.66723   1.81483   1.81483   1.96307   2.41313

 Mulliken charges and spin densities:
               1          2
     1  H    0.019876  -0.031204
     2  H    0.029609   0.097901
     3  F   -0.049485   0.933303
 Sum of Mulliken charges =   0.00000   1.00000

 Dipole moment (field-independent basis, Debye):
    X=             -0.5484    Y=             -0.0000    Z=              0.0000  Tot=              0.5484
 Quadrupole moment (field-independent basis, Debye-Ang):
   XX=             -6.1916   YY=             -6.8963   ZZ=             -6.8963
   XY=             -0.0000   XZ=              0.0000   YZ=              0.0000

  Exact polarizability:      18.874       0.000       2.122      -0.000      -0.000       2.122
 Approx polarizability:      21.574       0.000       2.179      -0.000      -0.000       2.179

 ******    3 imaginary frequencies (negative Signs) ******

                      1                      2                      3
                      A                      A                      A
 Frequencies --   -435.3702              -435.3702              -190.6795
 Red. masses --      1.0105                 1.0105                 1.1085
 Frc consts  --      0.1129                 0.1129                 0.0237
 IR Inten    --      0.1385                 0.1385                40.4866

                      4
                      A
 Frequencies --   4234.5381
 Red. masses --      1.0079
 Frc consts  --     10.6478
 IR Inten    --    346.8155

 - Thermochemistry -
 -------------------
 Temperature   298.150 Kelvin.  Pressure   1.00000 Atm.
 Atom     1 has atomic number  1 and mass   1.00783

 Molecular mass:    21.01405 amu.
 Principal axes and moments of inertia in atomic units:
                           1         2         3
     Eigenvalues --     0.00000  34.69306  34.69306
           X            1.00000  -0.00000   0.00000
           Y            0.00000   1.00000   0.00000
           Z            0.00000   0.00000   1.00000
 This molecule is a prolate symmetric top.
 Rotational symmetry number  1.
 Rotational temperature (Kelvin)      2.49658
 Rotational constant (GHZ):          52.020232
    3 imaginary frequencies ignored.
 Zero-point vibrational energy      25328.2 (Joules/Mol)
                                    6.05358 (Kcal/Mol)
 Vibrational temperatures:   6092.56
          (Kelvin)

 Zero-point correction=                           0.009647 (Hartree/Particle)
 Thermal correction to Energy=                    0.012007
 Thermal correction to Enthalpy=                  0.012952
 Thermal correction to Gibbs Free Energy=        -0.009825
 Sum of electronic and zero-point Energies=           -100.925611
 Sum of electronic and thermal Energies=              -100.923250
 Sum of electronic and thermal Enthalpies=            -100.922306
 Sum of electronic and thermal Free Energies=         -100.945083

                     E (Thermal)             CV                S
                      KCal/Mol        Cal/Mol-Kelvin    Cal/Mol-Kelvin
 Total                    7.535              4.968             47.937
 Electronic               0.000              0.000              1.377
 Translational            0.889              2.981             35.068
 Rotational               0.592              1.987             11.491
 Vibrational              6.054              0.000              0.000

 Normal termination of Gaussian 16 at Fri Aug 22 16:48:54 2025.
