 Gaussian 16, Revision C.01,
 Gaussian 16:  ES64L-G16RevC.01  3-Jul-2019

 -----------------------------------------
 # sp b3lyp/6-311g** Force nosymm scf=(qc)
 -----------------------------------------

 -------------------
 Title Card Required
 -------------------
 Symbolic Z-matrix:
 Charge =  0 Multiplicity = 2

                          Input orientation:
 ---------------------------------------------------------------------
 Center     Atomic      Atomic             Coordinates (Angstroms)
 Number     Number       Type             X           Y           Z
 ---------------------------------------------------------------------
      1          1           0        0.000000    0.000000    0.000000
      2          1           0       -2.500000    0.000000    0.000000
      3          9           0        0.600000    0.000000    0.000000
 ---------------------------------------------------------------------

 SCF Done:  E(UB3LYP) =  -100.688030103     a.u. after    6 cycles

 Alpha  occ. eigenvalues --  -24.62698  -1.34687  -0.61018  -0.42940  -0.42940
 Alpha  occ. eigenvalues --   -0.34309
 Alpha virt. eigenvalues --    0.08854   0.25605   0.57888   0.92165   0.92165
 Alpha virt. eigenvalues --    0.93227   1.18019   1.23240   1.23240   1.46277
 Alpha virt. eigenvalues --    1.50297   1.50297   1.94805   2.15134   3.36620

  Beta  occ. eigenvalues --  -24.62690  -1.34665  -0.60998  -0.42937  -0.42937
  Beta virt. eigenvalues --   -0.07938   0.10184   0.38383   0.57495   0.92156
  Beta virt. eigenvalues --    0.92156   0.93340   1.30285   1.46120   1.46120
  Beta virt. eigenvalues --    1.50290   1.50290   1.58158   1.95078   2.44209

 Mulliken charges and spin densities:
               1          2
     1  H    0.232198   0.003485
     2  H    0.004466   0.993930
     3  F   -0.236664   0.002585
 Sum of Mulliken charges =   0.00000   1.00000

 Dipole moment (field-independent basis, Debye):
    X=             -1.4836    Y=              0.0000    Z=             -0.0000  Tot=              1.4836
 Quadrupole moment (field-independent basis, Debye-Ang):
   XX=             -6.8124   YY=             -6.5454   ZZ=             -6.5454
   XY=             -0.0000   XZ=             -0.0000   YZ=              0.0000

  Exact polarizability:       4.825       0.000       2.461       0.000      -0.000       2.461
 Approx polarizability:       4.848      -0.000       2.446       0.000      -0.000       2.446

 ******    2 imaginary frequencies (negative Signs) ******

                      1                      2                      3
                      A                      A                      A
 Frequencies --  -5840.4620             -5840.4620               126.0412
 Red. masses --      1.0395                 1.0395                 1.0532
 Frc consts  --     20.8916                20.8916                 0.0099
 IR Inten    --    224.7037               224.7037                 0.1571

                      4
                      A
 Frequencies --  13070.6216
 Red. masses --      1.0583
 Frc consts  --    106.5259
 IR Inten    --    108.4162

 - Thermochemistry -
 -------------------
 Temperature   298.150 Kelvin.  Pressure   1.00000 Atm.
 Atom     1 has atomic number  1 and mass   1.00783

 Molecular mass:    21.01405 amu.
 Principal axes and moments of inertia in atomic units:
                           1         2         3
     Eigenvalues --     0.00000  33.51913  33.51913
           X            1.00000  -0.00000   0.00000
           Y            0.00000   1.00000   0.00000
           Z            0.00000   0.00000   1.00000
 This molecule is a prolate symmetric top.
 Rotational symmetry number  1.
 Rotational temperature (Kelvin)      2.58401
 Rotational constant (GHZ):          53.842131
    2 imaginary frequencies ignored.
 Zero-point vibrational energy      78933.6 (Joules/Mol)
                                   18.86558 (Kcal/Mol)
 Warning -- explicit consideration of   1 degrees of freedom as
           vibrations may cause significant error
 Vibrational temperatures:    181.35 18805.71
          (Kelvin)

 Zero-point correction=                           0.030064 (Hartree/Particle)
 Thermal correction to Energy=                    0.033111
 Thermal correction to Enthalpy=                  0.034055
 Thermal correction to Gibbs Free Energy=         0.009883
 Sum of electronic and zero-point Energies=           -100.657966
 Sum of electronic and thermal Energies=              -100.654919
 Sum of electronic and thermal Enthalpies=            -100.653975
 Sum of electronic and thermal Free Energies=         -100.678147

                     E (Thermal)             CV                S
                      KCal/Mol        Cal/Mol-Kelvin    Cal/Mol-Kelvin
 Total                   20.777              6.895             50.874
 Electronic               0.000              0.000              1.377
 Translational            0.889              2.981             35.068
 Rotational               0.592              1.987             11.423
 Vibrational             19.296              1.927              3.006
 Vibration     1          0.611              1.927              3.006

 Normal termination of Gaussian 16 at Fri Aug 22 15:42:02 2025.
