 Gaussian 16, Revision C.01,
 Gaussian 16:  ES64L-G16RevC.01  3-Jul-2019

 -----------------------------------------
 # sp b3lyp/6-311g** Force nosymm scf=(qc)
 -----------------------------------------

 -------------------
 Title Card Required
 -------------------
 Symbolic Z-matrix:
 Charge =  0 Multiplicity = 2

                          Input orientation:
 ---------------------------------------------------------------------
 Center     Atomic      Atomic             Coordinates (Angstroms)
 Number     Number       Type             X           Y           Z
 ---------------------------------------------------------------------
      1          1           0        0.000000    0.000000    0.000000
      2          1           0       -1.050000    0.000000    0.000000
      3          9           0        1.300000    0.000000    0.000000
 ---------------------------------------------------------------------

 SCF Done:  E(UB3LYP) =  -100.934540097     a.u. after    8 cycles

 Alpha  occ. eigenvalues --  -24.66390  -1.14504  -0.53679  -0.39157  -0.39157
 Alpha  occ. eigenvalues --   -0.38814
 Alpha virt. eigenvalues --    0.05278   0.19435   0.34438   0.90085   0.90085
 Alpha virt. eigenvalues --    0.99223   1.08101   1.08101   1.25898   1.60126
 Alpha virt. eigenvalues --    1.60126   1.61562   2.21162   2.31357   2.46727

  Beta  occ. eigenvalues --  -24.64702  -1.10061  -0.46240  -0.37564  -0.37564
  Beta virt. eigenvalues --   -0.22000   0.08001   0.21528   0.37657   0.91074
  Beta virt. eigenvalues --    0.91074   1.03089   1.12699   1.12699   1.30506
  Beta virt. eigenvalues --    1.62983   1.62983   1.65308   2.27602   2.33647

 Mulliken charges and spin densities:
               1          2
     1  H    0.236886  -0.087931
     2  H    0.048129   0.589187
     3  F   -0.285015   0.498744
 Sum of Mulliken charges =   0.00000   1.00000

 Dipole moment (field-independent basis, Debye):
    X=             -2.1564    Y=             -0.0000    Z=             -0.0000  Tot=              2.1564
 Quadrupole moment (field-independent basis, Debye-Ang):
   XX=             -7.6442   YY=             -6.9182   ZZ=             -6.9182
   XY=             -0.0000   XZ=             -0.0000   YZ=             -0.0000

  Exact polarizability:      24.376       0.000       2.469      -0.000      -0.000       2.469
 Approx polarizability:      34.416      -0.000       2.461      -0.000      -0.000       2.461

 ******    1 imaginary frequencies (negative Signs) ******

                      1                      2                      3
                      A                      A                      A
 Frequencies --  -2374.9146               982.4161              1113.9750
 Red. masses --      1.0305                 1.0824                 1.0156
 Frc consts  --      3.4243                 0.6155                 0.7425
 IR Inten    --    527.5444                72.7632                18.6120

                      4
                      A
 Frequencies --   1113.9750
 Red. masses --      1.0156
 Frc consts  --      0.7425
 IR Inten    --     18.6120

 - Thermochemistry -
 -------------------
 Temperature   298.150 Kelvin.  Pressure   1.00000 Atm.
 Atom     1 has atomic number  1 and mass   1.00783

 Molecular mass:    21.01405 amu.
 Principal axes and moments of inertia in atomic units:
                           1         2         3
     Eigenvalues --     0.00000  23.65829  23.65829
           X            1.00000  -0.00000   0.00000
           Y            0.00000   1.00000   0.00000
           Z            0.00000   0.00000   1.00000
 This molecule is a prolate symmetric top.
 Rotational symmetry number  1.
 Rotational temperature (Kelvin)      3.66104
 Rotational constant (GHZ):          76.283659
    1 imaginary frequencies ignored.
 Zero-point vibrational energy      19202.3 (Joules/Mol)
                                    4.58945 (Kcal/Mol)
 Vibrational temperatures:   1413.48  1602.76  1602.76
          (Kelvin)

 Zero-point correction=                           0.007314 (Hartree/Particle)
 Thermal correction to Energy=                    0.009761
 Thermal correction to Enthalpy=                  0.010705
 Thermal correction to Gibbs Free Energy=        -0.011813
 Sum of electronic and zero-point Energies=           -100.927226
 Sum of electronic and thermal Energies=              -100.924779
 Sum of electronic and thermal Enthalpies=            -100.923835
 Sum of electronic and thermal Free Energies=         -100.946354

                     E (Thermal)             CV                S
                      KCal/Mol        Cal/Mol-Kelvin    Cal/Mol-Kelvin
 Total                    6.125              5.901             47.394
 Electronic               0.000              0.000              1.377
 Translational            0.889              2.981             35.068
 Rotational               0.592              1.987             10.731
 Vibrational              4.644              0.933              0.218

 Normal termination of Gaussian 16 at Fri Aug 22 16:14:21 2025.
