 Gaussian 16, Revision C.01,
 Gaussian 16:  ES64L-G16RevC.01  3-Jul-2019

 -----------------------------------------
 # sp b3lyp/6-311g** Force nosymm scf=(qc)
 -----------------------------------------

 -------------------
 Title Card Required
 -------------------
 Symbolic Z-matrix:
 Charge =  0 Multiplicity = 2

                          Input orientation:
 ---------------------------------------------------------------------
 Center     Atomic      Atomic             Coordinates (Angstroms)
 Number     Number       Type             X           Y           Z
 ---------------------------------------------------------------------
      1          1           0        0.000000    0.000000    0.000000
      2          1           0       -2.900000    0.000000    0.000000
      3          9           0        2.350000    0.000000    0.000000
 ---------------------------------------------------------------------

 SCF Done:  E(UB3LYP) =  -100.772420859     a.u. after   21 cycles

 Alpha  occ. eigenvalues --  -24.70804  -1.17066  -0.49888  -0.41924  -0.41924
 Alpha  occ. eigenvalues --   -0.33496
 Alpha virt. eigenvalues --   -0.11742   0.23995   0.33713   0.89302   0.94085
 Alpha virt. eigenvalues --    0.94085   1.06538   1.24060   1.24060   1.25256
 Alpha virt. eigenvalues --    1.38676   1.38676   1.46799   2.14903   2.33320

  Beta  occ. eigenvalues --  -24.68055  -1.09271  -0.39190  -0.39190  -0.35997
  Beta virt. eigenvalues --   -0.22726  -0.08259   0.24735   0.36346   0.94388
  Beta virt. eigenvalues --    0.95352   0.95352   1.08737   1.21780   1.21780
  Beta virt. eigenvalues --    1.34879   1.43990   1.43990   1.44404   2.13345

 Mulliken charges and spin densities:
               1          2
     1  H    0.109235  -0.857381
     2  H    0.004887   0.990069
     3  F   -0.114122   0.867312
 Sum of Mulliken charges =   0.00000   1.00000

 Dipole moment (field-independent basis, Debye):
    X=             -1.4233    Y=              0.0000    Z=             -0.0000  Tot=              1.4233
 Quadrupole moment (field-independent basis, Debye-Ang):
   XX=             -9.3532   YY=             -7.5676   ZZ=             -7.5676
   XY=              0.0000   XZ=             -0.0000   YZ=             -0.0000

  Exact polarizability:      34.326       0.000       2.027      -0.000      -0.000       2.027
 Approx polarizability:      42.087       0.000       1.921      -0.000       0.000       1.921

 ******    2 imaginary frequencies (negative Signs) ******

                      1                      2                      3
                      A                      A                      A
 Frequencies --   -767.4074              -243.8662               310.1727
 Red. masses --      1.0455                 1.0662                 1.0207
 Frc consts  --      0.3628                 0.0374                 0.0579
 IR Inten    --     86.2239                 4.2851                10.7506

                      4
                      A
 Frequencies --    310.1727
 Red. masses --      1.0207
 Frc consts  --      0.0579
 IR Inten    --     10.7506

 - Thermochemistry -
 -------------------
 Temperature   298.150 Kelvin.  Pressure   1.00000 Atm.
 Atom     1 has atomic number  1 and mass   1.00783

 Molecular mass:    21.01405 amu.
 Principal axes and moments of inertia in atomic units:
                           1         2         3
     Eigenvalues --     0.00000 109.10342 109.10342
           X            1.00000  -0.00000   0.00000
           Y            0.00000   1.00000   0.00000
           Z            0.00000   0.00000   1.00000
 This molecule is a prolate symmetric top.
 Rotational symmetry number  1.
 Rotational temperature (Kelvin)      0.79387
 Rotational constant (GHZ):          16.541564
    2 imaginary frequencies ignored.
 Zero-point vibrational energy       3710.5 (Joules/Mol)
                                    0.88683 (Kcal/Mol)
 Warning -- explicit consideration of   2 degrees of freedom as
           vibrations may cause significant error
 Vibrational temperatures:    446.27   446.27
          (Kelvin)

 Zero-point correction=                           0.001413 (Hartree/Particle)
 Thermal correction to Energy=                    0.004589
 Thermal correction to Enthalpy=                  0.005533
 Thermal correction to Gibbs Free Energy=        -0.019619
 Sum of electronic and zero-point Energies=           -100.771008
 Sum of electronic and thermal Energies=              -100.767832
 Sum of electronic and thermal Enthalpies=            -100.766888
 Sum of electronic and thermal Free Energies=         -100.792040

                     E (Thermal)             CV                S
                      KCal/Mol        Cal/Mol-Kelvin    Cal/Mol-Kelvin
 Total                    2.880              8.277             52.936
 Electronic               0.000              0.000              1.377
 Translational            0.889              2.981             35.068
 Rotational               0.592              1.987             13.768
 Vibrational              1.398              3.309              2.723
 Vibration     1          0.699              1.654              1.361
 Vibration     2          0.699              1.654              1.361

 Normal termination of Gaussian 16 at Fri Aug 22 17:27:11 2025.
