 Gaussian 16, Revision C.01,
 Gaussian 16:  ES64L-G16RevC.01  3-Jul-2019

 -----------------------------------------
 # sp b3lyp/6-311g** Force nosymm scf=(qc)
 -----------------------------------------

 -------------------
 Title Card Required
 -------------------
 Symbolic Z-matrix:
 Charge =  0 Multiplicity = 2

                          Input orientation:
 ---------------------------------------------------------------------
 Center     Atomic      Atomic             Coordinates (Angstroms)
 Number     Number       Type             X           Y           Z
 ---------------------------------------------------------------------
      1          1           0        0.000000    0.000000    0.000000
      2          1           0       -1.750000    0.000000    0.000000
      3          9           0        1.600000    0.000000    0.000000
 ---------------------------------------------------------------------

 SCF Done:  E(UB3LYP) =  -100.849902228     a.u. after   13 cycles

 Alpha  occ. eigenvalues --  -24.64869  -1.11195  -0.45252  -0.38124  -0.36967
 Alpha  occ. eigenvalues --   -0.36967
 Alpha virt. eigenvalues --   -0.10823   0.22225   0.28640   0.93310   0.94417
 Alpha virt. eigenvalues --    0.94417   1.04068   1.18528   1.18528   1.35402
 Alpha virt. eigenvalues --    1.35402   1.37729   1.76148   2.13430   2.33680

  Beta  occ. eigenvalues --  -24.63422  -1.07284  -0.40319  -0.35573  -0.35573
  Beta virt. eigenvalues --   -0.20721  -0.07725   0.25350   0.30206   0.94317
  Beta virt. eigenvalues --    0.94317   0.97034   1.07136   1.26141   1.26141
  Beta virt. eigenvalues --    1.36510   1.36510   1.45542   1.77744   2.16184

 Mulliken charges and spin densities:
               1          2
     1  H    0.243695  -0.303231
     2  H    0.064439   0.850451
     3  F   -0.308133   0.452780
 Sum of Mulliken charges =   0.00000   1.00000

 Dipole moment (field-independent basis, Debye):
    X=             -2.9574    Y=              0.0000    Z=              0.0000  Tot=              2.9574
 Quadrupole moment (field-independent basis, Debye-Ang):
   XX=             -8.5410   YY=             -7.3447   ZZ=             -7.3447
   XY=              0.0000   XZ=              0.0000   YZ=              0.0000

  Exact polarizability:      38.493       0.000       2.209       0.000       0.000       2.209
 Approx polarizability:      52.986       0.000       2.134       0.000      -0.000       2.134

 ******    2 imaginary frequencies (negative Signs) ******

                      1                      2                      3
                      A                      A                      A
 Frequencies --  -2296.0474              -554.9359               940.2393
 Red. masses --      1.0276                 1.0856                 1.0191
 Frc consts  --      3.1917                 0.1970                 0.5308
 IR Inten    --    144.3873                 0.4547                34.5082

                      4
                      A
 Frequencies --    940.2393
 Red. masses --      1.0191
 Frc consts  --      0.5308
 IR Inten    --     34.5082

 - Thermochemistry -
 -------------------
 Temperature   298.150 Kelvin.  Pressure   1.00000 Atm.
 Atom     1 has atomic number  1 and mass   1.00783

 Molecular mass:    21.01405 amu.
 Principal axes and moments of inertia in atomic units:
                           1         2         3
     Eigenvalues --     0.00000  45.37403  45.37403
           X            1.00000  -0.00000   0.00000
           Y            0.00000   1.00000   0.00000
           Z            0.00000   0.00000   1.00000
 This molecule is a prolate symmetric top.
 Rotational symmetry number  1.
 Rotational temperature (Kelvin)      1.90889
 Rotational constant (GHZ):          39.774757
    2 imaginary frequencies ignored.
 Zero-point vibrational energy      11247.8 (Joules/Mol)
                                    2.68828 (Kcal/Mol)
 Vibrational temperatures:   1352.79  1352.79
          (Kelvin)

 Zero-point correction=                           0.004284 (Hartree/Particle)
 Thermal correction to Energy=                    0.006737
 Thermal correction to Enthalpy=                  0.007681
 Thermal correction to Gibbs Free Energy=        -0.015461
 Sum of electronic and zero-point Energies=           -100.845618
 Sum of electronic and thermal Energies=              -100.843165
 Sum of electronic and thermal Enthalpies=            -100.842221
 Sum of electronic and thermal Free Energies=         -100.865364

                     E (Thermal)             CV                S
                      KCal/Mol        Cal/Mol-Kelvin    Cal/Mol-Kelvin
 Total                    4.228              5.863             48.708
 Electronic               0.000              0.000              1.377
 Translational            0.889              2.981             35.068
 Rotational               0.592              1.987             12.025
 Vibrational              2.746              0.895              0.238

 Normal termination of Gaussian 16 at Fri Aug 22 16:30:56 2025.
