 Gaussian 16, Revision C.01,
 Gaussian 16:  ES64L-G16RevC.01  3-Jul-2019

 -----------------------------------------
 # sp b3lyp/6-311g** Force nosymm scf=(qc)
 -----------------------------------------

 -------------------
 Title Card Required
 -------------------
 Symbolic Z-matrix:
 Charge =  0 Multiplicity = 2

                          Input orientation:
 ---------------------------------------------------------------------
 Center     Atomic      Atomic             Coordinates (Angstroms)
 Number     Number       Type             X           Y           Z
 ---------------------------------------------------------------------
      1          1           0        0.000000    0.000000    0.000000
      2          1           0       -3.300000    0.000000    0.000000
      3          9           0        3.950000    0.000000    0.000000
 ---------------------------------------------------------------------

 SCF Done:  E(UB3LYP) =  -100.758893683     a.u. after   33 cycles

 Alpha  occ. eigenvalues --  -24.75858  -1.21787  -0.54983  -0.46165  -0.46165
 Alpha  occ. eigenvalues --   -0.32288
 Alpha virt. eigenvalues --   -0.07019   0.24608   0.37328   0.86622   0.91184
 Alpha virt. eigenvalues --    0.91184   1.01116   1.25224   1.25224   1.25519
 Alpha virt. eigenvalues --    1.45138   1.45362   1.45362   2.15386   2.40606

  Beta  occ. eigenvalues --  -24.72714  -1.12746  -0.43013  -0.43013  -0.32487
  Beta virt. eigenvalues --   -0.25721  -0.06797   0.24452   0.37626   0.92682
  Beta virt. eigenvalues --    0.92682   0.95988   1.05238   1.25008   1.25008
  Beta virt. eigenvalues --    1.25287   1.45476   1.45694   1.45694   2.15389

 Mulliken charges and spin densities:
               1          2
     1  H    0.002714  -0.993290
     2  H    0.000124   0.996455
     3  F   -0.002838   0.996836
 Sum of Mulliken charges =   0.00000   1.00000

 Dipole moment (field-independent basis, Debye):
    X=             -0.0601    Y=             -0.0000    Z=              0.0000  Tot=              0.0601
 Quadrupole moment (field-independent basis, Debye-Ang):
   XX=             -6.9091   YY=             -7.6275   ZZ=             -7.6275
   XY=             -0.0000   XZ=              0.0000   YZ=             -0.0000

  Exact polarizability:      12.534      -0.000       2.032       0.000      -0.000       2.032
 Approx polarizability:       9.369      -0.000       1.936       0.000       0.000       1.936

 ******    2 imaginary frequencies (negative Signs) ******

                      1                      2                      3
                      A                      A                      A
 Frequencies --   -237.5324               -74.5094                81.6064
 Red. masses --      1.0091                 1.1069                 1.0159
 Frc consts  --      0.0335                 0.0036                 0.0040
 IR Inten    --      0.8886                 0.6195                 0.0068

                      4
                      A
 Frequencies --     81.6064
 Red. masses --      1.0159
 Frc consts  --      0.0040
 IR Inten    --      0.0068

 - Thermochemistry -
 -------------------
 Temperature   298.150 Kelvin.  Pressure   1.00000 Atm.
 Atom     1 has atomic number  1 and mass   1.00783

 Molecular mass:    21.01405 amu.
 Principal axes and moments of inertia in atomic units:
                           1         2         3
     Eigenvalues --     0.00000 223.67461 223.67461
           X            1.00000  -0.00000   0.00000
           Y            0.00000   1.00000   0.00000
           Z            0.00000   0.00000   1.00000
 This molecule is a prolate symmetric top.
 Rotational symmetry number  1.
 Rotational temperature (Kelvin)      0.38723
 Rotational constant (GHZ):           8.068601
    2 imaginary frequencies ignored.
 Zero-point vibrational energy        976.2 (Joules/Mol)
                                    0.23332 (Kcal/Mol)
 Warning -- explicit consideration of   2 degrees of freedom as
           vibrations may cause significant error
 Vibrational temperatures:    117.41   117.41
          (Kelvin)

 Zero-point correction=                           0.000372 (Hartree/Particle)
 Thermal correction to Energy=                    0.004273
 Thermal correction to Enthalpy=                  0.005217
 Thermal correction to Gibbs Free Energy=        -0.022979
 Sum of electronic and zero-point Energies=           -100.758522
 Sum of electronic and thermal Energies=              -100.754621
 Sum of electronic and thermal Enthalpies=            -100.753676
 Sum of electronic and thermal Free Energies=         -100.781873

                     E (Thermal)             CV                S
                      KCal/Mol        Cal/Mol-Kelvin    Cal/Mol-Kelvin
 Total                    2.681              8.891             59.344
 Electronic               0.000              0.000              1.377
 Translational            0.889              2.981             35.068
 Rotational               0.592              1.987             15.195
 Vibrational              1.200              3.923              7.704
 Vibration     1          0.600              1.962              3.852
 Vibration     2          0.600              1.962              3.852

 Normal termination of Gaussian 16 at Sat Aug 23 01:41:26 2025.
