 Gaussian 16, Revision C.01,
 Gaussian 16:  ES64L-G16RevC.01  3-Jul-2019

 -----------------------------------------
 # sp b3lyp/6-311g** Force nosymm scf=(qc)
 -----------------------------------------

 -------------------
 Title Card Required
 -------------------
 Symbolic Z-matrix:
 Charge =  0 Multiplicity = 2

                          Input orientation:
 ---------------------------------------------------------------------
 Center     Atomic      Atomic             Coordinates (Angstroms)
 Number     Number       Type             X           Y           Z
 ---------------------------------------------------------------------
      1          1           0        0.000000    0.000000    0.000000
      2          1           0       -3.600000    0.000000    0.000000
      3          9           0        3.100000    0.000000    0.000000
 ---------------------------------------------------------------------

 SCF Done:  E(UB3LYP) =  -100.760395689     a.u. after   21 cycles

 Alpha  occ. eigenvalues --  -24.74419  -1.20454  -0.53539  -0.44954  -0.44954
 Alpha  occ. eigenvalues --   -0.32471
 Alpha virt. eigenvalues --   -0.07728   0.24023   0.36327   0.89025   0.92074
 Alpha virt. eigenvalues --    0.92074   1.03352   1.25032   1.25032   1.25140
 Alpha virt. eigenvalues --    1.44469   1.44469   1.44730   2.14740   2.40687

  Beta  occ. eigenvalues --  -24.71368  -1.11706  -0.41900  -0.41900  -0.33497
  Beta virt. eigenvalues --   -0.24962  -0.06388   0.23882   0.37991   0.93543
  Beta virt. eigenvalues --    0.93543   0.97835   1.07155   1.23851   1.23851
  Beta virt. eigenvalues --    1.24094   1.46033   1.46267   1.46267   2.14984

 Mulliken charges and spin densities:
               1          2
     1  H    0.030024  -0.965156
     2  H    0.000295   0.998381
     3  F   -0.030319   0.966775
 Sum of Mulliken charges =  -0.00000   1.00000

 Dipole moment (field-independent basis, Debye):
    X=             -0.4879    Y=              0.0000    Z=             -0.0000  Tot=              0.4879
 Quadrupole moment (field-independent basis, Debye-Ang):
   XX=             -8.1156   YY=             -7.6120   ZZ=             -7.6120
   XY=              0.0000   XZ=             -0.0000   YZ=              0.0000

  Exact polarizability:      30.791       0.000       2.028      -0.000       0.000       2.028
 Approx polarizability:      29.811       0.000       1.928      -0.000      -0.000       1.928

 ******    2 imaginary frequencies (negative Signs) ******

                      1                      2                      3
                      A                      A                      A
 Frequencies --   -337.9628              -105.1588               116.6263
 Red. masses --      1.0464                 1.0653                 1.0199
 Frc consts  --      0.0704                 0.0069                 0.0082
 IR Inten    --     32.5696                 0.5158                 0.8433

                      4
                      A
 Frequencies --    116.6263
 Red. masses --      1.0199
 Frc consts  --      0.0082
 IR Inten    --      0.8433

 - Thermochemistry -
 -------------------
 Temperature   298.150 Kelvin.  Pressure   1.00000 Atm.
 Atom     1 has atomic number  1 and mass   1.00783

 Molecular mass:    21.01405 amu.
 Principal axes and moments of inertia in atomic units:
                           1         2         3
     Eigenvalues --     0.00000 179.56880 179.56880
           X            1.00000  -0.00000   0.00000
           Y            0.00000   1.00000   0.00000
           Z            0.00000   0.00000   1.00000
 This molecule is a prolate symmetric top.
 Rotational symmetry number  1.
 Rotational temperature (Kelvin)      0.48234
 Rotational constant (GHZ):          10.050416
    2 imaginary frequencies ignored.
 Zero-point vibrational energy       1395.2 (Joules/Mol)
                                    0.33345 (Kcal/Mol)
 Warning -- explicit consideration of   2 degrees of freedom as
           vibrations may cause significant error
 Vibrational temperatures:    167.80   167.80
          (Kelvin)

 Zero-point correction=                           0.000531 (Hartree/Particle)
 Thermal correction to Energy=                    0.004298
 Thermal correction to Enthalpy=                  0.005243
 Thermal correction to Gibbs Free Energy=        -0.022085
 Sum of electronic and zero-point Energies=           -100.759864
 Sum of electronic and thermal Energies=              -100.756097
 Sum of electronic and thermal Enthalpies=            -100.755153
 Sum of electronic and thermal Free Energies=         -100.782480

                     E (Thermal)             CV                S
                      KCal/Mol        Cal/Mol-Kelvin    Cal/Mol-Kelvin
 Total                    2.697              8.839             57.515
 Electronic               0.000              0.000              1.377
 Translational            0.889              2.981             35.068
 Rotational               0.592              1.987             14.758
 Vibrational              1.216              3.871              6.311
 Vibration     1          0.608              1.936              3.156
 Vibration     2          0.608              1.936              3.156

 Normal termination of Gaussian 16 at Fri Aug 22 19:56:26 2025.
