 Gaussian 16, Revision C.01,
 Gaussian 16:  ES64L-G16RevC.01  3-Jul-2019

 -----------------------------------------
 # sp b3lyp/6-311g** Force nosymm scf=(qc)
 -----------------------------------------

 -------------------
 Title Card Required
 -------------------
 Symbolic Z-matrix:
 Charge =  0 Multiplicity = 2

                          Input orientation:
 ---------------------------------------------------------------------
 Center     Atomic      Atomic             Coordinates (Angstroms)
 Number     Number       Type             X           Y           Z
 ---------------------------------------------------------------------
      1          1           0        0.000000    0.000000    0.000000
      2          1           0       -3.350000    0.000000    0.000000
      3          9           0        1.350000    0.000000    0.000000
 ---------------------------------------------------------------------

 SCF Done:  E(UB3LYP) =  -100.889219707     a.u. after    7 cycles

 Alpha  occ. eigenvalues --  -24.64356  -1.10650  -0.45280  -0.36863  -0.36863
 Alpha  occ. eigenvalues --   -0.34083
 Alpha virt. eigenvalues --   -0.10398   0.21264   0.28201   0.93038   0.93038
 Alpha virt. eigenvalues --    1.02656   1.18588   1.23435   1.23435   1.23554
 Alpha virt. eigenvalues --    1.33273   1.33273   1.70976   2.13758   2.22930

  Beta  occ. eigenvalues --  -24.64344  -1.10619  -0.45246  -0.36852  -0.36852
  Beta virt. eigenvalues --   -0.11134  -0.06224   0.24662   0.38185   0.93035
  Beta virt. eigenvalues --    0.93035   1.02690   1.18668   1.33234   1.33234
  Beta virt. eigenvalues --    1.45790   1.46282   1.46282   1.71013   2.22698

 Mulliken charges and spin densities:
               1          2
     1  H    0.357147  -0.001456
     2  H    0.002188   0.997615
     3  F   -0.359335   0.003841
 Sum of Mulliken charges =  -0.00000   1.00000

 Dipole moment (field-independent basis, Debye):
    X=             -2.4769    Y=             -0.0000    Z=              0.0000  Tot=              2.4769
 Quadrupole moment (field-independent basis, Debye-Ang):
   XX=             -9.3287   YY=             -7.2330   ZZ=             -7.2330
   XY=             -0.0000   XZ=              0.0000   YZ=              0.0000

  Exact polarizability:      12.680      -0.000       2.258       0.000      -0.000       2.258
 Approx polarizability:      20.190      -0.000       2.197       0.000      -0.000       2.197

 ******    2 imaginary frequencies (negative Signs) ******

                      1                      2                      3
                      A                      A                      A
 Frequencies --   -879.5474               -81.1970              1125.2376
 Red. masses --      1.0568                 1.0548                 1.0316
 Frc consts  --      0.4817                 0.0041                 0.7695
 IR Inten    --     59.0449                 0.1624               129.8055

                      4
                      A
 Frequencies --   1125.2376
 Red. masses --      1.0316
 Frc consts  --      0.7695
 IR Inten    --    129.8055

 - Thermochemistry -
 -------------------
 Temperature   298.150 Kelvin.  Pressure   1.00000 Atm.
 Atom     1 has atomic number  1 and mass   1.00783

 Molecular mass:    21.01405 amu.
 Principal axes and moments of inertia in atomic units:
                           1         2         3
     Eigenvalues --     0.00000  79.74345  79.74345
           X            1.00000  -0.00000   0.00000
           Y            0.00000   1.00000   0.00000
           Z            0.00000   0.00000   1.00000
 This molecule is a prolate symmetric top.
 Rotational symmetry number  1.
 Rotational temperature (Kelvin)      1.08616
 Rotational constant (GHZ):          22.631843
    2 imaginary frequencies ignored.
 Zero-point vibrational energy      13460.8 (Joules/Mol)
                                    3.21722 (Kcal/Mol)
 Vibrational temperatures:   1618.97  1618.97
          (Kelvin)

 Zero-point correction=                           0.005127 (Hartree/Particle)
 Thermal correction to Energy=                    0.007533
 Thermal correction to Enthalpy=                  0.008477
 Thermal correction to Gibbs Free Energy=        -0.015139
 Sum of electronic and zero-point Energies=           -100.884093
 Sum of electronic and thermal Energies=              -100.881687
 Sum of electronic and thermal Enthalpies=            -100.880743
 Sum of electronic and thermal Free Energies=         -100.904359

                     E (Thermal)             CV                S
                      KCal/Mol        Cal/Mol-Kelvin    Cal/Mol-Kelvin
 Total                    4.727              5.486             49.703
 Electronic               0.000              0.000              1.377
 Translational            0.889              2.981             35.068
 Rotational               0.592              1.987             13.145
 Vibrational              3.246              0.518              0.112

 Normal termination of Gaussian 16 at Fri Aug 22 16:18:31 2025.
