 Gaussian 16, Revision C.01,
 Gaussian 16:  ES64L-G16RevC.01  3-Jul-2019

 -----------------------------------------
 # sp b3lyp/6-311g** Force nosymm scf=(qc)
 -----------------------------------------

 -------------------
 Title Card Required
 -------------------
 Symbolic Z-matrix:
 Charge =  0 Multiplicity = 2

                          Input orientation:
 ---------------------------------------------------------------------
 Center     Atomic      Atomic             Coordinates (Angstroms)
 Number     Number       Type             X           Y           Z
 ---------------------------------------------------------------------
      1          1           0        0.000000    0.000000    0.000000
      2          1           0       -1.050000    0.000000    0.000000
      3          9           0        1.800000    0.000000    0.000000
 ---------------------------------------------------------------------

 SCF Done:  E(UB3LYP) =  -100.906635836     a.u. after   12 cycles

 Alpha  occ. eigenvalues --  -24.71659  -1.18089  -0.52274  -0.42813  -0.42813
 Alpha  occ. eigenvalues --   -0.40950
 Alpha virt. eigenvalues --   -0.00027   0.20903   0.35279   0.91176   0.91176
 Alpha virt. eigenvalues --    0.93491   1.07777   1.07777   1.09449   1.54078
 Alpha virt. eigenvalues --    1.60385   1.60385   2.19336   2.31006   2.57305

  Beta  occ. eigenvalues --  -24.68947  -1.10476  -0.41418  -0.40135  -0.40135
  Beta virt. eigenvalues --   -0.24559   0.01798   0.21984   0.36101   0.92300
  Beta virt. eigenvalues --    0.92300   1.00498   1.09528   1.09528   1.12152
  Beta virt. eigenvalues --    1.57217   1.61466   1.61466   2.21239   2.33121

 Mulliken charges and spin densities:
               1          2
     1  H    0.067751  -0.092659
     2  H    0.050994   0.248596
     3  F   -0.118746   0.844063
 Sum of Mulliken charges =   0.00000   1.00000

 Dipole moment (field-independent basis, Debye):
    X=             -1.2818    Y=              0.0000    Z=             -0.0000  Tot=              1.2818
 Quadrupole moment (field-independent basis, Debye-Ang):
   XX=             -6.9435   YY=             -7.1904   ZZ=             -7.1904
   XY=              0.0000   XZ=             -0.0000   YZ=              0.0000

  Exact polarizability:      33.124       0.000       2.238      -0.000      -0.000       2.238
 Approx polarizability:      46.643      -0.000       2.242       0.000      -0.000       2.242

 ******    1 imaginary frequencies (negative Signs) ******

                      1                      2                      3
                      A                      A                      A
 Frequencies --  -1029.1172               857.0897              1399.5347
 Red. masses --      1.0631                 1.0485                 1.0127
 Frc consts  --      0.6634                 0.4538                 1.1687
 IR Inten    --    737.4923               283.0186                 0.3154

                      4
                      A
 Frequencies --   1399.5347
 Red. masses --      1.0127
 Frc consts  --      1.1687
 IR Inten    --      0.3154

 - Thermochemistry -
 -------------------
 Temperature   298.150 Kelvin.  Pressure   1.00000 Atm.
 Atom     1 has atomic number  1 and mass   1.00783

 Molecular mass:    21.01405 amu.
 Principal axes and moments of inertia in atomic units:
                           1         2         3
     Eigenvalues --     0.00000  37.16154  37.16154
           X            1.00000  -0.00000   0.00000
           Y            0.00000   1.00000   0.00000
           Z            0.00000   0.00000   1.00000
 This molecule is a prolate symmetric top.
 Rotational symmetry number  1.
 Rotational temperature (Kelvin)      2.33074
 Rotational constant (GHZ):          48.564756
    1 imaginary frequencies ignored.
 Zero-point vibrational energy      21868.7 (Joules/Mol)
                                    5.22674 (Kcal/Mol)
 Vibrational temperatures:   1233.16  2013.62  2013.62
          (Kelvin)

 Zero-point correction=                           0.008329 (Hartree/Particle)
 Thermal correction to Energy=                    0.010768
 Thermal correction to Enthalpy=                  0.011712
 Thermal correction to Gibbs Free Energy=        -0.011225
 Sum of electronic and zero-point Energies=           -100.898306
 Sum of electronic and thermal Energies=              -100.895868
 Sum of electronic and thermal Enthalpies=            -100.894924
 Sum of electronic and thermal Free Energies=         -100.917860

                     E (Thermal)             CV                S
                      KCal/Mol        Cal/Mol-Kelvin    Cal/Mol-Kelvin
 Total                    6.757              5.741             48.275
 Electronic               0.000              0.000              1.377
 Translational            0.889              2.981             35.068
 Rotational               0.592              1.987             11.628
 Vibrational              5.276              0.773              0.202

 Normal termination of Gaussian 16 at Fri Aug 22 16:42:36 2025.
