 Gaussian 16, Revision C.01,
 Gaussian 16:  ES64L-G16RevC.01  3-Jul-2019

 -----------------------------------------
 # sp b3lyp/6-311g** Force nosymm scf=(qc)
 -----------------------------------------

 -------------------
 Title Card Required
 -------------------
 Symbolic Z-matrix:
 Charge =  0 Multiplicity = 2

                          Input orientation:
 ---------------------------------------------------------------------
 Center     Atomic      Atomic             Coordinates (Angstroms)
 Number     Number       Type             X           Y           Z
 ---------------------------------------------------------------------
      1          1           0        0.000000    0.000000    0.000000
      2          1           0       -0.650000    0.000000    0.000000
      3          9           0        1.450000    0.000000    0.000000
 ---------------------------------------------------------------------

 SCF Done:  E(UB3LYP) =  -100.926094130     a.u. after    7 cycles

 Alpha  occ. eigenvalues --  -24.71347  -1.18654  -0.58041  -0.43228  -0.43006
 Alpha  occ. eigenvalues --   -0.43006
 Alpha virt. eigenvalues --    0.10924   0.19584   0.48304   0.88300   0.88300
 Alpha virt. eigenvalues --    0.96912   1.09981   1.09981   1.36210   1.65419
 Alpha virt. eigenvalues --    1.87746   1.87746   1.88032   2.45017   3.45720

  Beta  occ. eigenvalues --  -24.68665  -1.11337  -0.50083  -0.40410  -0.40410
  Beta virt. eigenvalues --   -0.22931   0.12008   0.20388   0.50808   0.89519
  Beta virt. eigenvalues --    0.89519   1.03000   1.12192   1.12192   1.40080
  Beta virt. eigenvalues --    1.68336   1.88981   1.89049   1.89049   2.48020

 Mulliken charges and spin densities:
               1          2
     1  H    0.143990  -0.031543
     2  H    0.000403   0.228403
     3  F   -0.144393   0.803140
 Sum of Mulliken charges =   0.00000   1.00000

 Dipole moment (field-independent basis, Debye):
    X=             -1.0443    Y=             -0.0000    Z=             -0.0000  Tot=              1.0443
 Quadrupole moment (field-independent basis, Debye-Ang):
   XX=             -6.7912   YY=             -6.6527   ZZ=             -6.6527
   XY=              0.0000   XZ=             -0.0000   YZ=             -0.0000

  Exact polarizability:      16.840       0.000       2.291      -0.000      -0.000       2.291
 Approx polarizability:      20.717      -0.000       2.340      -0.000       0.000       2.340

 ******    2 imaginary frequencies (negative Signs) ******

                      1                      2                      3
                      A                      A                      A
 Frequencies --  -2213.9452             -2213.9452               393.1481
 Red. masses --      1.0111                 1.0111                 1.1084
 Frc consts  --      2.9200                 2.9200                 0.1009
 IR Inten    --      0.5910                 0.5910                69.2177

                      4
                      A
 Frequencies --   5718.1099
 Red. masses --      1.0079
 Frc consts  --     19.4173
 IR Inten    --    580.9969

 - Thermochemistry -
 -------------------
 Temperature   298.150 Kelvin.  Pressure   1.00000 Atm.
 Atom     1 has atomic number  1 and mass   1.00783

 Molecular mass:    21.01405 amu.
 Principal axes and moments of inertia in atomic units:
                           1         2         3
     Eigenvalues --     0.00000  21.26326  21.26326
           X            1.00000  -0.00000   0.00000
           Y            0.00000   1.00000   0.00000
           Z            0.00000   0.00000   1.00000
 This molecule is a prolate symmetric top.
 Rotational symmetry number  1.
 Rotational temperature (Kelvin)      4.07341
 Rotational constant (GHZ):          84.876017
    2 imaginary frequencies ignored.
 Zero-point vibrational energy      36553.4 (Joules/Mol)
                                    8.73648 (Kcal/Mol)
 Warning -- explicit consideration of   1 degrees of freedom as
           vibrations may cause significant error
 Vibrational temperatures:    565.65  8227.08
          (Kelvin)

 Zero-point correction=                           0.013922 (Hartree/Particle)
 Thermal correction to Energy=                    0.016599
 Thermal correction to Enthalpy=                  0.017543
 Thermal correction to Gibbs Free Energy=        -0.005240
 Sum of electronic and zero-point Energies=           -100.912172
 Sum of electronic and thermal Energies=              -100.909495
 Sum of electronic and thermal Enthalpies=            -100.908551
 Sum of electronic and thermal Free Energies=         -100.931335

                     E (Thermal)             CV                S
                      KCal/Mol        Cal/Mol-Kelvin    Cal/Mol-Kelvin
 Total                   10.416              6.453             47.952
 Electronic               0.000              0.000              1.377
 Translational            0.889              2.981             35.068
 Rotational               0.592              1.987             10.519
 Vibrational              8.935              1.485              0.988
 Vibration     1          0.760              1.485              0.988

 Normal termination of Gaussian 16 at Fri Aug 22 16:21:40 2025.
