 Gaussian 16, Revision C.01,
 Gaussian 16:  ES64L-G16RevC.01  3-Jul-2019

 -----------------------------------------
 # sp b3lyp/6-311g** Force nosymm scf=(qc)
 -----------------------------------------

 -------------------
 Title Card Required
 -------------------
 Symbolic Z-matrix:
 Charge =  0 Multiplicity = 2

                          Input orientation:
 ---------------------------------------------------------------------
 Center     Atomic      Atomic             Coordinates (Angstroms)
 Number     Number       Type             X           Y           Z
 ---------------------------------------------------------------------
      1          1           0        0.000000    0.000000    0.000000
      2          1           0       -1.200000    0.000000    0.000000
      3          9           0        1.450000    0.000000    0.000000
 ---------------------------------------------------------------------

 SCF Done:  E(UB3LYP) =  -100.907245951     a.u. after   13 cycles

 Alpha  occ. eigenvalues --  -24.66609  -1.13782  -0.50649  -0.39305  -0.38891
 Alpha  occ. eigenvalues --   -0.38891
 Alpha virt. eigenvalues --   -0.00622   0.20000   0.31281   0.91450   0.91450
 Alpha virt. eigenvalues --    1.00075   1.09800   1.09800   1.10771   1.52071
 Alpha virt. eigenvalues --    1.52071   1.57688   2.06704   2.25542   2.48244

  Beta  occ. eigenvalues --  -24.64783  -1.08871  -0.43200  -0.37139  -0.37139
  Beta virt. eigenvalues --   -0.22722   0.02489   0.22355   0.33089   0.92050
  Beta virt. eigenvalues --    0.92050   1.04724   1.14365   1.14365   1.14690
  Beta virt. eigenvalues --    1.54279   1.54279   1.61566   2.11298   2.29878

 Mulliken charges and spin densities:
               1          2
     1  H    0.208744  -0.146132
     2  H    0.065076   0.589440
     3  F   -0.273820   0.556692
 Sum of Mulliken charges =   0.00000   1.00000

 Dipole moment (field-independent basis, Debye):
    X=             -2.3328    Y=              0.0000    Z=              0.0000  Tot=              2.3328
 Quadrupole moment (field-independent basis, Debye-Ang):
   XX=             -7.7512   YY=             -7.1000   ZZ=             -7.1000
   XY=              0.0000   XZ=              0.0000   YZ=              0.0000

  Exact polarizability:      31.260       0.000       2.385       0.000       0.000       2.385
 Approx polarizability:      46.822       0.000       2.352       0.000      -0.000       2.352

 ******    1 imaginary frequencies (negative Signs) ******

                      1                      2                      3
                      A                      A                      A
 Frequencies --  -2615.2393               443.9477              1201.8095
 Red. masses --      1.0241                 1.0895                 1.0158
 Frc consts  --      4.1267                 0.1265                 0.8644
 IR Inten    --    783.4606                29.1629                14.3519

                      4
                      A
 Frequencies --   1201.8095
 Red. masses --      1.0158
 Frc consts  --      0.8644
 IR Inten    --     14.3519

 - Thermochemistry -
 -------------------
 Temperature   298.150 Kelvin.  Pressure   1.00000 Atm.
 Atom     1 has atomic number  1 and mass   1.00783

 Molecular mass:    21.01405 amu.
 Principal axes and moments of inertia in atomic units:
                           1         2         3
     Eigenvalues --     0.00000  29.93943  29.93943
           X            1.00000  -0.00000   0.00000
           Y            0.00000   1.00000   0.00000
           Z            0.00000   0.00000   1.00000
 This molecule is a prolate symmetric top.
 Rotational symmetry number  1.
 Rotational temperature (Kelvin)      2.89297
 Rotational constant (GHZ):          60.279744
    1 imaginary frequencies ignored.
 Zero-point vibrational energy      17032.2 (Joules/Mol)
                                    4.07080 (Kcal/Mol)
 Warning -- explicit consideration of   1 degrees of freedom as
           vibrations may cause significant error
 Vibrational temperatures:    638.74  1729.14  1729.14
          (Kelvin)

 Zero-point correction=                           0.006487 (Hartree/Particle)
 Thermal correction to Energy=                    0.009150
 Thermal correction to Enthalpy=                  0.010094
 Thermal correction to Gibbs Free Energy=        -0.012969
 Sum of electronic and zero-point Energies=           -100.900759
 Sum of electronic and thermal Energies=              -100.898096
 Sum of electronic and thermal Enthalpies=            -100.897152
 Sum of electronic and thermal Free Energies=         -100.920215

                     E (Thermal)             CV                S
                      KCal/Mol        Cal/Mol-Kelvin    Cal/Mol-Kelvin
 Total                    5.742              6.750             48.540
 Electronic               0.000              0.000              1.377
 Translational            0.889              2.981             35.068
 Rotational               0.592              1.987             11.199
 Vibrational              4.260              1.782              0.896
 Vibration     1          0.803              1.374              0.814

 Normal termination of Gaussian 16 at Fri Aug 22 16:22:06 2025.
