 Gaussian 16, Revision C.01,
 Gaussian 16:  ES64L-G16RevC.01  3-Jul-2019

 -----------------------------------------
 # sp b3lyp/6-311g** Force nosymm scf=(qc)
 -----------------------------------------

 -------------------
 Title Card Required
 -------------------
 Symbolic Z-matrix:
 Charge =  0 Multiplicity = 2

                          Input orientation:
 ---------------------------------------------------------------------
 Center     Atomic      Atomic             Coordinates (Angstroms)
 Number     Number       Type             X           Y           Z
 ---------------------------------------------------------------------
      1          1           0        0.000000    0.000000    0.000000
      2          1           0       -2.300000    0.000000    0.000000
      3          9           0        3.100000    0.000000    0.000000
 ---------------------------------------------------------------------

 SCF Done:  E(UB3LYP) =  -100.767073792     a.u. after   25 cycles

 Alpha  occ. eigenvalues --  -24.74542  -1.20565  -0.53660  -0.45055  -0.45055
 Alpha  occ. eigenvalues --   -0.33176
 Alpha virt. eigenvalues --   -0.10838   0.25583   0.33109   0.89174   0.92000
 Alpha virt. eigenvalues --    0.92000   1.03374   1.24587   1.24587   1.25151
 Alpha virt. eigenvalues --    1.38999   1.38999   1.43000   2.14390   2.35638

  Beta  occ. eigenvalues --  -24.71486  -1.11799  -0.41995  -0.41995  -0.33613
  Beta virt. eigenvalues --   -0.25057  -0.09981   0.25708   0.34080   0.93471
  Beta virt. eigenvalues --    0.93471   0.98053   1.07322   1.24034   1.24034
  Beta virt. eigenvalues --    1.24507   1.40369   1.40369   1.44287   2.15501

 Mulliken charges and spin densities:
               1          2
     1  H    0.020572  -0.914612
     2  H    0.007480   0.946071
     3  F   -0.028052   0.968541
 Sum of Mulliken charges =   0.00000   1.00000

 Dipole moment (field-independent basis, Debye):
    X=             -0.5282    Y=             -0.0000    Z=             -0.0000  Tot=              0.5282
 Quadrupole moment (field-independent basis, Debye-Ang):
   XX=             -7.5682   YY=             -7.6762   ZZ=             -7.6762
   XY=             -0.0000   XZ=              0.0000   YZ=             -0.0000

  Exact polarizability:      48.385      -0.000       2.011       0.000       0.000       2.011
 Approx polarizability:      40.875      -0.000       1.924       0.000      -0.000       1.924

 ******    2 imaginary frequencies (negative Signs) ******

                      1                      2                      3
                      A                      A                      A
 Frequencies --   -904.2039              -217.5122               343.4828
 Red. masses --      1.0083                 1.1079                 1.0147
 Frc consts  --      0.4857                 0.0309                 0.0705
 IR Inten    --     18.9168                20.0322                 0.2728

                      4
                      A
 Frequencies --    343.4828
 Red. masses --      1.0147
 Frc consts  --      0.0705
 IR Inten    --      0.2728

 - Thermochemistry -
 -------------------
 Temperature   298.150 Kelvin.  Pressure   1.00000 Atm.
 Atom     1 has atomic number  1 and mass   1.00783

 Molecular mass:    21.01405 amu.
 Principal axes and moments of inertia in atomic units:
                           1         2         3
     Eigenvalues --     0.00000 127.06271 127.06271
           X            1.00000  -0.00000   0.00000
           Y            0.00000   1.00000   0.00000
           Z            0.00000   0.00000   1.00000
 This molecule is a prolate symmetric top.
 Rotational symmetry number  1.
 Rotational temperature (Kelvin)      0.68166
 Rotational constant (GHZ):          14.203547
    2 imaginary frequencies ignored.
 Zero-point vibrational energy       4109.0 (Joules/Mol)
                                    0.98207 (Kcal/Mol)
 Warning -- explicit consideration of   2 degrees of freedom as
           vibrations may cause significant error
 Vibrational temperatures:    494.20   494.20
          (Kelvin)

 Zero-point correction=                           0.001565 (Hartree/Particle)
 Thermal correction to Energy=                    0.004663
 Thermal correction to Enthalpy=                  0.005607
 Thermal correction to Gibbs Free Energy=        -0.019532
 Sum of electronic and zero-point Energies=           -100.765509
 Sum of electronic and thermal Energies=              -100.762411
 Sum of electronic and thermal Enthalpies=            -100.761467
 Sum of electronic and thermal Free Energies=         -100.786605

                     E (Thermal)             CV                S
                      KCal/Mol        Cal/Mol-Kelvin    Cal/Mol-Kelvin
 Total                    2.926              8.145             52.908
 Electronic               0.000              0.000              1.377
 Translational            0.889              2.981             35.068
 Rotational               0.592              1.987             14.071
 Vibrational              1.445              3.177              2.392
 Vibration     1          0.722              1.589              1.196
 Vibration     2          0.722              1.589              1.196

 Normal termination of Gaussian 16 at Fri Aug 22 19:54:55 2025.
