 Gaussian 16, Revision C.01,
 Gaussian 16:  ES64L-G16RevC.01  3-Jul-2019

 -----------------------------------------
 # sp b3lyp/6-311g** Force nosymm scf=(qc)
 -----------------------------------------

 -------------------
 Title Card Required
 -------------------
 Symbolic Z-matrix:
 Charge =  0 Multiplicity = 2

                          Input orientation:
 ---------------------------------------------------------------------
 Center     Atomic      Atomic             Coordinates (Angstroms)
 Number     Number       Type             X           Y           Z
 ---------------------------------------------------------------------
      1          1           0        0.000000    0.000000    0.000000
      2          1           0       -3.600000    0.000000    0.000000
      3          9           0        0.500000    0.000000    0.000000
 ---------------------------------------------------------------------

 SCF Done:  E(UB3LYP) =  -100.268969521     a.u. after    6 cycles

 Alpha  occ. eigenvalues --  -24.63031  -1.42354  -0.63507  -0.44336  -0.44336
 Alpha  occ. eigenvalues --   -0.33195
 Alpha virt. eigenvalues --    0.08030   0.24975   0.62071   0.88992   0.90150
 Alpha virt. eigenvalues --    0.90150   1.24130   1.24312   1.24312   1.36770
 Alpha virt. eigenvalues --    1.58515   1.58515   2.00222   2.14851   3.76631

  Beta  occ. eigenvalues --  -24.63031  -1.42353  -0.63507  -0.44336  -0.44336
  Beta virt. eigenvalues --   -0.05229   0.08404   0.39145   0.62077   0.88988
  Beta virt. eigenvalues --    0.90148   0.90148   1.36164   1.49067   1.49791
  Beta virt. eigenvalues --    1.49791   1.58516   1.58516   2.00190   2.45656

 Mulliken charges and spin densities:
               1          2
     1  H    0.126393   0.000387
     2  H    0.000610   0.999312
     3  F   -0.127002   0.000300
 Sum of Mulliken charges =   0.00000   1.00000

 Dipole moment (field-independent basis, Debye):
    X=             -1.2994    Y=             -0.0000    Z=             -0.0000  Tot=              1.2994
 Quadrupole moment (field-independent basis, Debye-Ang):
   XX=             -6.6571   YY=             -6.4388   ZZ=             -6.4388
   XY=             -0.0000   XZ=             -0.0000   YZ=              0.0000

  Exact polarizability:       2.968      -0.000       2.413       0.000      -0.000       2.413
 Approx polarizability:       3.132      -0.000       2.389       0.000      -0.000       2.389

 ******    3 imaginary frequencies (negative Signs) ******

                      1                      2                      3
                      A                      A                      A
 Frequencies --  -9601.2422             -9601.2422               -28.1167
 Red. masses --      1.0462                 1.0462                 1.0532
 Frc consts  --     56.8226                56.8226                 0.0005
 IR Inten    --    284.3787               284.3787                 0.0173

                      4
                      A
 Frequencies --  19159.3910
 Red. masses --      1.0583
 Frc consts  --    228.8899
 IR Inten    --     76.6042

 - Thermochemistry -
 -------------------
 Temperature   298.150 Kelvin.  Pressure   1.00000 Atm.
 Atom     1 has atomic number  1 and mass   1.00783

 Molecular mass:    21.01405 amu.
 Principal axes and moments of inertia in atomic units:
                           1         2         3
     Eigenvalues --     0.00000  57.74672  57.74672
           X            1.00000  -0.00000   0.00000
           Y            0.00000   1.00000   0.00000
           Z            0.00000   0.00000   1.00000
 This molecule is a prolate symmetric top.
 Rotational symmetry number  1.
 Rotational temperature (Kelvin)      1.49989
 Rotational constant (GHZ):          31.252703
    3 imaginary frequencies ignored.
 Zero-point vibrational energy     114598.6 (Joules/Mol)
                                   27.38972 (Kcal/Mol)
 Vibrational temperatures:  27566.09
          (Kelvin)

 Zero-point correction=                           0.043648 (Hartree/Particle)
 Thermal correction to Energy=                    0.046009
 Thermal correction to Enthalpy=                  0.046953
 Thermal correction to Gibbs Free Energy=         0.023696
 Sum of electronic and zero-point Energies=           -100.225321
 Sum of electronic and thermal Energies=              -100.222961
 Sum of electronic and thermal Enthalpies=            -100.222017
 Sum of electronic and thermal Free Energies=         -100.245274

                     E (Thermal)             CV                S
                      KCal/Mol        Cal/Mol-Kelvin    Cal/Mol-Kelvin
 Total                   28.871              4.968             48.949
 Electronic               0.000              0.000              1.377
 Translational            0.889              2.981             35.068
 Rotational               0.592              1.987             12.504
 Vibrational             27.390              0.000              0.000

 Normal termination of Gaussian 16 at Fri Aug 22 15:37:59 2025.
