 Gaussian 16, Revision C.01,
 Gaussian 16:  ES64L-G16RevC.01  3-Jul-2019

 -----------------------------------------
 # sp b3lyp/6-311g** Force nosymm scf=(qc)
 -----------------------------------------

 -------------------
 Title Card Required
 -------------------
 Symbolic Z-matrix:
 Charge =  0 Multiplicity = 2

                          Input orientation:
 ---------------------------------------------------------------------
 Center     Atomic      Atomic             Coordinates (Angstroms)
 Number     Number       Type             X           Y           Z
 ---------------------------------------------------------------------
      1          1           0        0.000000    0.000000    0.000000
      2          1           0       -1.250000    0.000000    0.000000
      3          9           0        2.050000    0.000000    0.000000
 ---------------------------------------------------------------------

 SCF Done:  E(UB3LYP) =  -100.869288723     a.u. after   13 cycles

 Alpha  occ. eigenvalues --  -24.72201  -1.18458  -0.51809  -0.43172  -0.43172
 Alpha  occ. eigenvalues --   -0.38742
 Alpha virt. eigenvalues --   -0.05837   0.22002   0.33383   0.87983   0.92449
 Alpha virt. eigenvalues --    0.92449   1.05635   1.11365   1.11365   1.34239
 Alpha virt. eigenvalues --    1.49229   1.49229   2.02354   2.27241   2.52654

  Beta  occ. eigenvalues --  -24.69396  -1.10514  -0.40385  -0.40385  -0.38347
  Beta virt. eigenvalues --   -0.24774  -0.04290   0.23027   0.33811   0.93695
  Beta virt. eigenvalues --    0.93695   0.94293   1.08781   1.12618   1.12618
  Beta virt. eigenvalues --    1.37557   1.50091   1.50091   2.03839   2.28466

 Mulliken charges and spin densities:
               1          2
     1  H    0.042156  -0.137334
     2  H    0.051358   0.256790
     3  F   -0.093514   0.880544
 Sum of Mulliken charges =  -0.00000   1.00000

 Dipole moment (field-independent basis, Debye):
    X=             -1.2484    Y=             -0.0000    Z=              0.0000  Tot=              1.2484
 Quadrupole moment (field-independent basis, Debye-Ang):
   XX=             -6.9411   YY=             -7.4271   ZZ=             -7.4271
   XY=             -0.0000   XZ=              0.0000   YZ=              0.0000

  Exact polarizability:      44.095      -0.000       2.157       0.000       0.000       2.157
 Approx polarizability:      64.477       0.000       2.146      -0.000       0.000       2.146

 ******    2 imaginary frequencies (negative Signs) ******

                      1                      2                      3
                      A                      A                      A
 Frequencies --  -1575.8385              -250.3925              1345.9917
 Red. masses --      1.0148                 1.1002                 1.0131
 Frc consts  --      1.4847                 0.0406                 1.0814
 IR Inten    --   1017.6688                 0.7318                 0.0971

                      4
                      A
 Frequencies --   1345.9917
 Red. masses --      1.0131
 Frc consts  --      1.0814
 IR Inten    --      0.0971

 - Thermochemistry -
 -------------------
 Temperature   298.150 Kelvin.  Pressure   1.00000 Atm.
 Atom     1 has atomic number  1 and mass   1.00783

 Molecular mass:    21.01405 amu.
 Principal axes and moments of inertia in atomic units:
                           1         2         3
     Eigenvalues --     0.00000  49.37759  49.37759
           X            1.00000  -0.00000   0.00000
           Y            0.00000   1.00000   0.00000
           Z            0.00000   0.00000   1.00000
 This molecule is a prolate symmetric top.
 Rotational symmetry number  1.
 Rotational temperature (Kelvin)      1.75411
 Rotational constant (GHZ):          36.549800
    2 imaginary frequencies ignored.
 Zero-point vibrational energy      16101.6 (Joules/Mol)
                                    3.84838 (Kcal/Mol)
 Vibrational temperatures:   1936.58  1936.58
          (Kelvin)

 Zero-point correction=                           0.006133 (Hartree/Particle)
 Thermal correction to Energy=                    0.008512
 Thermal correction to Enthalpy=                  0.009456
 Thermal correction to Gibbs Free Energy=        -0.013675
 Sum of electronic and zero-point Energies=           -100.863156
 Sum of electronic and thermal Energies=              -100.860777
 Sum of electronic and thermal Enthalpies=            -100.859833
 Sum of electronic and thermal Free Energies=         -100.882964

                     E (Thermal)             CV                S
                      KCal/Mol        Cal/Mol-Kelvin    Cal/Mol-Kelvin
 Total                    5.341              5.222             48.683
 Electronic               0.000              0.000              1.377
 Translational            0.889              2.981             35.068
 Rotational               0.592              1.987             12.193
 Vibrational              3.860              0.254              0.045

 Normal termination of Gaussian 16 at Fri Aug 22 16:59:26 2025.
