 Gaussian 16, Revision C.01,
 Gaussian 16:  ES64L-G16RevC.01  3-Jul-2019

 -----------------------------------------
 # sp b3lyp/6-311g** Force nosymm scf=(qc)
 -----------------------------------------

 -------------------
 Title Card Required
 -------------------
 Symbolic Z-matrix:
 Charge =  0 Multiplicity = 2

                          Input orientation:
 ---------------------------------------------------------------------
 Center     Atomic      Atomic             Coordinates (Angstroms)
 Number     Number       Type             X           Y           Z
 ---------------------------------------------------------------------
      1          1           0        0.000000    0.000000    0.000000
      2          1           0       -1.350000    0.000000    0.000000
      3          9           0        1.800000    0.000000    0.000000
 ---------------------------------------------------------------------

 SCF Done:  E(UB3LYP) =  -100.863368755     a.u. after   14 cycles

 Alpha  occ. eigenvalues --  -24.69044  -1.15528  -0.49293  -0.40572  -0.40572
 Alpha  occ. eigenvalues --   -0.39159
 Alpha virt. eigenvalues --   -0.07266   0.21422   0.31193   0.89738   0.93023
 Alpha virt. eigenvalues --    0.93023   1.03824   1.12921   1.12921   1.40441
 Alpha virt. eigenvalues --    1.44404   1.44404   1.96677   2.23387   2.49115

  Beta  occ. eigenvalues --  -24.66628  -1.08796  -0.39237  -0.38196  -0.38196
  Beta virt. eigenvalues --   -0.23604  -0.04923   0.23384   0.31575   0.93820
  Beta virt. eigenvalues --    0.93820   0.94469   1.07532   1.15656   1.15656
  Beta virt. eigenvalues --    1.44760   1.45590   1.45590   1.99351   2.24821

 Mulliken charges and spin densities:
               1          2
     1  H    0.113044  -0.242293
     2  H    0.067522   0.488114
     3  F   -0.180566   0.754179
 Sum of Mulliken charges =   0.00000   1.00000

 Dipole moment (field-independent basis, Debye):
    X=             -2.0217    Y=              0.0000    Z=             -0.0000  Tot=              2.0217
 Quadrupole moment (field-independent basis, Debye-Ang):
   XX=             -7.6118   YY=             -7.3832   ZZ=             -7.3832
   XY=             -0.0000   XZ=              0.0000   YZ=             -0.0000

  Exact polarizability:      44.172      -0.000       2.208       0.000      -0.000       2.208
 Approx polarizability:      69.127       0.000       2.166      -0.000       0.000       2.166

 ******    2 imaginary frequencies (negative Signs) ******

                      1                      2                      3
                      A                      A                      A
 Frequencies --  -2243.0645              -401.0434              1201.2287
 Red. masses --      1.0162                 1.0985                 1.0148
 Frc consts  --      3.0125                 0.1041                 0.8628
 IR Inten    --   1083.1973                 0.1579                 3.1366

                      4
                      A
 Frequencies --   1201.2287
 Red. masses --      1.0148
 Frc consts  --      0.8628
 IR Inten    --      3.1366

 - Thermochemistry -
 -------------------
 Temperature   298.150 Kelvin.  Pressure   1.00000 Atm.
 Atom     1 has atomic number  1 and mass   1.00783

 Molecular mass:    21.01405 amu.
 Principal axes and moments of inertia in atomic units:
                           1         2         3
     Eigenvalues --     0.00000  43.14265  43.14265
           X            1.00000  -0.00000   0.00000
           Y            0.00000   1.00000   0.00000
           Z            0.00000   0.00000   1.00000
 This molecule is a prolate symmetric top.
 Rotational symmetry number  1.
 Rotational temperature (Kelvin)      2.00762
 Rotational constant (GHZ):          41.831952
    2 imaginary frequencies ignored.
 Zero-point vibrational energy      14369.9 (Joules/Mol)
                                    3.43449 (Kcal/Mol)
 Vibrational temperatures:   1728.30  1728.30
          (Kelvin)

 Zero-point correction=                           0.005473 (Hartree/Particle)
 Thermal correction to Energy=                    0.007867
 Thermal correction to Enthalpy=                  0.008811
 Thermal correction to Gibbs Free Energy=        -0.014210
 Sum of electronic and zero-point Energies=           -100.857896
 Sum of electronic and thermal Energies=              -100.855502
 Sum of electronic and thermal Enthalpies=            -100.854558
 Sum of electronic and thermal Free Energies=         -100.877579

                     E (Thermal)             CV                S
                      KCal/Mol        Cal/Mol-Kelvin    Cal/Mol-Kelvin
 Total                    4.937              5.376             48.452
 Electronic               0.000              0.000              1.377
 Translational            0.889              2.981             35.068
 Rotational               0.592              1.987             11.925
 Vibrational              3.455              0.408              0.082

 Normal termination of Gaussian 16 at Fri Aug 22 16:42:55 2025.
