 Gaussian 16, Revision C.01,
 Gaussian 16:  ES64L-G16RevC.01  3-Jul-2019

 -----------------------------------------
 # sp b3lyp/6-311g** Force nosymm scf=(qc)
 -----------------------------------------

 -------------------
 Title Card Required
 -------------------
 Symbolic Z-matrix:
 Charge =  0 Multiplicity = 2

                          Input orientation:
 ---------------------------------------------------------------------
 Center     Atomic      Atomic             Coordinates (Angstroms)
 Number     Number       Type             X           Y           Z
 ---------------------------------------------------------------------
      1          1           0        0.000000    0.000000    0.000000
      2          1           0       -2.750000    0.000000    0.000000
      3          9           0        3.200000    0.000000    0.000000
 ---------------------------------------------------------------------

 SCF Done:  E(UB3LYP) =  -100.761866308     a.u. after   23 cycles

 Alpha  occ. eigenvalues --  -24.74763  -1.20771  -0.53883  -0.45242  -0.45242
 Alpha  occ. eigenvalues --   -0.32705
 Alpha virt. eigenvalues --   -0.09237   0.25203   0.34598   0.88718   0.91865
 Alpha virt. eigenvalues --    0.91865   1.02876   1.24871   1.24871   1.26210
 Alpha virt. eigenvalues --    1.42013   1.42013   1.42582   2.15809   2.38300

  Beta  occ. eigenvalues --  -24.71691  -1.11954  -0.42165  -0.42165  -0.33360
  Beta virt. eigenvalues --   -0.25161  -0.08296   0.25085   0.35844   0.93341
  Beta virt. eigenvalues --    0.93341   0.97665   1.06804   1.24093   1.24093
  Beta virt. eigenvalues --    1.25323   1.43525   1.43525   1.44005   2.16499

 Mulliken charges and spin densities:
               1          2
     1  H    0.021394  -0.959310
     2  H    0.002187   0.985416
     3  F   -0.023582   0.973894
 Sum of Mulliken charges =  -0.00000   1.00000

 Dipole moment (field-independent basis, Debye):
    X=             -0.4163    Y=             -0.0000    Z=             -0.0000  Tot=              0.4163
 Quadrupole moment (field-independent basis, Debye-Ang):
   XX=             -7.7172   YY=             -7.6412   ZZ=             -7.6412
   XY=             -0.0000   XZ=             -0.0000   YZ=             -0.0000

  Exact polarizability:      36.029      -0.000       2.022      -0.000      -0.000       2.022
 Approx polarizability:      30.872      -0.000       1.926      -0.000       0.000       1.926

 ******    2 imaginary frequencies (negative Signs) ******

                      1                      2                      3
                      A                      A                      A
 Frequencies --   -505.7747              -183.7340               184.5546
 Red. masses --      1.0111                 1.1046                 1.0162
 Frc consts  --      0.1524                 0.0220                 0.0204
 IR Inten    --     17.1810                10.3020                 0.3778

                      4
                      A
 Frequencies --    184.5546
 Red. masses --      1.0162
 Frc consts  --      0.0204
 IR Inten    --      0.3778

 - Thermochemistry -
 -------------------
 Temperature   298.150 Kelvin.  Pressure   1.00000 Atm.
 Atom     1 has atomic number  1 and mass   1.00783

 Molecular mass:    21.01405 amu.
 Principal axes and moments of inertia in atomic units:
                           1         2         3
     Eigenvalues --     0.00000 149.81666 149.81666
           X            1.00000  -0.00000   0.00000
           Y            0.00000   1.00000   0.00000
           Z            0.00000   0.00000   1.00000
 This molecule is a prolate symmetric top.
 Rotational symmetry number  1.
 Rotational temperature (Kelvin)      0.57813
 Rotational constant (GHZ):          12.046331
    2 imaginary frequencies ignored.
 Zero-point vibrational energy       2207.8 (Joules/Mol)
                                    0.52767 (Kcal/Mol)
 Warning -- explicit consideration of   2 degrees of freedom as
           vibrations may cause significant error
 Vibrational temperatures:    265.53   265.53
          (Kelvin)

 Zero-point correction=                           0.000841 (Hartree/Particle)
 Thermal correction to Energy=                    0.004372
 Thermal correction to Enthalpy=                  0.005316
 Thermal correction to Gibbs Free Energy=        -0.021010
 Sum of electronic and zero-point Energies=           -100.761025
 Sum of electronic and thermal Energies=              -100.757494
 Sum of electronic and thermal Enthalpies=            -100.756550
 Sum of electronic and thermal Free Energies=         -100.782876

                     E (Thermal)             CV                S
                      KCal/Mol        Cal/Mol-Kelvin    Cal/Mol-Kelvin
 Total                    2.743              8.690             55.407
 Electronic               0.000              0.000              1.377
 Translational            0.889              2.981             35.068
 Rotational               0.592              1.987             14.398
 Vibrational              1.262              3.722              4.564
 Vibration     1          0.631              1.861              2.282
 Vibration     2          0.631              1.861              2.282

 Normal termination of Gaussian 16 at Fri Aug 22 20:24:03 2025.
