 Gaussian 16, Revision C.01,
 Gaussian 16:  ES64L-G16RevC.01  3-Jul-2019

 -----------------------------------------
 # sp b3lyp/6-311g** Force nosymm scf=(qc)
 -----------------------------------------

 -------------------
 Title Card Required
 -------------------
 Symbolic Z-matrix:
 Charge =  0 Multiplicity = 2

                          Input orientation:
 ---------------------------------------------------------------------
 Center     Atomic      Atomic             Coordinates (Angstroms)
 Number     Number       Type             X           Y           Z
 ---------------------------------------------------------------------
      1          1           0        0.000000    0.000000    0.000000
      2          1           0       -1.250000    0.000000    0.000000
      3          9           0        3.300000    0.000000    0.000000
 ---------------------------------------------------------------------

 SCF Done:  E(UB3LYP) =  -100.862986710     a.u. after  274 cycles

 Alpha  occ. eigenvalues --  -24.76490  -1.22343  -0.55539  -0.46750  -0.46692
 Alpha  occ. eigenvalues --   -0.35726
 Alpha virt. eigenvalues --   -0.05052   0.23245   0.33441   0.85881   0.90756
 Alpha virt. eigenvalues --    0.92689   1.01997   1.14170   1.14174   1.18878
 Alpha virt. eigenvalues --    1.51926   1.51930   2.03464   2.30567   2.54256

  Beta  occ. eigenvalues --  -24.73331  -1.13263  -0.43586  -0.43525  -0.35721
  Beta virt. eigenvalues --   -0.26175  -0.05043   0.23258   0.33489   0.92255
  Beta virt. eigenvalues --    0.94234   0.95343   1.06033   1.14170   1.14174
  Beta virt. eigenvalues --    1.18890   1.51925   1.51929   2.03473   2.30569

 Mulliken charges and spin densities:
               1          2
     1  H   -0.000383  -0.000139
     2  H   -0.004192  -0.000423
     3  F    0.004575   1.000562
 Sum of Mulliken charges =  -0.00000   1.00000

 Dipole moment (field-independent basis, Debye):
    X=              0.0678    Y=              0.0000    Z=              0.0000  Tot=              0.0678
 Quadrupole moment (field-independent basis, Debye-Ang):
   XX=             -6.2115   YY=             -7.3909   ZZ=             -6.8420
   XY=              0.0000   XZ=              0.0000   YZ=              0.3337

  Exact polarizability:      17.283       0.000       2.161       0.000       0.179       2.456
 Approx polarizability:      26.850       0.000       2.204       0.000       0.225       2.574

 ******    2 imaginary frequencies (negative Signs) ******

                      1                      2                      3
                      A                      A                      A
 Frequencies --   -789.3927               -39.6605              1433.0633
 Red. masses --      1.0078                 1.1085                 1.0103
 Frc consts  --      0.3700                 0.0010                 1.2225
 IR Inten    --      0.3714                 0.2767                 0.0014

                      4
                      A
 Frequencies --   1434.0125
 Red. masses --      1.0103
 Frc consts  --      1.2241
 IR Inten    --      0.0014

 - Thermochemistry -
 -------------------
 Temperature   298.150 Kelvin.  Pressure   1.00000 Atm.
 Atom     1 has atomic number  1 and mass   1.00783

 Molecular mass:    21.01405 amu.
 Principal axes and moments of inertia in atomic units:
                           1         2         3
     Eigenvalues --     0.00000 103.06521 103.06521
           X            1.00000  -0.00000   0.00000
           Y            0.00000   1.00000   0.00000
           Z            0.00000   0.00000   1.00000
 This molecule is a prolate symmetric top.
 Rotational symmetry number  1.
 Rotational temperature (Kelvin)      0.84038
 Rotational constant (GHZ):          17.510674
    2 imaginary frequencies ignored.
 Zero-point vibrational energy      17148.9 (Joules/Mol)
                                    4.09869 (Kcal/Mol)
 Vibrational temperatures:   2061.86  2063.22
          (Kelvin)

 Zero-point correction=                           0.006532 (Hartree/Particle)
 Thermal correction to Energy=                    0.008905
 Thermal correction to Enthalpy=                  0.009849
 Thermal correction to Gibbs Free Energy=        -0.013970
 Sum of electronic and zero-point Energies=           -100.856455
 Sum of electronic and thermal Energies=              -100.854082
 Sum of electronic and thermal Enthalpies=            -100.853137
 Sum of electronic and thermal Free Energies=         -100.876957

                     E (Thermal)             CV                S
                      KCal/Mol        Cal/Mol-Kelvin    Cal/Mol-Kelvin
 Total                    5.588              5.157             50.132
 Electronic               0.000              0.000              1.377
 Translational            0.889              2.981             35.068
 Rotational               0.592              1.987             13.655
 Vibrational              4.107              0.189              0.031

 Normal termination of Gaussian 16 at Fri Aug 22 20:43:11 2025.
