 Gaussian 16, Revision C.01,
 Gaussian 16:  ES64L-G16RevC.01  3-Jul-2019

 -----------------------------------------
 # sp b3lyp/6-311g** Force nosymm scf=(qc)
 -----------------------------------------

 -------------------
 Title Card Required
 -------------------
 Symbolic Z-matrix:
 Charge =  0 Multiplicity = 2

                          Input orientation:
 ---------------------------------------------------------------------
 Center     Atomic      Atomic             Coordinates (Angstroms)
 Number     Number       Type             X           Y           Z
 ---------------------------------------------------------------------
      1          1           0        0.000000    0.000000    0.000000
      2          1           0       -3.200000    0.000000    0.000000
      3          9           0        2.450000    0.000000    0.000000
 ---------------------------------------------------------------------

 SCF Done:  E(UB3LYP) =  -100.768997043     a.u. after   16 cycles

 Alpha  occ. eigenvalues --  -24.71442  -1.17674  -0.50539  -0.42461  -0.42461
 Alpha  occ. eigenvalues --   -0.33113
 Alpha virt. eigenvalues --   -0.10820   0.23703   0.34733   0.89577   0.93769
 Alpha virt. eigenvalues --    0.93769   1.06420   1.24412   1.24412   1.24904
 Alpha virt. eigenvalues --    1.40025   1.40025   1.45171   2.14799   2.35123

  Beta  occ. eigenvalues --  -24.68629  -1.09676  -0.39659  -0.39659  -0.35568
  Beta virt. eigenvalues --   -0.23148  -0.07390   0.24265   0.37314   0.95107
  Beta virt. eigenvalues --    0.95107   0.95528   1.08676   1.21972   1.21972
  Beta virt. eigenvalues --    1.31239   1.45045   1.45205   1.45205   2.13183

 Mulliken charges and spin densities:
               1          2
     1  H    0.095750  -0.884116
     2  H    0.002040   0.995523
     3  F   -0.097790   0.888593
 Sum of Mulliken charges =  -0.00000   1.00000

 Dipole moment (field-independent basis, Debye):
    X=             -1.2477    Y=             -0.0000    Z=              0.0000  Tot=              1.2477
 Quadrupole moment (field-independent basis, Debye-Ang):
   XX=             -9.3171   YY=             -7.5711   ZZ=             -7.5711
   XY=              0.0000   XZ=             -0.0000   YZ=             -0.0000

  Exact polarizability:      32.170       0.000       2.025       0.000       0.000       2.025
 Approx polarizability:      40.121       0.000       1.920      -0.000      -0.000       1.920

 ******    2 imaginary frequencies (negative Signs) ******

                      1                      2                      3
                      A                      A                      A
 Frequencies --   -665.1544              -170.8682               263.2037
 Red. masses --      1.0507                 1.0609                 1.0215
 Frc consts  --      0.2739                 0.0182                 0.0417
 IR Inten    --     83.0242                 1.1545                 8.5493

                      4
                      A
 Frequencies --    263.2037
 Red. masses --      1.0215
 Frc consts  --      0.0417
 IR Inten    --      8.5493

 - Thermochemistry -
 -------------------
 Temperature   298.150 Kelvin.  Pressure   1.00000 Atm.
 Atom     1 has atomic number  1 and mass   1.00783

 Molecular mass:    21.01405 amu.
 Principal axes and moments of inertia in atomic units:
                           1         2         3
     Eigenvalues --     0.00000 125.16766 125.16766
           X            1.00000  -0.00000   0.00000
           Y            0.00000   1.00000   0.00000
           Z            0.00000   0.00000   1.00000
 This molecule is a prolate symmetric top.
 Rotational symmetry number  1.
 Rotational temperature (Kelvin)      0.69198
 Rotational constant (GHZ):          14.418590
    2 imaginary frequencies ignored.
 Zero-point vibrational energy       3148.6 (Joules/Mol)
                                    0.75254 (Kcal/Mol)
 Warning -- explicit consideration of   2 degrees of freedom as
           vibrations may cause significant error
 Vibrational temperatures:    378.69   378.69
          (Kelvin)

 Zero-point correction=                           0.001199 (Hartree/Particle)
 Thermal correction to Energy=                    0.004496
 Thermal correction to Enthalpy=                  0.005440
 Thermal correction to Gibbs Free Energy=        -0.020106
 Sum of electronic and zero-point Energies=           -100.767798
 Sum of electronic and thermal Energies=              -100.764501
 Sum of electronic and thermal Enthalpies=            -100.763557
 Sum of electronic and thermal Free Energies=         -100.789103

                     E (Thermal)             CV                S
                      KCal/Mol        Cal/Mol-Kelvin    Cal/Mol-Kelvin
 Total                    2.821              8.449             53.767
 Electronic               0.000              0.000              1.377
 Translational            0.889              2.981             35.068
 Rotational               0.592              1.987             14.041
 Vibrational              1.340              3.481              3.281
 Vibration     1          0.670              1.740              1.640
 Vibration     2          0.670              1.740              1.640

 Normal termination of Gaussian 16 at Fri Aug 22 17:39:28 2025.
