 Gaussian 16, Revision C.01,
 Gaussian 16:  ES64L-G16RevC.01  3-Jul-2019

 -----------------------------------------
 # sp b3lyp/6-311g** Force nosymm scf=(qc)
 -----------------------------------------

 -------------------
 Title Card Required
 -------------------
 Symbolic Z-matrix:
 Charge =  0 Multiplicity = 2

                          Input orientation:
 ---------------------------------------------------------------------
 Center     Atomic      Atomic             Coordinates (Angstroms)
 Number     Number       Type             X           Y           Z
 ---------------------------------------------------------------------
      1          1           0        0.000000    0.000000    0.000000
      2          1           0       -2.300000    0.000000    0.000000
      3          9           0        1.600000    0.000000    0.000000
 ---------------------------------------------------------------------

 SCF Done:  E(UB3LYP) =  -100.837836761     a.u. after   13 cycles

 Alpha  occ. eigenvalues --  -24.64577  -1.10467  -0.43620  -0.36588  -0.36588
 Alpha  occ. eigenvalues --   -0.36351
 Alpha virt. eigenvalues --   -0.13855   0.23443   0.27521   0.94495   0.94495
 Alpha virt. eigenvalues --    1.00508   1.07257   1.21198   1.21198   1.26240
 Alpha virt. eigenvalues --    1.32953   1.32953   1.74966   2.11417   2.23008

  Beta  occ. eigenvalues --  -24.63545  -1.07694  -0.40839  -0.35597  -0.35597
  Beta virt. eigenvalues --   -0.18058  -0.09218   0.24910   0.34004   0.94215
  Beta virt. eigenvalues --    0.94215   1.02180   1.08293   1.28070   1.28070
  Beta virt. eigenvalues --    1.39814   1.39814   1.42791   1.73096   2.14393

 Mulliken charges and spin densities:
               1          2
     1  H    0.297420  -0.284180
     2  H    0.030349   0.959208
     3  F   -0.327769   0.324971
 Sum of Mulliken charges =   0.00000   1.00000

 Dipole moment (field-independent basis, Debye):
    X=             -2.8954    Y=              0.0000    Z=              0.0000  Tot=              2.8954
 Quadrupole moment (field-independent basis, Debye-Ang):
   XX=             -9.2708   YY=             -7.3793   ZZ=             -7.3793
   XY=              0.0000   XZ=              0.0000   YZ=              0.0000

  Exact polarizability:      30.470       0.000       2.167       0.000       0.000       2.167
 Approx polarizability:      42.710       0.000       2.083       0.000      -0.000       2.083

 ******    2 imaginary frequencies (negative Signs) ******

                      1                      2                      3
                      A                      A                      A
 Frequencies --  -1922.4792              -382.7207               885.0781
 Red. masses --      1.0470                 1.0647                 1.0229
 Frc consts  --      2.2800                 0.0919                 0.4721
 IR Inten    --     15.5776                 8.8786                71.2577

                      4
                      A
 Frequencies --    885.0781
 Red. masses --      1.0229
 Frc consts  --      0.4721
 IR Inten    --     71.2577

 - Thermochemistry -
 -------------------
 Temperature   298.150 Kelvin.  Pressure   1.00000 Atm.
 Atom     1 has atomic number  1 and mass   1.00783

 Molecular mass:    21.01405 amu.
 Principal axes and moments of inertia in atomic units:
                           1         2         3
     Eigenvalues --     0.00000  58.73302  58.73302
           X            1.00000  -0.00000   0.00000
           Y            0.00000   1.00000   0.00000
           Z            0.00000   0.00000   1.00000
 This molecule is a prolate symmetric top.
 Rotational symmetry number  1.
 Rotational temperature (Kelvin)      1.47471
 Rotational constant (GHZ):          30.727879
    2 imaginary frequencies ignored.
 Zero-point vibrational energy      10587.9 (Joules/Mol)
                                    2.53057 (Kcal/Mol)
 Vibrational temperatures:   1273.43  1273.43
          (Kelvin)

 Zero-point correction=                           0.004033 (Hartree/Particle)
 Thermal correction to Energy=                    0.006507
 Thermal correction to Enthalpy=                  0.007452
 Thermal correction to Gibbs Free Energy=        -0.015963
 Sum of electronic and zero-point Energies=           -100.833804
 Sum of electronic and thermal Energies=              -100.831329
 Sum of electronic and thermal Enthalpies=            -100.830385
 Sum of electronic and thermal Free Energies=         -100.853799

                     E (Thermal)             CV                S
                      KCal/Mol        Cal/Mol-Kelvin    Cal/Mol-Kelvin
 Total                    4.083              6.009             49.279
 Electronic               0.000              0.000              1.377
 Translational            0.889              2.981             35.068
 Rotational               0.592              1.987             12.538
 Vibrational              2.602              1.041              0.296

 Normal termination of Gaussian 16 at Fri Aug 22 16:31:26 2025.
