 Gaussian 16, Revision C.01,
 Gaussian 16:  ES64L-G16RevC.01  3-Jul-2019

 -----------------------------------------
 # sp b3lyp/6-311g** Force nosymm scf=(qc)
 -----------------------------------------

 -------------------
 Title Card Required
 -------------------
 Symbolic Z-matrix:
 Charge =  0 Multiplicity = 2

                          Input orientation:
 ---------------------------------------------------------------------
 Center     Atomic      Atomic             Coordinates (Angstroms)
 Number     Number       Type             X           Y           Z
 ---------------------------------------------------------------------
      1          1           0        0.000000    0.000000    0.000000
      2          1           0       -2.900000    0.000000    0.000000
      3          9           0        3.800000    0.000000    0.000000
 ---------------------------------------------------------------------

 SCF Done:  E(UB3LYP) =  -100.759955542     a.u. after   31 cycles

 Alpha  occ. eigenvalues --  -24.75769  -1.21704  -0.54894  -0.46090  -0.46090
 Alpha  occ. eigenvalues --   -0.32395
 Alpha virt. eigenvalues --   -0.08032   0.25203   0.36042   0.86854   0.91239
 Alpha virt. eigenvalues --    0.91239   1.01254   1.25154   1.25154   1.26056
 Alpha virt. eigenvalues --    1.43875   1.43875   1.43995   2.15912   2.39155

  Beta  occ. eigenvalues --  -24.72631  -1.12683  -0.42944  -0.42944  -0.32626
  Beta virt. eigenvalues --   -0.25682  -0.07738   0.25018   0.36466   0.92736
  Beta virt. eigenvalues --    0.92736   0.96168   1.05356   1.24895   1.24895
  Beta virt. eigenvalues --    1.25772   1.44324   1.44324   1.44444   2.16025

 Mulliken charges and spin densities:
               1          2
     1  H    0.004065  -0.984987
     2  H    0.000468   0.990056
     3  F   -0.004533   0.994931
 Sum of Mulliken charges =   0.00000   1.00000

 Dipole moment (field-independent basis, Debye):
    X=             -0.0953    Y=             -0.0000    Z=             -0.0000  Tot=              0.0953
 Quadrupole moment (field-independent basis, Debye-Ang):
   XX=             -6.9482   YY=             -7.6404   ZZ=             -7.6404
   XY=             -0.0000   XZ=             -0.0000   YZ=             -0.0000

  Exact polarizability:      18.618      -0.000       2.027       0.000       0.000       2.027
 Approx polarizability:      13.760      -0.000       1.933      -0.000       0.000       1.933

 ******    2 imaginary frequencies (negative Signs) ******

                      1                      2                      3
                      A                      A                      A
 Frequencies --   -385.8851               -94.6283               137.1677
 Red. masses --      1.0082                 1.1080                 1.0150
 Frc consts  --      0.0885                 0.0058                 0.0113
 IR Inten    --      1.7633                 1.5626                 0.0142

                      4
                      A
 Frequencies --    137.1677
 Red. masses --      1.0150
 Frc consts  --      0.0113
 IR Inten    --      0.0142

 - Thermochemistry -
 -------------------
 Temperature   298.150 Kelvin.  Pressure   1.00000 Atm.
 Atom     1 has atomic number  1 and mass   1.00783

 Molecular mass:    21.01405 amu.
 Principal axes and moments of inertia in atomic units:
                           1         2         3
     Eigenvalues --     0.00000 194.49926 194.49926
           X            1.00000  -0.00000   0.00000
           Y            0.00000   1.00000   0.00000
           Z            0.00000   0.00000   1.00000
 This molecule is a prolate symmetric top.
 Rotational symmetry number  1.
 Rotational temperature (Kelvin)      0.44532
 Rotational constant (GHZ):           9.278910
    2 imaginary frequencies ignored.
 Zero-point vibrational energy       1640.9 (Joules/Mol)
                                    0.39218 (Kcal/Mol)
 Warning -- explicit consideration of   2 degrees of freedom as
           vibrations may cause significant error
 Vibrational temperatures:    197.35   197.35
          (Kelvin)

 Zero-point correction=                           0.000625 (Hartree/Particle)
 Thermal correction to Energy=                    0.004317
 Thermal correction to Enthalpy=                  0.005261
 Thermal correction to Gibbs Free Energy=        -0.021844
 Sum of electronic and zero-point Energies=           -100.759331
 Sum of electronic and thermal Energies=              -100.755638
 Sum of electronic and thermal Enthalpies=            -100.754694
 Sum of electronic and thermal Free Energies=         -100.781800

                     E (Thermal)             CV                S
                      KCal/Mol        Cal/Mol-Kelvin    Cal/Mol-Kelvin
 Total                    2.709              8.800             57.049
 Electronic               0.000              0.000              1.377
 Translational            0.889              2.981             35.068
 Rotational               0.592              1.987             14.917
 Vibrational              1.228              3.832              5.686
 Vibration     1          0.614              1.916              2.843
 Vibration     2          0.614              1.916              2.843

 Normal termination of Gaussian 16 at Sat Aug 23 00:51:12 2025.
