 Gaussian 16, Revision C.01,
 Gaussian 16:  ES64L-G16RevC.01  3-Jul-2019

 -----------------------------------------
 # sp b3lyp/6-311g** Force nosymm scf=(qc)
 -----------------------------------------

 -------------------
 Title Card Required
 -------------------
 Symbolic Z-matrix:
 Charge =  0 Multiplicity = 2

                          Input orientation:
 ---------------------------------------------------------------------
 Center     Atomic      Atomic             Coordinates (Angstroms)
 Number     Number       Type             X           Y           Z
 ---------------------------------------------------------------------
      1          1           0        0.000000    0.000000    0.000000
      2          1           0       -1.900000    0.000000    0.000000
      3          9           0        2.300000    0.000000    0.000000
 ---------------------------------------------------------------------

 SCF Done:  E(UB3LYP) =  -100.791513247     a.u. after   18 cycles

 Alpha  occ. eigenvalues --  -24.70664  -1.16925  -0.49776  -0.41791  -0.41791
 Alpha  occ. eigenvalues --   -0.35687
 Alpha virt. eigenvalues --   -0.13026   0.24318   0.31619   0.88290   0.94147
 Alpha virt. eigenvalues --    0.94147   1.04563   1.22159   1.22159   1.22387
 Alpha virt. eigenvalues --    1.34375   1.34375   1.54829   2.11309   2.35139

  Beta  occ. eigenvalues --  -24.67932  -1.09183  -0.39075  -0.39075  -0.35891
  Beta virt. eigenvalues --   -0.23001  -0.11873   0.26573   0.31270   0.93284
  Beta virt. eigenvalues --    0.95399   0.95399   1.07815   1.22558   1.22558
  Beta virt. eigenvalues --    1.27405   1.35951   1.35951   1.54799   2.11990

 Mulliken charges and spin densities:
               1          2
     1  H    0.075210  -0.690086
     2  H    0.040017   0.828505
     3  F   -0.115227   0.861582
 Sum of Mulliken charges =   0.00000   1.00000

 Dipole moment (field-independent basis, Debye):
    X=             -1.7042    Y=             -0.0000    Z=             -0.0000  Tot=              1.7042
 Quadrupole moment (field-independent basis, Debye-Ang):
   XX=             -8.2424   YY=             -7.6337   ZZ=             -7.6337
   XY=             -0.0000   XZ=             -0.0000   YZ=             -0.0000

  Exact polarizability:      58.330      -0.000       2.023      -0.000       0.000       2.023
 Approx polarizability:      68.385       0.000       1.946       0.000       0.000       1.946

 ******    2 imaginary frequencies (negative Signs) ******

                      1                      2                      3
                      A                      A                      A
 Frequencies --  -1595.0665              -463.8666               662.1775
 Red. masses --      1.0101                 1.1057                 1.0158
 Frc consts  --      1.5142                 0.1402                 0.2624
 IR Inten    --    131.2555                51.6963                 2.8163

                      4
                      A
 Frequencies --    662.1775
 Red. masses --      1.0158
 Frc consts  --      0.2624
 IR Inten    --      2.8163

 - Thermochemistry -
 -------------------
 Temperature   298.150 Kelvin.  Pressure   1.00000 Atm.
 Atom     1 has atomic number  1 and mass   1.00783

 Molecular mass:    21.01405 amu.
 Principal axes and moments of inertia in atomic units:
                           1         2         3
     Eigenvalues --     0.00000  75.23262  75.23262
           X            1.00000  -0.00000   0.00000
           Y            0.00000   1.00000   0.00000
           Z            0.00000   0.00000   1.00000
 This molecule is a prolate symmetric top.
 Rotational symmetry number  1.
 Rotational temperature (Kelvin)      1.15128
 Rotational constant (GHZ):          23.988811
    2 imaginary frequencies ignored.
 Zero-point vibrational energy       7921.4 (Joules/Mol)
                                    1.89326 (Kcal/Mol)
 Vibrational temperatures:    952.73   952.73
          (Kelvin)

 Zero-point correction=                           0.003017 (Hartree/Particle)
 Thermal correction to Energy=                    0.005635
 Thermal correction to Enthalpy=                  0.006579
 Thermal correction to Gibbs Free Energy=        -0.017264
 Sum of electronic and zero-point Energies=           -100.788496
 Sum of electronic and thermal Energies=              -100.785878
 Sum of electronic and thermal Enthalpies=            -100.784934
 Sum of electronic and thermal Free Energies=         -100.808778

                     E (Thermal)             CV                S
                      KCal/Mol        Cal/Mol-Kelvin    Cal/Mol-Kelvin
 Total                    3.536              6.775             50.183
 Electronic               0.000              0.000              1.377
 Translational            0.889              2.981             35.068
 Rotational               0.592              1.987             13.030
 Vibrational              2.055              1.807              0.708

 Normal termination of Gaussian 16 at Fri Aug 22 17:21:47 2025.
