 Gaussian 16, Revision C.01,
 Gaussian 16:  ES64L-G16RevC.01  3-Jul-2019

 -----------------------------------------
 # sp b3lyp/6-311g** Force nosymm scf=(qc)
 -----------------------------------------

 -------------------
 Title Card Required
 -------------------
 Symbolic Z-matrix:
 Charge =  0 Multiplicity = 2

                          Input orientation:
 ---------------------------------------------------------------------
 Center     Atomic      Atomic             Coordinates (Angstroms)
 Number     Number       Type             X           Y           Z
 ---------------------------------------------------------------------
      1          1           0        0.000000    0.000000    0.000000
      2          1           0       -3.300000    0.000000    0.000000
      3          9           0        3.300000    0.000000    0.000000
 ---------------------------------------------------------------------

 SCF Done:  E(UB3LYP) =  -100.759863717     a.u. after   23 cycles

 Alpha  occ. eigenvalues --  -24.74984  -1.20977  -0.54106  -0.45428  -0.45428
 Alpha  occ. eigenvalues --   -0.32445
 Alpha virt. eigenvalues --   -0.07695   0.24420   0.36315   0.88299   0.91729
 Alpha virt. eigenvalues --    0.91729   1.02458   1.25069   1.25069   1.25375
 Alpha virt. eigenvalues --    1.44365   1.44365   1.44404   2.15238   2.40476

  Beta  occ. eigenvalues --  -24.71897  -1.12112  -0.42335  -0.42335  -0.33128
  Beta virt. eigenvalues --   -0.25273  -0.06869   0.24214   0.37559   0.93210
  Beta virt. eigenvalues --    0.93210   0.97296   1.06386   1.24276   1.24276
  Beta virt. eigenvalues --    1.24569   1.45425   1.45662   1.45662   2.15593

 Mulliken charges and spin densities:
               1          2
     1  H    0.018745  -0.975462
     2  H    0.000450   0.996549
     3  F   -0.019195   0.978913
 Sum of Mulliken charges =  -0.00000   1.00000

 Dipole moment (field-independent basis, Debye):
    X=             -0.3327    Y=             -0.0000    Z=              0.0000  Tot=              0.3327
 Quadrupole moment (field-independent basis, Debye-Ang):
   XX=             -7.6964   YY=             -7.6225   ZZ=             -7.6225
   XY=             -0.0000   XZ=              0.0000   YZ=              0.0000

  Exact polarizability:      29.039      -0.000       2.029       0.000       0.000       2.029
 Approx polarizability:      24.984      -0.000       1.930       0.000       0.000       1.930

 ******    2 imaginary frequencies (negative Signs) ******

                      1                      2                      3
                      A                      A                      A
 Frequencies --   -313.8866              -131.4632               105.7983
 Red. masses --      1.0277                 1.0854                 1.0179
 Frc consts  --      0.0597                 0.0111                 0.0067
 IR Inten    --     18.8861                 2.3450                 0.3145

                      4
                      A
 Frequencies --    105.7984
 Red. masses --      1.0179
 Frc consts  --      0.0067
 IR Inten    --      0.3145

 - Thermochemistry -
 -------------------
 Temperature   298.150 Kelvin.  Pressure   1.00000 Atm.
 Atom     1 has atomic number  1 and mass   1.00783

 Molecular mass:    21.01405 amu.
 Principal axes and moments of inertia in atomic units:
                           1         2         3
     Eigenvalues --     0.00000 179.04881 179.04881
           X            1.00000  -0.00000   0.00000
           Y            0.00000   1.00000   0.00000
           Z            0.00000   0.00000   1.00000
 This molecule is a prolate symmetric top.
 Rotational symmetry number  1.
 Rotational temperature (Kelvin)      0.48374
 Rotational constant (GHZ):          10.079604
    2 imaginary frequencies ignored.
 Zero-point vibrational energy       1265.6 (Joules/Mol)
                                    0.30249 (Kcal/Mol)
 Warning -- explicit consideration of   2 degrees of freedom as
           vibrations may cause significant error
 Vibrational temperatures:    152.22   152.22
          (Kelvin)

 Zero-point correction=                           0.000482 (Hartree/Particle)
 Thermal correction to Energy=                    0.004290
 Thermal correction to Enthalpy=                  0.005234
 Thermal correction to Gibbs Free Energy=        -0.022270
 Sum of electronic and zero-point Energies=           -100.759382
 Sum of electronic and thermal Energies=              -100.755574
 Sum of electronic and thermal Enthalpies=            -100.754630
 Sum of electronic and thermal Free Energies=         -100.782134

                     E (Thermal)             CV                S
                      KCal/Mol        Cal/Mol-Kelvin    Cal/Mol-Kelvin
 Total                    2.692              8.857             57.887
 Electronic               0.000              0.000              1.377
 Translational            0.889              2.981             35.068
 Rotational               0.592              1.987             14.753
 Vibrational              1.211              3.889              6.689
 Vibration     1          0.605              1.945              3.345
 Vibration     2          0.605              1.945              3.345

 Normal termination of Gaussian 16 at Fri Aug 22 20:49:50 2025.
