 Gaussian 16, Revision C.01,
 Gaussian 16:  ES64L-G16RevC.01  3-Jul-2019

 -----------------------------------------
 # sp b3lyp/6-311g** Force nosymm scf=(qc)
 -----------------------------------------

 -------------------
 Title Card Required
 -------------------
 Symbolic Z-matrix:
 Charge =  0 Multiplicity = 2

                          Input orientation:
 ---------------------------------------------------------------------
 Center     Atomic      Atomic             Coordinates (Angstroms)
 Number     Number       Type             X           Y           Z
 ---------------------------------------------------------------------
      1          1           0        0.000000    0.000000    0.000000
      2          1           0       -1.100000    0.000000    0.000000
      3          9           0        1.550000    0.000000    0.000000
 ---------------------------------------------------------------------

 SCF Done:  E(UB3LYP) =  -100.909909215     a.u. after   12 cycles

 Alpha  occ. eigenvalues --  -24.68626  -1.15542  -0.51514  -0.40477  -0.40477
 Alpha  occ. eigenvalues --   -0.40286
 Alpha virt. eigenvalues --    0.00362   0.20227   0.32995   0.90802   0.90802
 Alpha virt. eigenvalues --    0.98475   1.08461   1.08461   1.12111   1.57434
 Alpha virt. eigenvalues --    1.57434   1.59406   2.15687   2.28063   2.50877

  Beta  occ. eigenvalues --  -24.66374  -1.09375  -0.42845  -0.38290  -0.38290
  Beta virt. eigenvalues --   -0.23452   0.03006   0.21982   0.34534   0.91640
  Beta virt. eigenvalues --    0.91640   1.04309   1.11733   1.11733   1.15237
  Beta virt. eigenvalues --    1.59210   1.59210   1.63263   2.18614   2.32386

 Mulliken charges and spin densities:
               1          2
     1  H    0.154256  -0.129050
     2  H    0.058968   0.438534
     3  F   -0.213223   0.690517
 Sum of Mulliken charges =   0.00000   1.00000

 Dipole moment (field-independent basis, Debye):
    X=             -1.9142    Y=              0.0000    Z=              0.0000  Tot=              1.9142
 Quadrupole moment (field-independent basis, Debye-Ang):
   XX=             -7.4551   YY=             -7.1116   ZZ=             -7.1116
   XY=              0.0000   XZ=              0.0000   YZ=             -0.0000

  Exact polarizability:      31.831       0.000       2.347       0.000       0.000       2.347
 Approx polarizability:      47.644       0.000       2.328       0.000       0.000       2.328

 ******    1 imaginary frequencies (negative Signs) ******

                      1                      2                      3
                      A                      A                      A
 Frequencies --  -2102.0991               621.8065              1284.9757
 Red. masses --      1.0295                 1.0835                 1.0143
 Frc consts  --      2.6802                 0.2468                 0.9868
 IR Inten    --   1076.3692                55.4327                 5.0824

                      4
                      A
 Frequencies --   1284.9757
 Red. masses --      1.0143
 Frc consts  --      0.9868
 IR Inten    --      5.0824

 - Thermochemistry -
 -------------------
 Temperature   298.150 Kelvin.  Pressure   1.00000 Atm.
 Atom     1 has atomic number  1 and mass   1.00783

 Molecular mass:    21.01405 amu.
 Principal axes and moments of inertia in atomic units:
                           1         2         3
     Eigenvalues --     0.00000  30.87587  30.87587
           X            1.00000  -0.00000   0.00000
           Y            0.00000   1.00000   0.00000
           Z            0.00000   0.00000   1.00000
 This molecule is a prolate symmetric top.
 Rotational symmetry number  1.
 Rotational temperature (Kelvin)      2.80523
 Rotational constant (GHZ):          58.451510
    1 imaginary frequencies ignored.
 Zero-point vibrational energy      19091.0 (Joules/Mol)
                                    4.56285 (Kcal/Mol)
 Vibrational temperatures:    894.64  1848.79  1848.79
          (Kelvin)

 Zero-point correction=                           0.007271 (Hartree/Particle)
 Thermal correction to Energy=                    0.009804
 Thermal correction to Enthalpy=                  0.010748
 Thermal correction to Gibbs Free Energy=        -0.012142
 Sum of electronic and zero-point Energies=           -100.902638
 Sum of electronic and thermal Energies=              -100.900105
 Sum of electronic and thermal Enthalpies=            -100.899161
 Sum of electronic and thermal Free Energies=         -100.922051

                     E (Thermal)             CV                S
                      KCal/Mol        Cal/Mol-Kelvin    Cal/Mol-Kelvin
 Total                    6.152              6.265             48.177
 Electronic               0.000              0.000              1.377
 Translational            0.889              2.981             35.068
 Rotational               0.592              1.987             11.260
 Vibrational              4.671              1.297              0.472

 Normal termination of Gaussian 16 at Fri Aug 22 16:27:26 2025.
