 Gaussian 16, Revision C.01,
 Gaussian 16:  ES64L-G16RevC.01  3-Jul-2019

 -----------------------------------------
 # sp b3lyp/6-311g** Force nosymm scf=(qc)
 -----------------------------------------

 -------------------
 Title Card Required
 -------------------
 Symbolic Z-matrix:
 Charge =  0 Multiplicity = 2

                          Input orientation:
 ---------------------------------------------------------------------
 Center     Atomic      Atomic             Coordinates (Angstroms)
 Number     Number       Type             X           Y           Z
 ---------------------------------------------------------------------
      1          1           0        0.000000    0.000000    0.000000
      2          1           0       -2.750000    0.000000    0.000000
      3          9           0        3.050000    0.000000    0.000000
 ---------------------------------------------------------------------

 SCF Done:  E(UB3LYP) =  -100.762609456     a.u. after   22 cycles

 Alpha  occ. eigenvalues --  -24.74300  -1.20343  -0.53419  -0.44853  -0.44853
 Alpha  occ. eigenvalues --   -0.32820
 Alpha virt. eigenvalues --   -0.09571   0.25097   0.34381   0.89306   0.92147
 Alpha virt. eigenvalues --    0.92147   1.03654   1.24757   1.24757   1.26162
 Alpha virt. eigenvalues --    1.41533   1.41533   1.42255   2.15708   2.38071

  Beta  occ. eigenvalues --  -24.71259  -1.11624  -0.41809  -0.41809  -0.33665
  Beta virt. eigenvalues --   -0.24905  -0.08351   0.25106   0.35812   0.93613
  Beta virt. eigenvalues --    0.93613   0.98114   1.07526   1.23759   1.23759
  Beta virt. eigenvalues --    1.25100   1.43489   1.43489   1.43983   2.16422

 Mulliken charges and spin densities:
               1          2
     1  H    0.029942  -0.949240
     2  H    0.002811   0.985499
     3  F   -0.032753   0.963741
 Sum of Mulliken charges =  -0.00000   1.00000

 Dipole moment (field-independent basis, Debye):
    X=             -0.5498    Y=             -0.0000    Z=             -0.0000  Tot=              0.5498
 Quadrupole moment (field-independent basis, Debye-Ang):
   XX=             -7.9969   YY=             -7.6361   ZZ=             -7.6361
   XY=             -0.0000   XZ=             -0.0000   YZ=              0.0000

  Exact polarizability:      38.006      -0.000       2.019      -0.000      -0.000       2.019
 Approx polarizability:      34.941      -0.000       1.924      -0.000       0.000       1.924

 ******    2 imaginary frequencies (negative Signs) ******

                      1                      2                      3
                      A                      A                      A
 Frequencies --   -527.8973              -209.2082               195.6770
 Red. masses --      1.0139                 1.1013                 1.0167
 Frc consts  --      0.1665                 0.0284                 0.0229
 IR Inten    --     25.2960                11.9658                 0.7552

                      4
                      A
 Frequencies --    195.6770
 Red. masses --      1.0167
 Frc consts  --      0.0229
 IR Inten    --      0.7552

 - Thermochemistry -
 -------------------
 Temperature   298.150 Kelvin.  Pressure   1.00000 Atm.
 Atom     1 has atomic number  1 and mass   1.00783

 Molecular mass:    21.01405 amu.
 Principal axes and moments of inertia in atomic units:
                           1         2         3
     Eigenvalues --     0.00000 141.03142 141.03142
           X            1.00000  -0.00000   0.00000
           Y            0.00000   1.00000   0.00000
           Z            0.00000   0.00000   1.00000
 This molecule is a prolate symmetric top.
 Rotational symmetry number  1.
 Rotational temperature (Kelvin)      0.61415
 Rotational constant (GHZ):          12.796731
    2 imaginary frequencies ignored.
 Zero-point vibrational energy       2340.8 (Joules/Mol)
                                    0.55947 (Kcal/Mol)
 Warning -- explicit consideration of   2 degrees of freedom as
           vibrations may cause significant error
 Vibrational temperatures:    281.54   281.54
          (Kelvin)

 Zero-point correction=                           0.000892 (Hartree/Particle)
 Thermal correction to Energy=                    0.004387
 Thermal correction to Enthalpy=                  0.005331
 Thermal correction to Gibbs Free Energy=        -0.020834
 Sum of electronic and zero-point Energies=           -100.761718
 Sum of electronic and thermal Energies=              -100.758222
 Sum of electronic and thermal Enthalpies=            -100.757278
 Sum of electronic and thermal Free Energies=         -100.783444

                     E (Thermal)             CV                S
                      KCal/Mol        Cal/Mol-Kelvin    Cal/Mol-Kelvin
 Total                    2.753              8.660             55.070
 Electronic               0.000              0.000              1.377
 Translational            0.889              2.981             35.068
 Rotational               0.592              1.987             14.278
 Vibrational              1.272              3.692              4.347
 Vibration     1          0.636              1.846              2.173
 Vibration     2          0.636              1.846              2.173

 Normal termination of Gaussian 16 at Fri Aug 22 19:44:30 2025.
