 Gaussian 16, Revision C.01,
 Gaussian 16:  ES64L-G16RevC.01  3-Jul-2019

 -----------------------------------------
 # sp b3lyp/6-311g** Force nosymm scf=(qc)
 -----------------------------------------

 -------------------
 Title Card Required
 -------------------
 Symbolic Z-matrix:
 Charge =  0 Multiplicity = 2

                          Input orientation:
 ---------------------------------------------------------------------
 Center     Atomic      Atomic             Coordinates (Angstroms)
 Number     Number       Type             X           Y           Z
 ---------------------------------------------------------------------
      1          1           0        0.000000    0.000000    0.000000
      2          1           0       -2.900000    0.000000    0.000000
      3          9           0        3.350000    0.000000    0.000000
 ---------------------------------------------------------------------

 SCF Done:  E(UB3LYP) =  -100.760672370     a.u. after   24 cycles

 Alpha  occ. eigenvalues --  -24.75122  -1.21104  -0.54243  -0.45544  -0.45544
 Alpha  occ. eigenvalues --   -0.32545
 Alpha virt. eigenvalues --   -0.08537   0.25052   0.35335   0.88130   0.91644
 Alpha virt. eigenvalues --    0.91644   1.02267   1.25005   1.25005   1.25948
 Alpha virt. eigenvalues --    1.43121   1.43121   1.43293   2.15779   2.39088

  Beta  occ. eigenvalues --  -24.72025  -1.12212  -0.42441  -0.42441  -0.33089
  Beta virt. eigenvalues --   -0.25350  -0.07807   0.24853   0.36407   0.93128
  Beta virt. eigenvalues --    0.93128   0.97183   1.06238   1.24366   1.24366
  Beta virt. eigenvalues --    1.25244   1.44289   1.44289   1.44406   2.16265

 Mulliken charges and spin densities:
               1          2
     1  H    0.015488  -0.971852
     2  H    0.001142   0.990235
     3  F   -0.016630   0.981617
 Sum of Mulliken charges =  -0.00000   1.00000

 Dipole moment (field-independent basis, Debye):
    X=             -0.3021    Y=              0.0000    Z=              0.0000  Tot=              0.3021
 Quadrupole moment (field-independent basis, Debye-Ang):
   XX=             -7.5152   YY=             -7.6366   ZZ=             -7.6366
   XY=             -0.0000   XZ=             -0.0000   YZ=             -0.0000

  Exact polarizability:      31.005      -0.000       2.026       0.000      -0.000       2.026
 Approx polarizability:      25.312      -0.000       1.929      -0.000       0.000       1.929

 ******    2 imaginary frequencies (negative Signs) ******

                      1                      2                      3
                      A                      A                      A
 Frequencies --   -415.7482              -155.0474               147.3355
 Red. masses --      1.0116                 1.1040                 1.0163
 Frc consts  --      0.1030                 0.0156                 0.0130
 IR Inten    --     12.2929                 6.4380                 0.2010

                      4
                      A
 Frequencies --    147.3355
 Red. masses --      1.0163
 Frc consts  --      0.0130
 IR Inten    --      0.2010

 - Thermochemistry -
 -------------------
 Temperature   298.150 Kelvin.  Pressure   1.00000 Atm.
 Atom     1 has atomic number  1 and mass   1.00783

 Molecular mass:    21.01405 amu.
 Principal axes and moments of inertia in atomic units:
                           1         2         3
     Eigenvalues --     0.00000 165.06869 165.06869
           X            1.00000  -0.00000   0.00000
           Y            0.00000   1.00000   0.00000
           Z            0.00000   0.00000   1.00000
 This molecule is a prolate symmetric top.
 Rotational symmetry number  1.
 Rotational temperature (Kelvin)      0.52471
 Rotational constant (GHZ):          10.933274
    2 imaginary frequencies ignored.
 Zero-point vibrational energy       1762.5 (Joules/Mol)
                                    0.42125 (Kcal/Mol)
 Warning -- explicit consideration of   2 degrees of freedom as
           vibrations may cause significant error
 Vibrational temperatures:    211.98   211.98
          (Kelvin)

 Zero-point correction=                           0.000671 (Hartree/Particle)
 Thermal correction to Energy=                    0.004328
 Thermal correction to Enthalpy=                  0.005272
 Thermal correction to Gibbs Free Energy=        -0.021549
 Sum of electronic and zero-point Energies=           -100.760001
 Sum of electronic and thermal Energies=              -100.756345
 Sum of electronic and thermal Enthalpies=            -100.755400
 Sum of electronic and thermal Free Energies=         -100.782221

                     E (Thermal)             CV                S
                      KCal/Mol        Cal/Mol-Kelvin    Cal/Mol-Kelvin
 Total                    2.716              8.779             56.449
 Electronic               0.000              0.000              1.377
 Translational            0.889              2.981             35.068
 Rotational               0.592              1.987             14.591
 Vibrational              1.234              3.811              5.413
 Vibration     1          0.617              1.906              2.706
 Vibration     2          0.617              1.906              2.706

 Normal termination of Gaussian 16 at Fri Aug 22 21:02:26 2025.
