 Gaussian 16, Revision C.01,
 Gaussian 16:  ES64L-G16RevC.01  3-Jul-2019

 -----------------------------------------
 # sp b3lyp/6-311g** Force nosymm scf=(qc)
 -----------------------------------------

 -------------------
 Title Card Required
 -------------------
 Symbolic Z-matrix:
 Charge =  0 Multiplicity = 2

                          Input orientation:
 ---------------------------------------------------------------------
 Center     Atomic      Atomic             Coordinates (Angstroms)
 Number     Number       Type             X           Y           Z
 ---------------------------------------------------------------------
      1          1           0        0.000000    0.000000    0.000000
      2          1           0       -1.300000    0.000000    0.000000
      3          9           0        0.900000    0.000000    0.000000
 ---------------------------------------------------------------------

 SCF Done:  E(UB3LYP) =  -100.966598228     a.u. after    6 cycles

 Alpha  occ. eigenvalues --  -24.63749  -1.19255  -0.56132  -0.39555  -0.39555
 Alpha  occ. eigenvalues --   -0.36729
 Alpha virt. eigenvalues --    0.12210   0.20049   0.42150   0.93403   0.93403
 Alpha virt. eigenvalues --    0.97478   1.11937   1.11937   1.32380   1.48522
 Alpha virt. eigenvalues --    1.48522   1.56109   2.12421   2.24170   2.80141

  Beta  occ. eigenvalues --  -24.63390  -1.18339  -0.53717  -0.39245  -0.39245
  Beta virt. eigenvalues --   -0.15867   0.13932   0.25358   0.46919   0.93948
  Beta virt. eigenvalues --    0.93948   0.98214   1.21012   1.21012   1.38357
  Beta virt. eigenvalues --    1.54185   1.54185   1.61638   2.17907   2.36402

 Mulliken charges and spin densities:
               1          2
     1  H    0.272684   0.001714
     2  H    0.024842   0.912935
     3  F   -0.297526   0.085351
 Sum of Mulliken charges =   0.00000   1.00000

 Dipole moment (field-independent basis, Debye):
    X=             -2.0210    Y=             -0.0000    Z=             -0.0000  Tot=              2.0210
 Quadrupole moment (field-independent basis, Debye-Ang):
   XX=             -7.5108   YY=             -6.7088   ZZ=             -6.7088
   XY=             -0.0000   XZ=             -0.0000   YZ=             -0.0000

  Exact polarizability:      11.324       0.000       2.564       0.000       0.000       2.564
 Approx polarizability:      11.948       0.000       2.577       0.000       0.000       2.577

 ******    2 imaginary frequencies (negative Signs) ******

                      1                      2                      3
                      A                      A                      A
 Frequencies --   -866.9640              -866.9640               852.9358
 Red. masses --      1.0230                 1.0230                 1.0509
 Frc consts  --      0.4530                 0.4530                 0.4504
 IR Inten    --    100.9607               100.9607                 7.9574

                      4
                      A
 Frequencies --   4214.8189
 Red. masses --      1.0607
 Frc consts  --     11.1022
 IR Inten    --    153.0728

 - Thermochemistry -
 -------------------
 Temperature   298.150 Kelvin.  Pressure   1.00000 Atm.
 Atom     1 has atomic number  1 and mass   1.00783

 Molecular mass:    21.01405 amu.
 Principal axes and moments of inertia in atomic units:
                           1         2         3
     Eigenvalues --     0.00000  18.67565  18.67565
           X            1.00000  -0.00000   0.00000
           Y            0.00000   1.00000   0.00000
           Z            0.00000   0.00000   1.00000
 This molecule is a prolate symmetric top.
 Rotational symmetry number  1.
 Rotational temperature (Kelvin)      4.63780
 Rotational constant (GHZ):          96.636080
    2 imaginary frequencies ignored.
 Zero-point vibrational energy      30311.9 (Joules/Mol)
                                    7.24472 (Kcal/Mol)
 Vibrational temperatures:   1227.18  6064.18
          (Kelvin)

 Zero-point correction=                           0.011545 (Hartree/Particle)
 Thermal correction to Energy=                    0.013970
 Thermal correction to Enthalpy=                  0.014914
 Thermal correction to Gibbs Free Energy=        -0.007357
 Sum of electronic and zero-point Energies=           -100.955053
 Sum of electronic and thermal Energies=              -100.952628
 Sum of electronic and thermal Enthalpies=            -100.951684
 Sum of electronic and thermal Free Energies=         -100.973955

                     E (Thermal)             CV                S
                      KCal/Mol        Cal/Mol-Kelvin    Cal/Mol-Kelvin
 Total                    8.766              5.535             46.874
 Electronic               0.000              0.000              1.377
 Translational            0.889              2.981             35.068
 Rotational               0.592              1.987             10.261
 Vibrational              7.285              0.567              0.168

 Normal termination of Gaussian 16 at Fri Aug 22 15:55:20 2025.
