 Gaussian 16, Revision C.01,
 Gaussian 16:  ES64L-G16RevC.01  3-Jul-2019

 -----------------------------------------
 # sp b3lyp/6-311g** Force nosymm scf=(qc)
 -----------------------------------------

 -------------------
 Title Card Required
 -------------------
 Symbolic Z-matrix:
 Charge =  0 Multiplicity = 2

                          Input orientation:
 ---------------------------------------------------------------------
 Center     Atomic      Atomic             Coordinates (Angstroms)
 Number     Number       Type             X           Y           Z
 ---------------------------------------------------------------------
      1          1           0        0.000000    0.000000    0.000000
      2          1           0       -0.600000    0.000000    0.000000
      3          9           0        3.150000    0.000000    0.000000
 ---------------------------------------------------------------------

 SCF Done:  E(UB3LYP) =  -100.915077829     a.u. after    6 cycles

 Alpha  occ. eigenvalues --  -24.76509  -1.22323  -0.55520  -0.46961  -0.46670
 Alpha  occ. eigenvalues --   -0.46251
 Alpha virt. eigenvalues --    0.08671   0.18987   0.51995   0.85931   0.90805
 Alpha virt. eigenvalues --    0.93904   1.05143   1.10305   1.10311   1.61109
 Alpha virt. eigenvalues --    1.83397   1.92853   1.92860   2.37485   3.64728

  Beta  occ. eigenvalues --  -24.73348  -1.13238  -0.46532  -0.43508  -0.43501
  Beta virt. eigenvalues --   -0.26146   0.08717   0.19012   0.52103   0.92304
  Beta virt. eigenvalues --    0.95390   0.95683   1.08830   1.10304   1.10310
  Beta virt. eigenvalues --    1.61126   1.83440   1.92852   1.92859   2.37489

 Mulliken charges and spin densities:
               1          2
     1  H   -0.006329  -0.001244
     2  H   -0.001927   0.000178
     3  F    0.008256   1.001066
 Sum of Mulliken charges =   0.00000   1.00000

 Dipole moment (field-independent basis, Debye):
    X=              0.0782    Y=              0.0000    Z=             -0.0000  Tot=              0.0782
 Quadrupole moment (field-independent basis, Debye-Ang):
   XX=             -6.0413   YY=             -6.7442   ZZ=             -5.8805
   XY=              0.0000   XZ=             -0.0000   YZ=             -0.0010

  Exact polarizability:       6.734       0.000       1.871      -0.000      -0.001       2.333
 Approx polarizability:       7.264       0.000       1.954       0.000      -0.001       2.533

 ******    2 imaginary frequencies (negative Signs) ******

                      1                      2                      3
                      A                      A                      A
 Frequencies --  -2757.6817             -2757.0383                51.3634
 Red. masses --      1.0086                 1.0086                 1.1085
 Frc consts  --      4.5191                 4.5170                 0.0017
 IR Inten    --      0.0259                 0.0236                 0.1688

                      4
                      A
 Frequencies --   7042.3160
 Red. masses --      1.0078
 Frc consts  --     29.4487
 IR Inten    --      0.1846

 - Thermochemistry -
 -------------------
 Temperature   298.150 Kelvin.  Pressure   1.00000 Atm.
 Atom     1 has atomic number  1 and mass   1.00783

 Molecular mass:    21.01405 amu.
 Principal axes and moments of inertia in atomic units:
                           1         2         3
     Eigenvalues --     0.00000  78.10440  78.10440
           X            1.00000  -0.00000   0.00000
           Y            0.00000   1.00000   0.00000
           Z            0.00000   0.00000   1.00000
 This molecule is a prolate symmetric top.
 Rotational symmetry number  1.
 Rotational temperature (Kelvin)      1.10895
 Rotational constant (GHZ):          23.106779
    2 imaginary frequencies ignored.
 Zero-point vibrational energy      42429.6 (Joules/Mol)
                                   10.14092 (Kcal/Mol)
 Warning -- explicit consideration of   1 degrees of freedom as
           vibrations may cause significant error
 Vibrational temperatures:     73.90 10132.32
          (Kelvin)

 Zero-point correction=                           0.016161 (Hartree/Particle)
 Thermal correction to Energy=                    0.019353
 Thermal correction to Enthalpy=                  0.020297
 Thermal correction to Gibbs Free Energy=        -0.005509
 Sum of electronic and zero-point Energies=           -100.898917
 Sum of electronic and thermal Energies=              -100.895725
 Sum of electronic and thermal Enthalpies=            -100.894781
 Sum of electronic and thermal Free Energies=         -100.920587

                     E (Thermal)             CV                S
                      KCal/Mol        Cal/Mol-Kelvin    Cal/Mol-Kelvin
 Total                   12.144              6.945             54.314
 Electronic               0.000              0.000              1.377
 Translational            0.889              2.981             35.068
 Rotational               0.592              1.987             13.104
 Vibrational             10.663              1.977              4.764
 Vibration     1          0.596              1.977              4.764

 Normal termination of Gaussian 16 at Fri Aug 22 19:57:51 2025.
