 Gaussian 16, Revision C.01,
 Gaussian 16:  ES64L-G16RevC.01  3-Jul-2019

 -----------------------------------------
 # sp b3lyp/6-311g** Force nosymm scf=(qc)
 -----------------------------------------

 -------------------
 Title Card Required
 -------------------
 Symbolic Z-matrix:
 Charge =  0 Multiplicity = 2

                          Input orientation:
 ---------------------------------------------------------------------
 Center     Atomic      Atomic             Coordinates (Angstroms)
 Number     Number       Type             X           Y           Z
 ---------------------------------------------------------------------
      1          1           0        0.000000    0.000000    0.000000
      2          1           0       -1.250000    0.000000    0.000000
      3          9           0        3.500000    0.000000    0.000000
 ---------------------------------------------------------------------

 SCF Done:  E(UB3LYP) =  -100.862821656     a.u. after  362 cycles

 Alpha  occ. eigenvalues --  -24.76381  -1.22253  -0.55452  -0.46648  -0.46606
 Alpha  occ. eigenvalues --   -0.35761
 Alpha virt. eigenvalues --   -0.05102   0.23212   0.33392   0.85947   0.90823
 Alpha virt. eigenvalues --    0.92158   1.01384   1.14140   1.14143   1.18838
 Alpha virt. eigenvalues --    1.51895   1.51898   2.03145   2.30379   2.53965

  Beta  occ. eigenvalues --  -24.73224  -1.13176  -0.43483  -0.43441  -0.35759
  Beta virt. eigenvalues --   -0.26094  -0.05097   0.23221   0.33424   0.92323
  Beta virt. eigenvalues --    0.93663   0.95411   1.05484   1.14140   1.14143
  Beta virt. eigenvalues --    1.18847   1.51894   1.51898   2.03150   2.30381

 Mulliken charges and spin densities:
               1          2
     1  H    0.000226  -0.000123
     2  H   -0.003201  -0.000226
     3  F    0.002974   1.000350
 Sum of Mulliken charges =  -0.00000   1.00000

 Dipole moment (field-independent basis, Debye):
    X=              0.0485    Y=             -0.0000    Z=             -0.0000  Tot=              0.0485
 Quadrupole moment (field-independent basis, Debye-Ang):
   XX=             -6.2566   YY=             -6.6822   ZZ=             -7.5464
   XY=              0.0000   XZ=              0.0000   YZ=              0.0048

  Exact polarizability:      17.108       0.000       2.541       0.000       0.003       2.076
 Approx polarizability:      26.698       0.000       2.679       0.000       0.003       2.097

 ******    2 imaginary frequencies (negative Signs) ******

                      1                      2                      3
                      A                      A                      A
 Frequencies --   -789.2048               -44.2299              1434.0575
 Red. masses --      1.0078                 1.1085                 1.0101
 Frc consts  --      0.3698                 0.0013                 1.2239
 IR Inten    --      0.2043                 0.1736                 0.0014

                      4
                      A
 Frequencies --   1434.8082
 Red. masses --      1.0101
 Frc consts  --      1.2252
 IR Inten    --      0.0013

 - Thermochemistry -
 -------------------
 Temperature   298.150 Kelvin.  Pressure   1.00000 Atm.
 Atom     1 has atomic number  1 and mass   1.00783

 Molecular mass:    21.01405 amu.
 Principal axes and moments of inertia in atomic units:
                           1         2         3
     Eigenvalues --     0.00000 113.54243 113.54243
           X            1.00000  -0.00000   0.00000
           Y            0.00000   1.00000   0.00000
           Z            0.00000   0.00000   1.00000
 This molecule is a prolate symmetric top.
 Rotational symmetry number  1.
 Rotational temperature (Kelvin)      0.76283
 Rotational constant (GHZ):          15.894862
    2 imaginary frequencies ignored.
 Zero-point vibrational energy      17159.6 (Joules/Mol)
                                    4.10125 (Kcal/Mol)
 Vibrational temperatures:   2063.29  2064.37
          (Kelvin)

 Zero-point correction=                           0.006536 (Hartree/Particle)
 Thermal correction to Energy=                    0.008909
 Thermal correction to Enthalpy=                  0.009853
 Thermal correction to Gibbs Free Energy=        -0.014057
 Sum of electronic and zero-point Energies=           -100.856286
 Sum of electronic and thermal Energies=              -100.853913
 Sum of electronic and thermal Enthalpies=            -100.852968
 Sum of electronic and thermal Free Energies=         -100.876879

                     E (Thermal)             CV                S
                      KCal/Mol        Cal/Mol-Kelvin    Cal/Mol-Kelvin
 Total                    5.591              5.156             50.324
 Electronic               0.000              0.000              1.377
 Translational            0.889              2.981             35.068
 Rotational               0.592              1.987             13.847
 Vibrational              4.109              0.188              0.031

 Normal termination of Gaussian 16 at Fri Aug 22 21:58:00 2025.
