 Gaussian 16, Revision C.01,
 Gaussian 16:  ES64L-G16RevC.01  3-Jul-2019

 -----------------------------------------
 # sp b3lyp/6-311g** Force nosymm scf=(qc)
 -----------------------------------------

 -------------------
 Title Card Required
 -------------------
 Symbolic Z-matrix:
 Charge =  0 Multiplicity = 2

                          Input orientation:
 ---------------------------------------------------------------------
 Center     Atomic      Atomic             Coordinates (Angstroms)
 Number     Number       Type             X           Y           Z
 ---------------------------------------------------------------------
      1          1           0        0.000000    0.000000    0.000000
      2          1           0       -0.600000    0.000000    0.000000
      3          9           0        1.500000    0.000000    0.000000
 ---------------------------------------------------------------------

 SCF Done:  E(UB3LYP) =  -100.912478619     a.u. after    6 cycles

 Alpha  occ. eigenvalues --  -24.72150  -1.19216  -0.58255  -0.44423  -0.43573
 Alpha  occ. eigenvalues --   -0.43573
 Alpha virt. eigenvalues --    0.11431   0.19628   0.50213   0.88435   0.88435
 Alpha virt. eigenvalues --    0.96767   1.10692   1.10692   1.34655   1.66432
 Alpha virt. eigenvalues --    1.84612   1.91591   1.91591   2.47190   3.66501

  Beta  occ. eigenvalues --  -24.69357  -1.11535  -0.50716  -0.40854  -0.40854
  Beta virt. eigenvalues --   -0.23269   0.12316   0.20359   0.52404   0.89656
  Beta virt. eigenvalues --    0.89656   1.03183   1.12568   1.12568   1.38467
  Beta virt. eigenvalues --    1.69032   1.85535   1.92619   1.92619   2.49726

 Mulliken charges and spin densities:
               1          2
     1  H    0.120637  -0.027936
     2  H   -0.000722   0.185210
     3  F   -0.119915   0.842726
 Sum of Mulliken charges =   0.00000   1.00000

 Dipole moment (field-independent basis, Debye):
    X=             -0.8779    Y=             -0.0000    Z=              0.0000  Tot=              0.8779
 Quadrupole moment (field-independent basis, Debye-Ang):
   XX=             -6.6167   YY=             -6.6096   ZZ=             -6.6096
   XY=              0.0000   XZ=              0.0000   YZ=              0.0000

  Exact polarizability:      15.415      -0.000       2.241      -0.000      -0.000       2.241
 Approx polarizability:      18.293      -0.000       2.297      -0.000      -0.000       2.297

 ******    2 imaginary frequencies (negative Signs) ******

                      1                      2                      3
                      A                      A                      A
 Frequencies --  -2926.5663             -2926.5663               477.2550
 Red. masses --      1.0106                 1.0106                 1.1085
 Frc consts  --      5.0995                 5.0995                 0.1488
 IR Inten    --      0.1121                 0.1121                58.6367

                      4
                      A
 Frequencies --   6867.0231
 Red. masses --      1.0079
 Frc consts  --     28.0017
 IR Inten    --    496.8014

 - Thermochemistry -
 -------------------
 Temperature   298.150 Kelvin.  Pressure   1.00000 Atm.
 Atom     1 has atomic number  1 and mass   1.00783

 Molecular mass:    21.01405 amu.
 Principal axes and moments of inertia in atomic units:
                           1         2         3
     Eigenvalues --     0.00000  21.73241  21.73241
           X            1.00000  -0.00000   0.00000
           Y            0.00000   1.00000   0.00000
           Z            0.00000   0.00000   1.00000
 This molecule is a prolate symmetric top.
 Rotational symmetry number  1.
 Rotational temperature (Kelvin)      3.98547
 Rotational constant (GHZ):          83.043763
    2 imaginary frequencies ignored.
 Zero-point vibrational energy      43928.5 (Joules/Mol)
                                   10.49917 (Kcal/Mol)
 Warning -- explicit consideration of   1 degrees of freedom as
           vibrations may cause significant error
 Vibrational temperatures:    686.66  9880.11
          (Kelvin)

 Zero-point correction=                           0.016731 (Hartree/Particle)
 Thermal correction to Energy=                    0.019333
 Thermal correction to Enthalpy=                  0.020278
 Thermal correction to Gibbs Free Energy=        -0.002398
 Sum of electronic and zero-point Energies=           -100.895747
 Sum of electronic and thermal Energies=              -100.893145
 Sum of electronic and thermal Enthalpies=            -100.892201
 Sum of electronic and thermal Free Energies=         -100.914877

                     E (Thermal)             CV                S
                      KCal/Mol        Cal/Mol-Kelvin    Cal/Mol-Kelvin
 Total                   12.132              6.269             47.725
 Electronic               0.000              0.000              1.377
 Translational            0.889              2.981             35.068
 Rotational               0.592              1.987             10.562
 Vibrational             10.651              1.301              0.718
 Vibration     1          0.834              1.301              0.718

 Normal termination of Gaussian 16 at Fri Aug 22 16:24:18 2025.
