 Gaussian 16, Revision C.01,
 Gaussian 16:  ES64L-G16RevC.01  3-Jul-2019

 -----------------------------------------
 # sp b3lyp/6-311g** Force nosymm scf=(qc)
 -----------------------------------------

 -------------------
 Title Card Required
 -------------------
 Symbolic Z-matrix:
 Charge =  0 Multiplicity = 2

                          Input orientation:
 ---------------------------------------------------------------------
 Center     Atomic      Atomic             Coordinates (Angstroms)
 Number     Number       Type             X           Y           Z
 ---------------------------------------------------------------------
      1          1           0        0.000000    0.000000    0.000000
      2          1           0       -1.500000    0.000000    0.000000
      3          9           0        0.550000    0.000000    0.000000
 ---------------------------------------------------------------------

 SCF Done:  E(UB3LYP) =  -100.511161388     a.u. after    7 cycles

 Alpha  occ. eigenvalues --  -24.62967  -1.38974  -0.63053  -0.43931  -0.43931
 Alpha  occ. eigenvalues --   -0.35480
 Alpha virt. eigenvalues --    0.14243   0.21984   0.62319   0.90585   0.90585
 Alpha virt. eigenvalues --    0.90757   1.18635   1.18635   1.42642   1.57650
 Alpha virt. eigenvalues --    1.57650   1.67198   1.97509   2.23667   3.76934

  Beta  occ. eigenvalues --  -24.62873  -1.38669  -0.62637  -0.43871  -0.43871
  Beta virt. eigenvalues --   -0.11127   0.15334   0.30919   0.67194   0.90763
  Beta virt. eigenvalues --    0.90763   0.90927   1.34076   1.34076   1.45771
  Beta virt. eigenvalues --    1.60677   1.60677   1.79409   1.97372   2.48027

 Mulliken charges and spin densities:
               1          2
     1  H    0.179236   0.015707
     2  H    0.009092   0.979637
     3  F   -0.188329   0.004656
 Sum of Mulliken charges =   0.00000   1.00000

 Dipole moment (field-independent basis, Debye):
    X=             -1.3476    Y=             -0.0000    Z=             -0.0000  Tot=              1.3476
 Quadrupole moment (field-independent basis, Debye-Ang):
   XX=             -6.7373   YY=             -6.4210   ZZ=             -6.4210
   XY=             -0.0000   XZ=             -0.0000   YZ=             -0.0000

  Exact polarizability:       5.883       0.000       2.497       0.000       0.000       2.497
 Approx polarizability:       5.578      -0.000       2.513       0.000       0.000       2.513

 ******    2 imaginary frequencies (negative Signs) ******

                      1                      2                      3
                      A                      A                      A
 Frequencies --  -7337.0991             -7337.0991               943.3441
 Red. masses --      1.0331                 1.0331                 1.0534
 Frc consts  --     32.7666                32.7666                 0.5523
 IR Inten    --    189.8114               189.8114                 7.2561

                      4
                      A
 Frequencies --  15779.5859
 Red. masses --      1.0581
 Frc consts  --    155.2329
 IR Inten    --     91.5125

 - Thermochemistry -
 -------------------
 Temperature   298.150 Kelvin.  Pressure   1.00000 Atm.
 Atom     1 has atomic number  1 and mass   1.00783

 Molecular mass:    21.01405 amu.
 Principal axes and moments of inertia in atomic units:
                           1         2         3
     Eigenvalues --     0.00000  15.04671  15.04671
           X            1.00000  -0.00000   0.00000
           Y            0.00000   1.00000   0.00000
           Z            0.00000   0.00000   1.00000
 This molecule is a prolate symmetric top.
 Rotational symmetry number  1.
 Rotational temperature (Kelvin)      5.75634
 Rotational constant (GHZ):         119.942573
    2 imaginary frequencies ignored.
 Zero-point vibrational energy     100025.3 (Joules/Mol)
                                   23.90663 (Kcal/Mol)
 Vibrational temperatures:   1357.26 22703.30
          (Kelvin)

 Zero-point correction=                           0.038098 (Hartree/Particle)
 Thermal correction to Energy=                    0.040504
 Thermal correction to Enthalpy=                  0.041448
 Thermal correction to Gibbs Free Energy=         0.019405
 Sum of electronic and zero-point Energies=           -100.473064
 Sum of electronic and thermal Energies=              -100.470657
 Sum of electronic and thermal Enthalpies=            -100.469713
 Sum of electronic and thermal Free Energies=         -100.491757

                     E (Thermal)             CV                S
                      KCal/Mol        Cal/Mol-Kelvin    Cal/Mol-Kelvin
 Total                   25.417              5.411             46.394
 Electronic               0.000              0.000              1.377
 Translational            0.889              2.981             35.068
 Rotational               0.592              1.987              9.831
 Vibrational             23.935              0.443              0.117

 Normal termination of Gaussian 16 at Fri Aug 22 15:39:00 2025.
