 Gaussian 16, Revision C.01,
 Gaussian 16:  ES64L-G16RevC.01  3-Jul-2019

 -----------------------------------------
 # sp b3lyp/6-311g** Force nosymm scf=(qc)
 -----------------------------------------

 -------------------
 Title Card Required
 -------------------
 Symbolic Z-matrix:
 Charge =  0 Multiplicity = 2

                          Input orientation:
 ---------------------------------------------------------------------
 Center     Atomic      Atomic             Coordinates (Angstroms)
 Number     Number       Type             X           Y           Z
 ---------------------------------------------------------------------
      1          1           0        0.000000    0.000000    0.000000
      2          1           0       -2.700000    0.000000    0.000000
      3          9           0        3.900000    0.000000    0.000000
 ---------------------------------------------------------------------

 SCF Done:  E(UB3LYP) =  -100.760877430     a.u. after   37 cycles

 Alpha  occ. eigenvalues --  -24.75849  -1.21779  -0.54974  -0.46158  -0.46158
 Alpha  occ. eigenvalues --   -0.32445
 Alpha virt. eigenvalues --   -0.08556   0.25535   0.35456   0.86682   0.91187
 Alpha virt. eigenvalues --    0.91187   1.01142   1.25141   1.25141   1.26474
 Alpha virt. eigenvalues --    1.42982   1.42982   1.43606   2.16077   2.38147

  Beta  occ. eigenvalues --  -24.72707  -1.12742  -0.43007  -0.43007  -0.32619
  Beta virt. eigenvalues --   -0.25723  -0.08319   0.25369   0.35774   0.92685
  Beta virt. eigenvalues --    0.92685   0.96042   1.05263   1.24950   1.24950
  Beta virt. eigenvalues --    1.26260   1.43331   1.43331   1.43953   2.16167

 Mulliken charges and spin densities:
               1          2
     1  H    0.002514  -0.979246
     2  H    0.000638   0.982806
     3  F   -0.003151   0.996440
 Sum of Mulliken charges =   0.00000   1.00000

 Dipole moment (field-independent basis, Debye):
    X=             -0.0716    Y=              0.0000    Z=             -0.0000  Tot=              0.0716
 Quadrupole moment (field-independent basis, Debye-Ang):
   XX=             -6.8134   YY=             -7.6518   ZZ=             -7.6518
   XY=             -0.0000   XZ=              0.0000   YZ=             -0.0000

  Exact polarizability:      18.238      -0.000       2.025       0.000      -0.000       2.025
 Approx polarizability:      13.649      -0.000       1.932       0.000       0.000       1.932

 ******    2 imaginary frequencies (negative Signs) ******

                      1                      2                      3
                      A                      A                      A
 Frequencies --   -498.6607               -80.4402               181.2085
 Red. masses --      1.0079                 1.1084                 1.0141
 Frc consts  --      0.1477                 0.0042                 0.0196
 IR Inten    --      0.9249                 1.0048                 0.0048

                      4
                      A
 Frequencies --    181.2085
 Red. masses --      1.0141
 Frc consts  --      0.0196
 IR Inten    --      0.0048

 - Thermochemistry -
 -------------------
 Temperature   298.150 Kelvin.  Pressure   1.00000 Atm.
 Atom     1 has atomic number  1 and mass   1.00783

 Molecular mass:    21.01405 amu.
 Principal axes and moments of inertia in atomic units:
                           1         2         3
     Eigenvalues --     0.00000 192.48382 192.48382
           X            1.00000  -0.00000   0.00000
           Y            0.00000   1.00000   0.00000
           Z            0.00000   0.00000   1.00000
 This molecule is a prolate symmetric top.
 Rotational symmetry number  1.
 Rotational temperature (Kelvin)      0.44998
 Rotational constant (GHZ):           9.376067
    2 imaginary frequencies ignored.
 Zero-point vibrational energy       2167.7 (Joules/Mol)
                                    0.51810 (Kcal/Mol)
 Warning -- explicit consideration of   2 degrees of freedom as
           vibrations may cause significant error
 Vibrational temperatures:    260.72   260.72
          (Kelvin)

 Zero-point correction=                           0.000826 (Hartree/Particle)
 Thermal correction to Energy=                    0.004368
 Thermal correction to Enthalpy=                  0.005312
 Thermal correction to Gibbs Free Energy=        -0.021283
 Sum of electronic and zero-point Energies=           -100.760052
 Sum of electronic and thermal Energies=              -100.756510
 Sum of electronic and thermal Enthalpies=            -100.755566
 Sum of electronic and thermal Free Energies=         -100.782160

                     E (Thermal)             CV                S
                      KCal/Mol        Cal/Mol-Kelvin    Cal/Mol-Kelvin
 Total                    2.741              8.699             55.974
 Electronic               0.000              0.000              1.377
 Translational            0.889              2.981             35.068
 Rotational               0.592              1.987             14.896
 Vibrational              1.260              3.731              4.632
 Vibration     1          0.630              1.865              2.316
 Vibration     2          0.630              1.865              2.316

 Normal termination of Gaussian 16 at Sat Aug 23 01:25:43 2025.
