 Gaussian 16, Revision C.01,
 Gaussian 16:  ES64L-G16RevC.01  3-Jul-2019

 -----------------------------------------
 # sp b3lyp/6-311g** Force nosymm scf=(qc)
 -----------------------------------------

 -------------------
 Title Card Required
 -------------------
 Symbolic Z-matrix:
 Charge =  0 Multiplicity = 2

                          Input orientation:
 ---------------------------------------------------------------------
 Center     Atomic      Atomic             Coordinates (Angstroms)
 Number     Number       Type             X           Y           Z
 ---------------------------------------------------------------------
      1          1           0        0.000000    0.000000    0.000000
      2          1           0       -0.500000    0.000000    0.000000
      3          9           0        3.900000    0.000000    0.000000
 ---------------------------------------------------------------------

 SCF Done:  E(UB3LYP) =  -100.861454285     a.u. after   28 cycles

 Alpha  occ. eigenvalues --  -24.76180  -1.22065  -0.55269  -0.49315  -0.46440
 Alpha  occ. eigenvalues --   -0.46425
 Alpha virt. eigenvalues --    0.09927   0.18293   0.55842   0.86110   0.90987
 Alpha virt. eigenvalues --    0.92200   1.01363   1.12021   1.12023   1.60970
 Alpha virt. eigenvalues --    1.84288   1.99548   1.99551   2.36060   3.64954

  Beta  occ. eigenvalues --  -24.73024  -1.12990  -0.49314  -0.43276  -0.43261
  Beta virt. eigenvalues --   -0.25916   0.09938   0.18298   0.55888   0.92487
  Beta virt. eigenvalues --    0.93688   0.95575   1.05469   1.12021   1.12023
  Beta virt. eigenvalues --    1.60974   1.84300   1.99548   1.99551   2.36060

 Mulliken charges and spin densities:
               1          2
     1  H   -0.000828  -0.000297
     2  H   -0.001154   0.000084
     3  F    0.001982   1.000213
 Sum of Mulliken charges =   0.00000   1.00000

 Dipole moment (field-independent basis, Debye):
    X=              0.0253    Y=              0.0000    Z=             -0.0000  Tot=              0.0253
 Quadrupole moment (field-independent basis, Debye-Ang):
   XX=             -6.1867   YY=             -6.4257   ZZ=             -5.8826
   XY=              0.0000   XZ=             -0.0000   YZ=             -0.3363

  Exact polarizability:       5.287       0.000       1.885      -0.000      -0.181       2.178
 Approx polarizability:       5.612      -0.000       1.988       0.000      -0.227       2.354

 ******    3 imaginary frequencies (negative Signs) ******

                      1                      2                      3
                      A                      A                      A
 Frequencies --  -4835.5852             -4835.1019               -49.3712
 Red. masses --      1.0082                 1.0082                 1.1085
 Frc consts  --     13.8896                13.8869                 0.0016
 IR Inten    --      0.0009                 0.0008                 0.0608

                      4
                      A
 Frequencies --   9960.6002
 Red. masses --      1.0078
 Frc consts  --     58.9124
 IR Inten    --      0.0260

 - Thermochemistry -
 -------------------
 Temperature   298.150 Kelvin.  Pressure   1.00000 Atm.
 Atom     1 has atomic number  1 and mass   1.00783

 Molecular mass:    21.01405 amu.
 Principal axes and moments of inertia in atomic units:
                           1         2         3
     Eigenvalues --     0.00000 112.52683 112.52683
           X            1.00000  -0.00000   0.00000
           Y            0.00000   1.00000   0.00000
           Z            0.00000   0.00000   1.00000
 This molecule is a prolate symmetric top.
 Rotational symmetry number  1.
 Rotational temperature (Kelvin)      0.76972
 Rotational constant (GHZ):          16.038318
    3 imaginary frequencies ignored.
 Zero-point vibrational energy      59577.6 (Joules/Mol)
                                   14.23939 (Kcal/Mol)
 Vibrational temperatures:  14331.08
          (Kelvin)

 Zero-point correction=                           0.022692 (Hartree/Particle)
 Thermal correction to Energy=                    0.025052
 Thermal correction to Enthalpy=                  0.025997
 Thermal correction to Gibbs Free Energy=         0.002109
 Sum of electronic and zero-point Energies=           -100.838762
 Sum of electronic and thermal Energies=              -100.836402
 Sum of electronic and thermal Enthalpies=            -100.835458
 Sum of electronic and thermal Free Energies=         -100.859345

                     E (Thermal)             CV                S
                      KCal/Mol        Cal/Mol-Kelvin    Cal/Mol-Kelvin
 Total                   15.721              4.968             50.275
 Electronic               0.000              0.000              1.377
 Translational            0.889              2.981             35.068
 Rotational               0.592              1.987             13.830
 Vibrational             14.239              0.000              0.000

 Normal termination of Gaussian 16 at Sat Aug 23 01:12:14 2025.
