 Gaussian 16, Revision C.01,
 Gaussian 16:  ES64L-G16RevC.01  3-Jul-2019

 -----------------------------------------
 # sp b3lyp/6-311g** Force nosymm scf=(qc)
 -----------------------------------------

 -------------------
 Title Card Required
 -------------------
 Symbolic Z-matrix:
 Charge =  0 Multiplicity = 2

                          Input orientation:
 ---------------------------------------------------------------------
 Center     Atomic      Atomic             Coordinates (Angstroms)
 Number     Number       Type             X           Y           Z
 ---------------------------------------------------------------------
      1          1           0        0.000000    0.000000    0.000000
      2          1           0       -2.550000    0.000000    0.000000
      3          9           0        2.150000    0.000000    0.000000
 ---------------------------------------------------------------------

 SCF Done:  E(UB3LYP) =  -100.781884633     a.u. after   17 cycles

 Alpha  occ. eigenvalues --  -24.69336  -1.15647  -0.48378  -0.40683  -0.40683
 Alpha  occ. eigenvalues --   -0.34403
 Alpha virt. eigenvalues --   -0.13202   0.24179   0.31976   0.88944   0.94679
 Alpha virt. eigenvalues --    0.94679   1.06382   1.23231   1.23231   1.25991
 Alpha virt. eigenvalues --    1.36113   1.36113   1.53155   2.14209   2.30333

  Beta  occ. eigenvalues --  -24.66765  -1.08406  -0.38137  -0.38137  -0.36903
  Beta virt. eigenvalues --   -0.21726  -0.09641   0.25174   0.34874   0.92277
  Beta virt. eigenvalues --    0.95685   0.95685   1.08786   1.21835   1.21835
  Beta virt. eigenvalues --    1.41696   1.41696   1.42194   1.45956   2.13218

 Mulliken charges and spin densities:
               1          2
     1  H    0.140275  -0.783371
     2  H    0.014048   0.973897
     3  F   -0.154322   0.809474
 Sum of Mulliken charges =   0.00000   1.00000

 Dipole moment (field-independent basis, Debye):
    X=             -1.8294    Y=              0.0000    Z=             -0.0000  Tot=              1.8294
 Quadrupole moment (field-independent basis, Debye-Ang):
   XX=             -9.3380   YY=             -7.5523   ZZ=             -7.5523
   XY=              0.0000   XZ=             -0.0000   YZ=             -0.0000

  Exact polarizability:      38.592      -0.000       2.038       0.000       0.000       2.038
 Approx polarizability:      45.770      -0.000       1.932       0.000      -0.000       1.932

 ******    2 imaginary frequencies (negative Signs) ******

                      1                      2                      3
                      A                      A                      A
 Frequencies --  -1021.6643              -369.3779               424.5176
 Red. masses --      1.0390                 1.0731                 1.0201
 Frc consts  --      0.6390                 0.0863                 0.1083
 IR Inten    --     86.1766                15.4513                16.4648

                      4
                      A
 Frequencies --    424.5176
 Red. masses --      1.0201
 Frc consts  --      0.1083
 IR Inten    --     16.4648

 - Thermochemistry -
 -------------------
 Temperature   298.150 Kelvin.  Pressure   1.00000 Atm.
 Atom     1 has atomic number  1 and mass   1.00783

 Molecular mass:    21.01405 amu.
 Principal axes and moments of inertia in atomic units:
                           1         2         3
     Eigenvalues --     0.00000  88.03937  88.03937
           X            1.00000  -0.00000   0.00000
           Y            0.00000   1.00000   0.00000
           Z            0.00000   0.00000   1.00000
 This molecule is a prolate symmetric top.
 Rotational symmetry number  1.
 Rotational temperature (Kelvin)      0.98381
 Rotational constant (GHZ):          20.499252
    2 imaginary frequencies ignored.
 Zero-point vibrational energy       5078.4 (Joules/Mol)
                                    1.21376 (Kcal/Mol)
 Warning -- explicit consideration of   2 degrees of freedom as
           vibrations may cause significant error
 Vibrational temperatures:    610.79   610.79
          (Kelvin)

 Zero-point correction=                           0.001934 (Hartree/Particle)
 Thermal correction to Energy=                    0.004867
 Thermal correction to Enthalpy=                  0.005811
 Thermal correction to Gibbs Free Energy=        -0.018677
 Sum of electronic and zero-point Energies=           -100.779950
 Sum of electronic and thermal Energies=              -100.777017
 Sum of electronic and thermal Enthalpies=            -100.776073
 Sum of electronic and thermal Free Energies=         -100.800562

                     E (Thermal)             CV                S
                      KCal/Mol        Cal/Mol-Kelvin    Cal/Mol-Kelvin
 Total                    3.054              7.802             51.541
 Electronic               0.000              0.000              1.377
 Translational            0.889              2.981             35.068
 Rotational               0.592              1.987             13.342
 Vibrational              1.573              2.834              1.754
 Vibration     1          0.787              1.417              0.877
 Vibration     2          0.787              1.417              0.877

 Normal termination of Gaussian 16 at Fri Aug 22 17:08:10 2025.
