 Gaussian 16, Revision C.01,
 Gaussian 16:  ES64L-G16RevC.01  3-Jul-2019

 -----------------------------------------
 # sp b3lyp/6-311g** Force nosymm scf=(qc)
 -----------------------------------------

 -------------------
 Title Card Required
 -------------------
 Symbolic Z-matrix:
 Charge =  0 Multiplicity = 2

                          Input orientation:
 ---------------------------------------------------------------------
 Center     Atomic      Atomic             Coordinates (Angstroms)
 Number     Number       Type             X           Y           Z
 ---------------------------------------------------------------------
      1          1           0        0.000000    0.000000    0.000000
      2          1           0       -3.550000    0.000000    0.000000
      3          9           0        3.200000    0.000000    0.000000
 ---------------------------------------------------------------------

 SCF Done:  E(UB3LYP) =  -100.759960892     a.u. after   22 cycles

 Alpha  occ. eigenvalues --  -24.74718  -1.20731  -0.53839  -0.45205  -0.45205
 Alpha  occ. eigenvalues --   -0.32436
 Alpha virt. eigenvalues --   -0.07507   0.24116   0.36477   0.88658   0.91893
 Alpha virt. eigenvalues --    0.91893   1.02871   1.25068   1.25068   1.25197
 Alpha virt. eigenvalues --    1.44684   1.44684   1.44917   2.14848   2.40955

  Beta  occ. eigenvalues --  -24.71647  -1.11920  -0.42129  -0.42129  -0.33293
  Beta virt. eigenvalues --   -0.25128  -0.06445   0.23928   0.37950   0.93368
  Beta virt. eigenvalues --    0.93368   0.97566   1.06738   1.24078   1.24078
  Beta virt. eigenvalues --    1.24248   1.45951   1.46191   1.46191   2.15147

 Mulliken charges and spin densities:
               1          2
     1  H    0.024089  -0.971452
     2  H    0.000282   0.998160
     3  F   -0.024371   0.973292
 Sum of Mulliken charges =  -0.00000   1.00000

 Dipole moment (field-independent basis, Debye):
    X=             -0.4056    Y=             -0.0000    Z=              0.0000  Tot=              0.4056
 Quadrupole moment (field-independent basis, Debye-Ang):
   XX=             -7.9151   YY=             -7.6157   ZZ=             -7.6157
   XY=              0.0000   XZ=             -0.0000   YZ=              0.0000

  Exact polarizability:      29.753       0.000       2.029      -0.000       0.000       2.029
 Approx polarizability:      27.242       0.000       1.930      -0.000      -0.000       1.930

 ******    2 imaginary frequencies (negative Signs) ******

                      1                      2                      3
                      A                      A                      A
 Frequencies --   -309.4193              -108.6171               104.3465
 Red. masses --      1.0420                 1.0699                 1.0193
 Frc consts  --      0.0588                 0.0074                 0.0065
 IR Inten    --     25.9588                 0.7720                 0.5360

                      4
                      A
 Frequencies --    104.3465
 Red. masses --      1.0193
 Frc consts  --      0.0065
 IR Inten    --      0.5360

 - Thermochemistry -
 -------------------
 Temperature   298.150 Kelvin.  Pressure   1.00000 Atm.
 Atom     1 has atomic number  1 and mass   1.00783

 Molecular mass:    21.01405 amu.
 Principal axes and moments of inertia in atomic units:
                           1         2         3
     Eigenvalues --     0.00000 183.74516 183.74516
           X            1.00000  -0.00000   0.00000
           Y            0.00000   1.00000   0.00000
           Z            0.00000   0.00000   1.00000
 This molecule is a prolate symmetric top.
 Rotational symmetry number  1.
 Rotational temperature (Kelvin)      0.47138
 Rotational constant (GHZ):           9.821980
    2 imaginary frequencies ignored.
 Zero-point vibrational energy       1248.3 (Joules/Mol)
                                    0.29834 (Kcal/Mol)
 Warning -- explicit consideration of   2 degrees of freedom as
           vibrations may cause significant error
 Vibrational temperatures:    150.13   150.13
          (Kelvin)

 Zero-point correction=                           0.000475 (Hartree/Particle)
 Thermal correction to Energy=                    0.004289
 Thermal correction to Enthalpy=                  0.005233
 Thermal correction to Gibbs Free Energy=        -0.022321
 Sum of electronic and zero-point Energies=           -100.759485
 Sum of electronic and thermal Energies=              -100.755672
 Sum of electronic and thermal Enthalpies=            -100.754728
 Sum of electronic and thermal Free Energies=         -100.782282

                     E (Thermal)             CV                S
                      KCal/Mol        Cal/Mol-Kelvin    Cal/Mol-Kelvin
 Total                    2.691              8.859             57.992
 Electronic               0.000              0.000              1.377
 Translational            0.889              2.981             35.068
 Rotational               0.592              1.987             14.804
 Vibrational              1.210              3.891              6.743
 Vibration     1          0.605              1.946              3.371
 Vibration     2          0.605              1.946              3.371

 Normal termination of Gaussian 16 at Fri Aug 22 20:24:58 2025.
