 Gaussian 16, Revision C.01,
 Gaussian 16:  ES64L-G16RevC.01  3-Jul-2019

 -----------------------------------------
 # sp b3lyp/6-311g** Force nosymm scf=(qc)
 -----------------------------------------

 -------------------
 Title Card Required
 -------------------
 Symbolic Z-matrix:
 Charge =  0 Multiplicity = 2

                          Input orientation:
 ---------------------------------------------------------------------
 Center     Atomic      Atomic             Coordinates (Angstroms)
 Number     Number       Type             X           Y           Z
 ---------------------------------------------------------------------
      1          1           0        0.000000    0.000000    0.000000
      2          1           0       -1.850000    0.000000    0.000000
      3          9           0        0.800000    0.000000    0.000000
 ---------------------------------------------------------------------

 SCF Done:  E(UB3LYP) =  -100.949877902     a.u. after    6 cycles

 Alpha  occ. eigenvalues --  -24.63437  -1.22882  -0.56348  -0.40454  -0.40454
 Alpha  occ. eigenvalues --   -0.35888
 Alpha virt. eigenvalues --    0.09688   0.23537   0.43777   0.94353   0.94353
 Alpha virt. eigenvalues --    0.97338   1.17295   1.21049   1.21049   1.40526
 Alpha virt. eigenvalues --    1.40526   1.54265   2.00539   2.19174   2.58030

  Beta  occ. eigenvalues --  -24.63372  -1.22709  -0.55982  -0.40401  -0.40401
  Beta virt. eigenvalues --   -0.11776   0.11421   0.33272   0.45106   0.94371
  Beta virt. eigenvalues --    0.94371   0.97578   1.26556   1.37101   1.37101
  Beta virt. eigenvalues --    1.43815   1.43815   1.61716   2.06633   2.34971

 Mulliken charges and spin densities:
               1          2
     1  H    0.258568   0.010093
     2  H    0.014253   0.975597
     3  F   -0.272821   0.014309
 Sum of Mulliken charges =   0.00000   1.00000

 Dipole moment (field-independent basis, Debye):
    X=             -1.8663    Y=             -0.0000    Z=              0.0000  Tot=              1.8663
 Quadrupole moment (field-independent basis, Debye-Ang):
   XX=             -7.2590   YY=             -6.7172   ZZ=             -6.7172
   XY=             -0.0000   XZ=              0.0000   YZ=             -0.0000

  Exact polarizability:       7.930      -0.000       2.511      -0.000       0.000       2.511
 Approx polarizability:       8.002       0.000       2.505      -0.000       0.000       2.505

 ******    2 imaginary frequencies (negative Signs) ******

                      1                      2                      3
                      A                      A                      A
 Frequencies --  -1946.3316             -1946.3316               383.6391
 Red. masses --      1.0304                 1.0304                 1.0532
 Frc consts  --      2.2998                 2.2998                 0.0913
 IR Inten    --    154.4787               154.4787                 0.2427

                      4
                      A
 Frequencies --   6330.2463
 Red. masses --      1.0584
 Frc consts  --     24.9875
 IR Inten    --    170.3353

 - Thermochemistry -
 -------------------
 Temperature   298.150 Kelvin.  Pressure   1.00000 Atm.
 Atom     1 has atomic number  1 and mass   1.00783

 Molecular mass:    21.01405 amu.
 Principal axes and moments of inertia in atomic units:
                           1         2         3
     Eigenvalues --     0.00000  25.52295  25.52295
           X            1.00000  -0.00000   0.00000
           Y            0.00000   1.00000   0.00000
           Z            0.00000   0.00000   1.00000
 This molecule is a prolate symmetric top.
 Rotational symmetry number  1.
 Rotational temperature (Kelvin)      3.39357
 Rotational constant (GHZ):          70.710528
    2 imaginary frequencies ignored.
 Zero-point vibrational energy      40158.0 (Joules/Mol)
                                    9.59798 (Kcal/Mol)
 Warning -- explicit consideration of   1 degrees of freedom as
           vibrations may cause significant error
 Vibrational temperatures:    551.97  9107.81
          (Kelvin)

 Zero-point correction=                           0.015295 (Hartree/Particle)
 Thermal correction to Energy=                    0.017981
 Thermal correction to Enthalpy=                  0.018926
 Thermal correction to Gibbs Free Energy=        -0.004048
 Sum of electronic and zero-point Energies=           -100.934583
 Sum of electronic and thermal Energies=              -100.931896
 Sum of electronic and thermal Enthalpies=            -100.930952
 Sum of electronic and thermal Free Energies=         -100.953926

                     E (Thermal)             CV                S
                      KCal/Mol        Cal/Mol-Kelvin    Cal/Mol-Kelvin
 Total                   11.284              6.473             48.352
 Electronic               0.000              0.000              1.377
 Translational            0.889              2.981             35.068
 Rotational               0.592              1.987             10.881
 Vibrational              9.802              1.505              1.025
 Vibration     1          0.753              1.505              1.025

 Normal termination of Gaussian 16 at Fri Aug 22 15:51:00 2025.
