 Gaussian 16, Revision C.01,
 Gaussian 16:  ES64L-G16RevC.01  3-Jul-2019

 -----------------------------------------
 # sp b3lyp/6-311g** Force nosymm scf=(qc)
 -----------------------------------------

 -------------------
 Title Card Required
 -------------------
 Symbolic Z-matrix:
 Charge =  0 Multiplicity = 2

                          Input orientation:
 ---------------------------------------------------------------------
 Center     Atomic      Atomic             Coordinates (Angstroms)
 Number     Number       Type             X           Y           Z
 ---------------------------------------------------------------------
      1          1           0        0.000000    0.000000    0.000000
      2          1           0       -2.550000    0.000000    0.000000
      3          9           0        2.550000    0.000000    0.000000
 ---------------------------------------------------------------------

 SCF Done:  E(UB3LYP) =  -100.769657016     a.u. after   16 cycles

 Alpha  occ. eigenvalues --  -24.72042  -1.18234  -0.51144  -0.42957  -0.42957
 Alpha  occ. eigenvalues --   -0.33630
 Alpha virt. eigenvalues --   -0.11637   0.24826   0.33332   0.90166   0.93465
 Alpha virt. eigenvalues --    0.93465   1.06450   1.24004   1.24004   1.26597
 Alpha virt. eigenvalues --    1.38417   1.38417   1.42505   2.14937   2.34143

  Beta  occ. eigenvalues --  -24.69174  -1.10061  -0.40096  -0.40096  -0.35127
  Beta virt. eigenvalues --   -0.23566  -0.09355   0.25697   0.34908   0.94849
  Beta virt. eigenvalues --    0.94849   0.97422   1.09438   1.22434   1.22434
  Beta virt. eigenvalues --    1.28981   1.41996   1.41996   1.43444   2.14698

 Mulliken charges and spin densities:
               1          2
     1  H    0.072876  -0.881287
     2  H    0.009189   0.974585
     3  F   -0.082065   0.906702
 Sum of Mulliken charges =  -0.00000   1.00000

 Dipole moment (field-independent basis, Debye):
    X=             -1.1782    Y=              0.0000    Z=             -0.0000  Tot=              1.1782
 Quadrupole moment (field-independent basis, Debye-Ang):
   XX=             -8.7905   YY=             -7.6133   ZZ=             -7.6133
   XY=             -0.0000   XZ=             -0.0000   YZ=              0.0000

  Exact polarizability:      42.652      -0.000       2.015       0.000      -0.000       2.015
 Approx polarizability:      45.837       0.000       1.918       0.000       0.000       1.918

 ******    2 imaginary frequencies (negative Signs) ******

                      1                      2                      3
                      A                      A                      A
 Frequencies --   -766.8934              -320.6145               301.6864
 Red. masses --      1.0211                 1.0928                 1.0179
 Frc consts  --      0.3538                 0.0662                 0.0546
 IR Inten    --     53.0931                21.5654                 4.4060

                      4
                      A
 Frequencies --    301.6864
 Red. masses --      1.0179
 Frc consts  --      0.0546
 IR Inten    --      4.4060

 - Thermochemistry -
 -------------------
 Temperature   298.150 Kelvin.  Pressure   1.00000 Atm.
 Atom     1 has atomic number  1 and mass   1.00783

 Molecular mass:    21.01405 amu.
 Principal axes and moments of inertia in atomic units:
                           1         2         3
     Eigenvalues --     0.00000 106.91138 106.91138
           X            1.00000  -0.00000   0.00000
           Y            0.00000   1.00000   0.00000
           Z            0.00000   0.00000   1.00000
 This molecule is a prolate symmetric top.
 Rotational symmetry number  1.
 Rotational temperature (Kelvin)      0.81015
 Rotational constant (GHZ):          16.880722
    2 imaginary frequencies ignored.
 Zero-point vibrational energy       3609.0 (Joules/Mol)
                                    0.86256 (Kcal/Mol)
 Warning -- explicit consideration of   2 degrees of freedom as
           vibrations may cause significant error
 Vibrational temperatures:    434.06   434.06
          (Kelvin)

 Zero-point correction=                           0.001375 (Hartree/Particle)
 Thermal correction to Energy=                    0.004571
 Thermal correction to Enthalpy=                  0.005515
 Thermal correction to Gibbs Free Energy=        -0.019661
 Sum of electronic and zero-point Energies=           -100.768282
 Sum of electronic and thermal Energies=              -100.765086
 Sum of electronic and thermal Enthalpies=            -100.764142
 Sum of electronic and thermal Free Energies=         -100.789318

                     E (Thermal)             CV                S
                      KCal/Mol        Cal/Mol-Kelvin    Cal/Mol-Kelvin
 Total                    2.868              8.309             52.988
 Electronic               0.000              0.000              1.377
 Translational            0.889              2.981             35.068
 Rotational               0.592              1.987             13.728
 Vibrational              1.387              3.341              2.815
 Vibration     1          0.694              1.671              1.408
 Vibration     2          0.694              1.671              1.408

 Normal termination of Gaussian 16 at Fri Aug 22 17:54:22 2025.
