 Gaussian 16, Revision C.01,
 Gaussian 16:  ES64L-G16RevC.01  3-Jul-2019

 -----------------------------------------
 # sp b3lyp/6-311g** Force nosymm scf=(qc)
 -----------------------------------------

 -------------------
 Title Card Required
 -------------------
 Symbolic Z-matrix:
 Charge =  0 Multiplicity = 2

                          Input orientation:
 ---------------------------------------------------------------------
 Center     Atomic      Atomic             Coordinates (Angstroms)
 Number     Number       Type             X           Y           Z
 ---------------------------------------------------------------------
      1          1           0        0.000000    0.000000    0.000000
      2          1           0       -3.750000    0.000000    0.000000
      3          9           0        3.550000    0.000000    0.000000
 ---------------------------------------------------------------------

 SCF Done:  E(UB3LYP) =  -100.758876250     a.u. after   31 cycles

 Alpha  occ. eigenvalues --  -24.75460  -1.21418  -0.54583  -0.45828  -0.45828
 Alpha  occ. eigenvalues --   -0.32299
 Alpha virt. eigenvalues --   -0.06542   0.24158   0.37272   0.87443   0.91435
 Alpha virt. eigenvalues --    0.91435   1.01693   1.25199   1.25199   1.25257
 Alpha virt. eigenvalues --    1.45828   1.45828   1.46074   2.14731   2.41935

  Beta  occ. eigenvalues --  -24.72341  -1.12455  -0.42702  -0.42702  -0.32758
  Beta virt. eigenvalues --   -0.25520  -0.06102   0.23911   0.38142   0.92926
  Beta virt. eigenvalues --    0.92926   0.96610   1.05718   1.24678   1.24678
  Beta virt. eigenvalues --    1.24719   1.46354   1.46528   1.46528   2.14875

 Mulliken charges and spin densities:
               1          2
     1  H    0.010038  -0.987730
     2  H    0.000084   0.998854
     3  F   -0.010122   0.988875
 Sum of Mulliken charges =  -0.00000   1.00000

 Dipole moment (field-independent basis, Debye):
    X=             -0.1864    Y=              0.0000    Z=             -0.0000  Tot=              0.1864
 Quadrupole moment (field-independent basis, Debye-Ang):
   XX=             -7.3465   YY=             -7.6192   ZZ=             -7.6192
   XY=              0.0000   XZ=             -0.0000   YZ=             -0.0000

  Exact polarizability:      21.768       0.000       2.037      -0.000       0.000       2.037
 Approx polarizability:      16.956       0.000       1.934      -0.000       0.000       1.934

 ******    2 imaginary frequencies (negative Signs) ******

                      1                      2                      3
                      A                      A                      A
 Frequencies --   -216.4614               -83.8124                59.8516
 Red. masses --      1.0366                 1.0756                 1.0186
 Frc consts  --      0.0286                 0.0045                 0.0021
 IR Inten    --      9.2949                 0.4876                 0.0883

                      4
                      A
 Frequencies --     59.8517
 Red. masses --      1.0186
 Frc consts  --      0.0021
 IR Inten    --      0.0883

 - Thermochemistry -
 -------------------
 Temperature   298.150 Kelvin.  Pressure   1.00000 Atm.
 Atom     1 has atomic number  1 and mass   1.00783

 Molecular mass:    21.01405 amu.
 Principal axes and moments of inertia in atomic units:
                           1         2         3
     Eigenvalues --     0.00000 216.82795 216.82795
           X            1.00000  -0.00000   0.00000
           Y            0.00000   1.00000   0.00000
           Z            0.00000   0.00000   1.00000
 This molecule is a prolate symmetric top.
 Rotational symmetry number  1.
 Rotational temperature (Kelvin)      0.39946
 Rotational constant (GHZ):           8.323379
    2 imaginary frequencies ignored.
 Zero-point vibrational energy        716.0 (Joules/Mol)
                                    0.17112 (Kcal/Mol)
 Warning -- explicit consideration of   2 degrees of freedom as
           vibrations may cause significant error
 Vibrational temperatures:     86.11    86.11
          (Kelvin)

 Zero-point correction=                           0.000273 (Hartree/Particle)
 Thermal correction to Energy=                    0.004262
 Thermal correction to Enthalpy=                  0.005206
 Thermal correction to Gibbs Free Energy=        -0.023541
 Sum of electronic and zero-point Energies=           -100.758604
 Sum of electronic and thermal Energies=              -100.754614
 Sum of electronic and thermal Enthalpies=            -100.753670
 Sum of electronic and thermal Free Energies=         -100.782417

                     E (Thermal)             CV                S
                      KCal/Mol        Cal/Mol-Kelvin    Cal/Mol-Kelvin
 Total                    2.674              8.915             60.503
 Electronic               0.000              0.000              1.377
 Translational            0.889              2.981             35.068
 Rotational               0.592              1.987             15.133
 Vibrational              1.193              3.947              8.924
 Vibration     1          0.597              1.973              4.462
 Vibration     2          0.597              1.973              4.462

 Normal termination of Gaussian 16 at Fri Aug 22 22:41:48 2025.
