 Gaussian 16, Revision C.01,
 Gaussian 16:  ES64L-G16RevC.01  3-Jul-2019

 -----------------------------------------
 # sp b3lyp/6-311g** Force nosymm scf=(qc)
 -----------------------------------------

 -------------------
 Title Card Required
 -------------------
 Symbolic Z-matrix:
 Charge =  0 Multiplicity = 2

                          Input orientation:
 ---------------------------------------------------------------------
 Center     Atomic      Atomic             Coordinates (Angstroms)
 Number     Number       Type             X           Y           Z
 ---------------------------------------------------------------------
      1          1           0        0.000000    0.000000    0.000000
      2          1           0       -3.600000    0.000000    0.000000
      3          9           0        2.550000    0.000000    0.000000
 ---------------------------------------------------------------------

 SCF Done:  E(UB3LYP) =  -100.766407138     a.u. after   23 cycles

 Alpha  occ. eigenvalues --  -24.72021  -1.18221  -0.51128  -0.42947  -0.42947
 Alpha  occ. eigenvalues --   -0.32819
 Alpha virt. eigenvalues --   -0.09957   0.23507   0.35425   0.89778   0.93463
 Alpha virt. eigenvalues --    0.93463   1.06139   1.24687   1.24687   1.24798
 Alpha virt. eigenvalues --    1.41000   1.41000   1.44412   2.14402   2.37299

  Beta  occ. eigenvalues --  -24.69154  -1.10053  -0.40088  -0.40088  -0.35157
  Beta virt. eigenvalues --   -0.23522  -0.06559   0.23864   0.37983   0.94846
  Beta virt. eigenvalues --    0.94846   0.96549   1.08629   1.22247   1.22247
  Beta virt. eigenvalues --    1.28361   1.45917   1.46178   1.46178   2.12953

 Mulliken charges and spin densities:
               1          2
     1  H    0.082812  -0.904705
     2  H    0.000649   0.998385
     3  F   -0.083461   0.906320
 Sum of Mulliken charges =  -0.00000   1.00000

 Dipole moment (field-independent basis, Debye):
    X=             -1.0956    Y=              0.0000    Z=              0.0000  Tot=              1.0956
 Quadrupole moment (field-independent basis, Debye-Ang):
   XX=             -9.2236   YY=             -7.5754   ZZ=             -7.5754
   XY=              0.0000   XZ=              0.0000   YZ=             -0.0000

  Exact polarizability:      30.956       0.000       2.025      -0.000      -0.000       2.025
 Approx polarizability:      38.513       0.000       1.921       0.000       0.000       1.921

 ******    2 imaginary frequencies (negative Signs) ******

                      1                      2                      3
                      A                      A                      A
 Frequencies --   -585.7281              -107.9083               226.4246
 Red. masses --      1.0546                 1.0569                 1.0226
 Frc consts  --      0.2132                 0.0073                 0.0309
 IR Inten    --     76.0339                 0.1992                 6.5846

                      4
                      A
 Frequencies --    226.4246
 Red. masses --      1.0226
 Frc consts  --      0.0309
 IR Inten    --      6.5846

 - Thermochemistry -
 -------------------
 Temperature   298.150 Kelvin.  Pressure   1.00000 Atm.
 Atom     1 has atomic number  1 and mass   1.00783

 Molecular mass:    21.01405 amu.
 Principal axes and moments of inertia in atomic units:
                           1         2         3
     Eigenvalues --     0.00000 146.46144 146.46144
           X            1.00000  -0.00000   0.00000
           Y            0.00000   1.00000   0.00000
           Z            0.00000   0.00000   1.00000
 This molecule is a prolate symmetric top.
 Rotational symmetry number  1.
 Rotational temperature (Kelvin)      0.59138
 Rotational constant (GHZ):          12.322296
    2 imaginary frequencies ignored.
 Zero-point vibrational energy       2708.6 (Joules/Mol)
                                    0.64738 (Kcal/Mol)
 Warning -- explicit consideration of   2 degrees of freedom as
           vibrations may cause significant error
 Vibrational temperatures:    325.77   325.77
          (Kelvin)

 Zero-point correction=                           0.001032 (Hartree/Particle)
 Thermal correction to Energy=                    0.004433
 Thermal correction to Enthalpy=                  0.005377
 Thermal correction to Gibbs Free Energy=        -0.020571
 Sum of electronic and zero-point Energies=           -100.765375
 Sum of electronic and thermal Energies=              -100.761974
 Sum of electronic and thermal Enthalpies=            -100.761030
 Sum of electronic and thermal Free Energies=         -100.786978

                     E (Thermal)             CV                S
                      KCal/Mol        Cal/Mol-Kelvin    Cal/Mol-Kelvin
 Total                    2.782              8.570             54.613
 Electronic               0.000              0.000              1.377
 Translational            0.889              2.981             35.068
 Rotational               0.592              1.987             14.353
 Vibrational              1.301              3.602              3.814
 Vibration     1          0.650              1.801              1.907
 Vibration     2          0.650              1.801              1.907

 Normal termination of Gaussian 16 at Fri Aug 22 17:55:24 2025.
