 Gaussian 16, Revision C.01,
 Gaussian 16:  ES64L-G16RevC.01  3-Jul-2019

 -----------------------------------------
 # sp b3lyp/6-311g** Force nosymm scf=(qc)
 -----------------------------------------

 -------------------
 Title Card Required
 -------------------
 Symbolic Z-matrix:
 Charge =  0 Multiplicity = 2

                          Input orientation:
 ---------------------------------------------------------------------
 Center     Atomic      Atomic             Coordinates (Angstroms)
 Number     Number       Type             X           Y           Z
 ---------------------------------------------------------------------
      1          1           0        0.000000    0.000000    0.000000
      2          1           0       -0.800000    0.000000    0.000000
      3          9           0        1.450000    0.000000    0.000000
 ---------------------------------------------------------------------

 SCF Done:  E(UB3LYP) =  -100.939254051     a.u. after    6 cycles

 Alpha  occ. eigenvalues --  -24.70224  -1.17536  -0.55844  -0.42052  -0.42052
 Alpha  occ. eigenvalues --   -0.41798
 Alpha virt. eigenvalues --    0.08395   0.19735   0.41539   0.88728   0.88728
 Alpha virt. eigenvalues --    0.97530   1.08019   1.08019   1.30238   1.67385
 Alpha virt. eigenvalues --    1.77061   1.77061   2.05491   2.39802   2.85794

  Beta  occ. eigenvalues --  -24.67731  -1.10746  -0.47357  -0.39642  -0.39642
  Beta virt. eigenvalues --   -0.23093   0.10008   0.20810   0.44103   0.89893
  Beta virt. eigenvalues --    0.89893   1.03294   1.10668   1.10668   1.34032
  Beta virt. eigenvalues --    1.70718   1.78686   1.78686   2.06618   2.43172

 Mulliken charges and spin densities:
               1          2
     1  H    0.153831  -0.053323
     2  H    0.022381   0.304255
     3  F   -0.176212   0.749068
 Sum of Mulliken charges =   0.00000   1.00000

 Dipole moment (field-independent basis, Debye):
    X=             -1.3561    Y=             -0.0000    Z=             -0.0000  Tot=              1.3561
 Quadrupole moment (field-independent basis, Debye-Ang):
   XX=             -7.0535   YY=             -6.8146   ZZ=             -6.8146
   XY=              0.0000   XZ=             -0.0000   YZ=              0.0000

  Exact polarizability:      21.374       0.000       2.351      -0.000       0.000       2.351
 Approx polarizability:      28.352       0.000       2.378       0.000       0.000       2.378

 ******    1 imaginary frequencies (negative Signs) ******

                      1                      2                      3
                      A                      A                      A
 Frequencies --   -655.4333               323.0240               323.0240
 Red. masses --      1.1059                 1.0123                 1.0123
 Frc consts  --      0.2799                 0.0622                 0.0622
 IR Inten    --    150.8752                 2.0556                 2.0556

                      4
                      A
 Frequencies --   3183.2287
 Red. masses --      1.0100
 Frc consts  --      6.0298
 IR Inten    --    714.1681

 - Thermochemistry -
 -------------------
 Temperature   298.150 Kelvin.  Pressure   1.00000 Atm.
 Atom     1 has atomic number  1 and mass   1.00783

 Molecular mass:    21.01405 amu.
 Principal axes and moments of inertia in atomic units:
                           1         2         3
     Eigenvalues --     0.00000  23.42391  23.42391
           X            1.00000  -0.00000   0.00000
           Y            0.00000   1.00000   0.00000
           Z            0.00000   0.00000   1.00000
 This molecule is a prolate symmetric top.
 Rotational symmetry number  1.
 Rotational temperature (Kelvin)      3.69767
 Rotational constant (GHZ):          77.046974
    1 imaginary frequencies ignored.
 Zero-point vibrational energy      22904.2 (Joules/Mol)
                                    5.47423 (Kcal/Mol)
 Warning -- explicit consideration of   2 degrees of freedom as
           vibrations may cause significant error
 Vibrational temperatures:    464.76   464.76  4579.96
          (Kelvin)

 Zero-point correction=                           0.008724 (Hartree/Particle)
 Thermal correction to Energy=                    0.011869
 Thermal correction to Enthalpy=                  0.012813
 Thermal correction to Gibbs Free Energy=        -0.010823
 Sum of electronic and zero-point Energies=           -100.930530
 Sum of electronic and thermal Energies=              -100.927386
 Sum of electronic and thermal Enthalpies=            -100.926441
 Sum of electronic and thermal Free Energies=         -100.950077

                     E (Thermal)             CV                S
                      KCal/Mol        Cal/Mol-Kelvin    Cal/Mol-Kelvin
 Total                    7.448              8.227             49.746
 Electronic               0.000              0.000              1.377
 Translational            0.889              2.981             35.068
 Rotational               0.592              1.987             10.711
 Vibrational              5.966              3.259              2.590
 Vibration     1          0.708              1.629              1.295
 Vibration     2          0.708              1.629              1.295

 Normal termination of Gaussian 16 at Fri Aug 22 16:21:47 2025.
