 Gaussian 16, Revision C.01,
 Gaussian 16:  ES64L-G16RevC.01  3-Jul-2019

 -----------------------------------------
 # sp b3lyp/6-311g** Force nosymm scf=(qc)
 -----------------------------------------

 -------------------
 Title Card Required
 -------------------
 Symbolic Z-matrix:
 Charge =  0 Multiplicity = 2

                          Input orientation:
 ---------------------------------------------------------------------
 Center     Atomic      Atomic             Coordinates (Angstroms)
 Number     Number       Type             X           Y           Z
 ---------------------------------------------------------------------
      1          1           0        0.000000    0.000000    0.000000
      2          1           0       -1.650000    0.000000    0.000000
      3          9           0        2.450000    0.000000    0.000000
 ---------------------------------------------------------------------

 SCF Done:  E(UB3LYP) =  -100.806489525     a.u. after   16 cycles

 Alpha  occ. eigenvalues --  -24.72354  -1.18531  -0.51511  -0.43228  -0.43228
 Alpha  occ. eigenvalues --   -0.35737
 Alpha virt. eigenvalues --   -0.11968   0.24012   0.31064   0.88625   0.93214
 Alpha virt. eigenvalues --    0.93214   1.03008   1.15135   1.20556   1.20556
 Alpha virt. eigenvalues --    1.36384   1.36384   1.68703   2.15603   2.41739

  Beta  occ. eigenvalues --  -24.69481  -1.10342  -0.40362  -0.40362  -0.35366
  Beta virt. eigenvalues --   -0.24206  -0.11240   0.25759   0.30655   0.94543
  Beta virt. eigenvalues --    0.94585   0.94585   1.06070   1.18857   1.21220
  Beta virt. eigenvalues --    1.21220   1.37022   1.37022   1.69385   2.16597

 Mulliken charges and spin densities:
               1          2
     1  H    0.036365  -0.520362
     2  H    0.041164   0.612440
     3  F   -0.077529   0.907922
 Sum of Mulliken charges =  -0.00000   1.00000

 Dipole moment (field-independent basis, Debye):
    X=             -1.2887    Y=             -0.0000    Z=             -0.0000  Tot=              1.2887
 Quadrupole moment (field-independent basis, Debye-Ang):
   XX=             -7.4417   YY=             -7.6752   ZZ=             -7.6752
   XY=             -0.0000   XZ=             -0.0000   YZ=             -0.0000

  Exact polarizability:      61.753      -0.000       2.031      -0.000      -0.000       2.031
 Approx polarizability:      80.982       0.000       1.986       0.000       0.000       1.986

 ******    2 imaginary frequencies (negative Signs) ******

                      1                      2                      3
                      A                      A                      A
 Frequencies --  -1992.0246              -369.7131               935.6304
 Red. masses --      1.0085                 1.1077                 1.0139
 Frc consts  --      2.3579                 0.0892                 0.5229
 IR Inten    --    331.4615                45.1427                 0.2531

                      4
                      A
 Frequencies --    935.6304
 Red. masses --      1.0139
 Frc consts  --      0.5229
 IR Inten    --      0.2531

 - Thermochemistry -
 -------------------
 Temperature   298.150 Kelvin.  Pressure   1.00000 Atm.
 Atom     1 has atomic number  1 and mass   1.00783

 Molecular mass:    21.01405 amu.
 Principal axes and moments of inertia in atomic units:
                           1         2         3
     Eigenvalues --     0.00000  74.69711  74.69711
           X            1.00000  -0.00000   0.00000
           Y            0.00000   1.00000   0.00000
           Z            0.00000   0.00000   1.00000
 This molecule is a prolate symmetric top.
 Rotational symmetry number  1.
 Rotational temperature (Kelvin)      1.15954
 Rotational constant (GHZ):          24.160789
    2 imaginary frequencies ignored.
 Zero-point vibrational energy      11192.6 (Joules/Mol)
                                    2.67510 (Kcal/Mol)
 Vibrational temperatures:   1346.16  1346.16
          (Kelvin)

 Zero-point correction=                           0.004263 (Hartree/Particle)
 Thermal correction to Energy=                    0.006718
 Thermal correction to Enthalpy=                  0.007662
 Thermal correction to Gibbs Free Energy=        -0.015953
 Sum of electronic and zero-point Energies=           -100.802226
 Sum of electronic and thermal Energies=              -100.799772
 Sum of electronic and thermal Enthalpies=            -100.798827
 Sum of electronic and thermal Free Energies=         -100.822443

                     E (Thermal)             CV                S
                      KCal/Mol        Cal/Mol-Kelvin    Cal/Mol-Kelvin
 Total                    4.216              5.874             49.703
 Electronic               0.000              0.000              1.377
 Translational            0.889              2.981             35.068
 Rotational               0.592              1.987             13.015
 Vibrational              2.734              0.906              0.242

 Normal termination of Gaussian 16 at Fri Aug 22 17:37:58 2025.
