 Gaussian 16, Revision C.01,
 Gaussian 16:  ES64L-G16RevC.01  3-Jul-2019

 -----------------------------------------
 # sp b3lyp/6-311g** Force nosymm scf=(qc)
 -----------------------------------------

 -------------------
 Title Card Required
 -------------------
 Symbolic Z-matrix:
 Charge =  0 Multiplicity = 2

                          Input orientation:
 ---------------------------------------------------------------------
 Center     Atomic      Atomic             Coordinates (Angstroms)
 Number     Number       Type             X           Y           Z
 ---------------------------------------------------------------------
      1          1           0        0.000000    0.000000    0.000000
      2          1           0       -2.350000    0.000000    0.000000
      3          9           0        2.150000    0.000000    0.000000
 ---------------------------------------------------------------------

 SCF Done:  E(UB3LYP) =  -100.784119127     a.u. after   17 cycles

 Alpha  occ. eigenvalues --  -24.69304  -1.15614  -0.48352  -0.40650  -0.40650
 Alpha  occ. eigenvalues --   -0.34878
 Alpha virt. eigenvalues --   -0.13399   0.24372   0.31761   0.88973   0.94709
 Alpha virt. eigenvalues --    0.94709   1.06312   1.22844   1.22844   1.26961
 Alpha virt. eigenvalues --    1.35430   1.35430   1.52651   2.13111   2.29946

  Beta  occ. eigenvalues --  -24.66732  -1.08372  -0.38104  -0.38104  -0.36807
  Beta virt. eigenvalues --   -0.21776  -0.10473   0.25711   0.33901   0.92542
  Beta virt. eigenvalues --    0.95726   0.95726   1.08896   1.22052   1.22052
  Beta virt. eigenvalues --    1.39978   1.39978   1.42694   1.44976   2.12773

 Mulliken charges and spin densities:
               1          2
     1  H    0.131890  -0.764521
     2  H    0.021758   0.954989
     3  F   -0.153648   0.809532
 Sum of Mulliken charges =  -0.00000   1.00000

 Dipole moment (field-independent basis, Debye):
    X=             -1.8967    Y=              0.0000    Z=              0.0000  Tot=              1.8967
 Quadrupole moment (field-independent basis, Debye-Ang):
   XX=             -9.1109   YY=             -7.5658   ZZ=             -7.5658
   XY=              0.0000   XZ=              0.0000   YZ=             -0.0000

  Exact polarizability:      43.665       0.000       2.037       0.000      -0.000       2.037
 Approx polarizability:      49.876      -0.000       1.934      -0.000       0.000       1.934

 ******    2 imaginary frequencies (negative Signs) ******

                      1                      2                      3
                      A                      A                      A
 Frequencies --  -1115.6028              -443.3279               462.4329
 Red. masses --      1.0287                 1.0843                 1.0191
 Frc consts  --      0.7543                 0.1256                 0.1284
 IR Inten    --     75.0569                28.5663                13.5372

                      4
                      A
 Frequencies --    462.4329
 Red. masses --      1.0191
 Frc consts  --      0.1284
 IR Inten    --     13.5372

 - Thermochemistry -
 -------------------
 Temperature   298.150 Kelvin.  Pressure   1.00000 Atm.
 Atom     1 has atomic number  1 and mass   1.00783

 Molecular mass:    21.01405 amu.
 Principal axes and moments of inertia in atomic units:
                           1         2         3
     Eigenvalues --     0.00000  81.88323  81.88323
           X            1.00000  -0.00000   0.00000
           Y            0.00000   1.00000   0.00000
           Z            0.00000   0.00000   1.00000
 This molecule is a prolate symmetric top.
 Rotational symmetry number  1.
 Rotational temperature (Kelvin)      1.05777
 Rotational constant (GHZ):          22.040425
    2 imaginary frequencies ignored.
 Zero-point vibrational energy       5531.9 (Joules/Mol)
                                    1.32216 (Kcal/Mol)
 Warning -- explicit consideration of   2 degrees of freedom as
           vibrations may cause significant error
 Vibrational temperatures:    665.34   665.34
          (Kelvin)

 Zero-point correction=                           0.002107 (Hartree/Particle)
 Thermal correction to Energy=                    0.004974
 Thermal correction to Enthalpy=                  0.005918
 Thermal correction to Gibbs Free Energy=        -0.018390
 Sum of electronic and zero-point Energies=           -100.782012
 Sum of electronic and thermal Energies=              -100.779145
 Sum of electronic and thermal Enthalpies=            -100.778201
 Sum of electronic and thermal Free Energies=         -100.802509

                     E (Thermal)             CV                S
                      KCal/Mol        Cal/Mol-Kelvin    Cal/Mol-Kelvin
 Total                    3.121              7.635             51.161
 Electronic               0.000              0.000              1.377
 Translational            0.889              2.981             35.068
 Rotational               0.592              1.987             13.198
 Vibrational              1.640              2.667              1.518
 Vibration     1          0.820              1.333              0.759
 Vibration     2          0.820              1.333              0.759

 Normal termination of Gaussian 16 at Fri Aug 22 17:07:59 2025.
