 Gaussian 16, Revision C.01,
 Gaussian 16:  ES64L-G16RevC.01  3-Jul-2019

 -----------------------------------------
 # sp b3lyp/6-311g** Force nosymm scf=(qc)
 -----------------------------------------

 -------------------
 Title Card Required
 -------------------
 Symbolic Z-matrix:
 Charge =  0 Multiplicity = 2

                          Input orientation:
 ---------------------------------------------------------------------
 Center     Atomic      Atomic             Coordinates (Angstroms)
 Number     Number       Type             X           Y           Z
 ---------------------------------------------------------------------
      1          1           0        0.000000    0.000000    0.000000
      2          1           0       -2.850000    0.000000    0.000000
      3          9           0        3.450000    0.000000    0.000000
 ---------------------------------------------------------------------

 SCF Done:  E(UB3LYP) =  -100.760628862     a.u. after   26 cycles

 Alpha  occ. eigenvalues --  -24.75326  -1.21293  -0.54448  -0.45716  -0.45716
 Alpha  occ. eigenvalues --   -0.32519
 Alpha virt. eigenvalues --   -0.08524   0.25179   0.35353   0.87775   0.91517
 Alpha virt. eigenvalues --    0.91517   1.01941   1.25038   1.25038   1.26079
 Alpha virt. eigenvalues --    1.43124   1.43124   1.43355   2.15868   2.38895

  Beta  occ. eigenvalues --  -24.72216  -1.12360  -0.42599  -0.42599  -0.32958
  Beta virt. eigenvalues --   -0.25458  -0.07927   0.24965   0.36249   0.93005
  Beta virt. eigenvalues --    0.93005   0.96898   1.05951   1.24523   1.24523
  Beta virt. eigenvalues --    1.25504   1.44071   1.44071   1.44286   2.16283

 Mulliken charges and spin densities:
               1          2
     1  H    0.011701  -0.974620
     2  H    0.001071   0.988778
     3  F   -0.012773   0.985842
 Sum of Mulliken charges =  -0.00000   1.00000

 Dipole moment (field-independent basis, Debye):
    X=             -0.2410    Y=             -0.0000    Z=             -0.0000  Tot=              0.2410
 Quadrupole moment (field-independent basis, Debye-Ang):
   XX=             -7.3414   YY=             -7.6405   ZZ=             -7.6405
   XY=              0.0000   XZ=              0.0000   YZ=              0.0000

  Exact polarizability:      29.071       0.000       2.028       0.000       0.000       2.028
 Approx polarizability:      22.733       0.000       1.930       0.000      -0.000       1.930

 ******    2 imaginary frequencies (negative Signs) ******

                      1                      2                      3
                      A                      A                      A
 Frequencies --   -429.0299              -141.1465               151.6789
 Red. masses --      1.0096                 1.1063                 1.0158
 Frc consts  --      0.1095                 0.0130                 0.0138
 IR Inten    --      8.2610                 5.5736                 0.1108

                      4
                      A
 Frequencies --    151.6789
 Red. masses --      1.0158
 Frc consts  --      0.0138
 IR Inten    --      0.1108

 - Thermochemistry -
 -------------------
 Temperature   298.150 Kelvin.  Pressure   1.00000 Atm.
 Atom     1 has atomic number  1 and mass   1.00783

 Molecular mass:    21.01405 amu.
 Principal axes and moments of inertia in atomic units:
                           1         2         3
     Eigenvalues --     0.00000 169.27340 169.27340
           X            1.00000  -0.00000   0.00000
           Y            0.00000   1.00000   0.00000
           Z            0.00000   0.00000   1.00000
 This molecule is a prolate symmetric top.
 Rotational symmetry number  1.
 Rotational temperature (Kelvin)      0.51168
 Rotational constant (GHZ):          10.661694
    2 imaginary frequencies ignored.
 Zero-point vibrational energy       1814.5 (Joules/Mol)
                                    0.43367 (Kcal/Mol)
 Warning -- explicit consideration of   2 degrees of freedom as
           vibrations may cause significant error
 Vibrational temperatures:    218.23   218.23
          (Kelvin)

 Zero-point correction=                           0.000691 (Hartree/Particle)
 Thermal correction to Energy=                    0.004332
 Thermal correction to Enthalpy=                  0.005277
 Thermal correction to Gibbs Free Energy=        -0.021515
 Sum of electronic and zero-point Energies=           -100.759938
 Sum of electronic and thermal Energies=              -100.756296
 Sum of electronic and thermal Enthalpies=            -100.755352
 Sum of electronic and thermal Free Energies=         -100.782144

                     E (Thermal)             CV                S
                      KCal/Mol        Cal/Mol-Kelvin    Cal/Mol-Kelvin
 Total                    2.719              8.770             56.389
 Electronic               0.000              0.000              1.377
 Translational            0.889              2.981             35.068
 Rotational               0.592              1.987             14.641
 Vibrational              1.237              3.802              5.302
 Vibration     1          0.619              1.901              2.651
 Vibration     2          0.619              1.901              2.651

 Normal termination of Gaussian 16 at Fri Aug 22 21:42:19 2025.
