 Gaussian 16, Revision C.01,
 Gaussian 16:  ES64L-G16RevC.01  3-Jul-2019

 -----------------------------------------
 # sp b3lyp/6-311g** Force nosymm scf=(qc)
 -----------------------------------------

 -------------------
 Title Card Required
 -------------------
 Symbolic Z-matrix:
 Charge =  0 Multiplicity = 2

                          Input orientation:
 ---------------------------------------------------------------------
 Center     Atomic      Atomic             Coordinates (Angstroms)
 Number     Number       Type             X           Y           Z
 ---------------------------------------------------------------------
      1          1           0        0.000000    0.000000    0.000000
      2          1           0       -3.750000    0.000000    0.000000
      3          9           0        1.000000    0.000000    0.000000
 ---------------------------------------------------------------------

 SCF Done:  E(UB3LYP) =  -100.966124290     a.u. after    6 cycles

 Alpha  occ. eigenvalues --  -24.64193  -1.16067  -0.51661  -0.38812  -0.38812
 Alpha  occ. eigenvalues --   -0.33512
 Alpha virt. eigenvalues --    0.00547   0.23593   0.34628   0.94029   0.94029
 Alpha virt. eigenvalues --    0.98564   1.23918   1.23998   1.23998   1.29105
 Alpha virt. eigenvalues --    1.35914   1.35914   1.89965   2.14024   2.33806

  Beta  occ. eigenvalues --  -24.64192  -1.16064  -0.51658  -0.38811  -0.38811
  Beta virt. eigenvalues --   -0.05371   0.00956   0.33225   0.39708   0.94029
  Beta virt. eigenvalues --    0.94029   0.98565   1.29040   1.35913   1.35913
  Beta virt. eigenvalues --    1.50186   1.50596   1.50596   1.90015   2.33475

 Mulliken charges and spin densities:
               1          2
     1  H    0.320180   0.000333
     2  H    0.000584   0.999341
     3  F   -0.320764   0.000325
 Sum of Mulliken charges =   0.00000   1.00000

 Dipole moment (field-independent basis, Debye):
    X=             -2.0305    Y=              0.0000    Z=             -0.0000  Tot=              2.0305
 Quadrupole moment (field-independent basis, Debye-Ang):
   XX=             -8.2532   YY=             -6.9622   ZZ=             -6.9622
   XY=              0.0000   XZ=              0.0000   YZ=              0.0000

  Exact polarizability:       6.473       0.000       2.396      -0.000       0.000       2.396
 Approx polarizability:       8.020       0.000       2.368      -0.000      -0.000       2.368

 ******    1 imaginary frequencies (negative Signs) ******

                      1                      2                      3
                      A                      A                      A
 Frequencies --    -37.3181               986.2306               986.2306
 Red. masses --      1.0532                 1.0380                 1.0380
 Frc consts  --      0.0009                 0.5948                 0.5948
 IR Inten    --      0.0243               170.2461               170.2461

                      4
                      A
 Frequencies --   3027.3569
 Red. masses --      1.0583
 Frc consts  --      5.7148
 IR Inten    --     87.3898

 - Thermochemistry -
 -------------------
 Temperature   298.150 Kelvin.  Pressure   1.00000 Atm.
 Atom     1 has atomic number  1 and mass   1.00783

 Molecular mass:    21.01405 amu.
 Principal axes and moments of inertia in atomic units:
                           1         2         3
     Eigenvalues --     0.00000  79.09482  79.09482
           X            1.00000  -0.00000   0.00000
           Y            0.00000   1.00000   0.00000
           Z            0.00000   0.00000   1.00000
 This molecule is a prolate symmetric top.
 Rotational symmetry number  1.
 Rotational temperature (Kelvin)      1.09506
 Rotational constant (GHZ):          22.817438
    1 imaginary frequencies ignored.
 Zero-point vibrational energy      29905.6 (Joules/Mol)
                                    7.14760 (Kcal/Mol)
 Vibrational temperatures:   1418.97  1418.97  4355.69
          (Kelvin)

 Zero-point correction=                           0.011390 (Hartree/Particle)
 Thermal correction to Energy=                    0.013829
 Thermal correction to Enthalpy=                  0.014773
 Thermal correction to Gibbs Free Energy=        -0.008876
 Sum of electronic and zero-point Energies=           -100.954734
 Sum of electronic and thermal Energies=              -100.952296
 Sum of electronic and thermal Enthalpies=            -100.951352
 Sum of electronic and thermal Free Energies=         -100.975000

                     E (Thermal)             CV                S
                      KCal/Mol        Cal/Mol-Kelvin    Cal/Mol-Kelvin
 Total                    8.678              5.753             49.772
 Electronic               0.000              0.000              1.377
 Translational            0.889              2.981             35.068
 Rotational               0.592              1.987             13.129
 Vibrational              7.196              0.785              0.198

 Normal termination of Gaussian 16 at Fri Aug 22 16:01:41 2025.
