 Gaussian 16, Revision C.01,
 Gaussian 16:  ES64L-G16RevC.01  3-Jul-2019

 -----------------------------------------
 # sp b3lyp/6-311g** Force nosymm scf=(qc)
 -----------------------------------------

 -------------------
 Title Card Required
 -------------------
 Symbolic Z-matrix:
 Charge =  0 Multiplicity = 2

                          Input orientation:
 ---------------------------------------------------------------------
 Center     Atomic      Atomic             Coordinates (Angstroms)
 Number     Number       Type             X           Y           Z
 ---------------------------------------------------------------------
      1          1           0        0.000000    0.000000    0.000000
      2          1           0       -3.150000    0.000000    0.000000
      3          9           0        0.900000    0.000000    0.000000
 ---------------------------------------------------------------------

 SCF Done:  E(UB3LYP) =  -100.971532407     a.u. after    5 cycles

 Alpha  occ. eigenvalues --  -24.63982  -1.19034  -0.53851  -0.39643  -0.39643
 Alpha  occ. eigenvalues --   -0.33928
 Alpha virt. eigenvalues --    0.03312   0.24936   0.39409   0.94346   0.94346
 Alpha virt. eigenvalues --    0.97763   1.23059   1.23596   1.23596   1.31199
 Alpha virt. eigenvalues --    1.37280   1.37280   2.00975   2.14543   2.37325

  Beta  occ. eigenvalues --  -24.63980  -1.19026  -0.53842  -0.39640  -0.39640
  Beta virt. eigenvalues --   -0.06473   0.04266   0.38902   0.39445   0.94347
  Beta virt. eigenvalues --    0.94347   0.97754   1.29984   1.37278   1.37278
  Beta virt. eigenvalues --    1.50039   1.50039   1.50211   2.01058   2.37271

 Mulliken charges and spin densities:
               1          2
     1  H    0.294687   0.001123
     2  H    0.001769   0.997714
     3  F   -0.296456   0.001163
 Sum of Mulliken charges =   0.00000   1.00000

 Dipole moment (field-independent basis, Debye):
    X=             -1.9080    Y=             -0.0000    Z=              0.0000  Tot=              1.9080
 Quadrupole moment (field-independent basis, Debye-Ang):
   XX=             -7.8522   YY=             -6.8683   ZZ=             -6.8683
   XY=             -0.0000   XZ=              0.0000   YZ=              0.0000

  Exact polarizability:       6.047      -0.000       2.432      -0.000       0.000       2.432
 Approx polarizability:       6.907       0.000       2.411      -0.000       0.000       2.411

 ******    3 imaginary frequencies (negative Signs) ******

                      1                      2                      3
                      A                      A                      A
 Frequencies --   -624.1492              -624.1492               -56.6228
 Red. masses --      1.0370                 1.0370                 1.0532
 Frc consts  --      0.2380                 0.2380                 0.0020
 IR Inten    --    178.4084               178.4084                 0.1173

                      4
                      A
 Frequencies --   4431.0961
 Red. masses --      1.0583
 Frc consts  --     12.2433
 IR Inten    --    105.0636

 - Thermochemistry -
 -------------------
 Temperature   298.150 Kelvin.  Pressure   1.00000 Atm.
 Atom     1 has atomic number  1 and mass   1.00783

 Molecular mass:    21.01405 amu.
 Principal axes and moments of inertia in atomic units:
                           1         2         3
     Eigenvalues --     0.00000  57.71863  57.71863
           X            1.00000  -0.00000   0.00000
           Y            0.00000   1.00000   0.00000
           Z            0.00000   0.00000   1.00000
 This molecule is a prolate symmetric top.
 Rotational symmetry number  1.
 Rotational temperature (Kelvin)      1.50062
 Rotational constant (GHZ):          31.267913
    3 imaginary frequencies ignored.
 Zero-point vibrational energy      26503.8 (Joules/Mol)
                                    6.33457 (Kcal/Mol)
 Vibrational temperatures:   6375.36
          (Kelvin)

 Zero-point correction=                           0.010095 (Hartree/Particle)
 Thermal correction to Energy=                    0.012455
 Thermal correction to Enthalpy=                  0.013399
 Thermal correction to Gibbs Free Energy=        -0.009858
 Sum of electronic and zero-point Energies=           -100.961438
 Sum of electronic and thermal Energies=              -100.959077
 Sum of electronic and thermal Enthalpies=            -100.958133
 Sum of electronic and thermal Free Energies=         -100.981390

                     E (Thermal)             CV                S
                      KCal/Mol        Cal/Mol-Kelvin    Cal/Mol-Kelvin
 Total                    7.816              4.968             48.948
 Electronic               0.000              0.000              1.377
 Translational            0.889              2.981             35.068
 Rotational               0.592              1.987             12.503
 Vibrational              6.335              0.000              0.000

 Normal termination of Gaussian 16 at Fri Aug 22 15:56:33 2025.
