 Gaussian 16, Revision C.01,
 Gaussian 16:  ES64L-G16RevC.01  3-Jul-2019

 -----------------------------------------
 # sp b3lyp/6-311g** Force nosymm scf=(qc)
 -----------------------------------------

 -------------------
 Title Card Required
 -------------------
 Symbolic Z-matrix:
 Charge =  0 Multiplicity = 2

                          Input orientation:
 ---------------------------------------------------------------------
 Center     Atomic      Atomic             Coordinates (Angstroms)
 Number     Number       Type             X           Y           Z
 ---------------------------------------------------------------------
      1          1           0        0.000000    0.000000    0.000000
      2          1           0       -3.650000    0.000000    0.000000
      3          9           0        3.700000    0.000000    0.000000
 ---------------------------------------------------------------------

 SCF Done:  E(UB3LYP) =  -100.758733748     a.u. after   30 cycles

 Alpha  occ. eigenvalues --  -24.75656  -1.21599  -0.54779  -0.45993  -0.45993
 Alpha  occ. eigenvalues --   -0.32280
 Alpha virt. eigenvalues --   -0.06562   0.24237   0.37467   0.87060   0.91313
 Alpha virt. eigenvalues --    0.91313   1.01404   1.25219   1.25219   1.25306
 Alpha virt. eigenvalues --    1.45726   1.45835   1.45835   2.14871   2.41644

  Beta  occ. eigenvalues --  -24.72524  -1.12598  -0.42854  -0.42854  -0.32618
  Beta virt. eigenvalues --   -0.25620  -0.06226   0.24024   0.38097   0.92807
  Beta virt. eigenvalues --    0.92807   0.96314   1.05476   1.24841   1.24841
  Beta virt. eigenvalues --    1.24910   1.46191   1.46389   1.46389   2.14948

 Mulliken charges and spin densities:
               1          2
     1  H    0.006420  -0.991355
     2  H    0.000081   0.998527
     3  F   -0.006500   0.992828
 Sum of Mulliken charges =  -0.00000   1.00000

 Dipole moment (field-independent basis, Debye):
    X=             -0.1254    Y=              0.0000    Z=              0.0000  Tot=              0.1254
 Quadrupole moment (field-independent basis, Debye-Ang):
   XX=             -7.1540   YY=             -7.6212   ZZ=             -7.6212
   XY=             -0.0000   XZ=              0.0000   YZ=              0.0000

  Exact polarizability:      17.812       0.000       2.029      -0.000      -0.000       2.029
 Approx polarizability:      13.309      -0.000       1.935       0.000      -0.000       1.935

 ******    2 imaginary frequencies (negative Signs) ******

                      1                      2                      3
                      A                      A                      A
 Frequencies --   -197.5939               -84.1851                64.9787
 Red. masses --      1.0243                 1.0892                 1.0178
 Frc consts  --      0.0236                 0.0045                 0.0025
 IR Inten    --      4.5737                 0.7136                 0.0418

                      4
                      A
 Frequencies --     64.9788
 Red. masses --      1.0178
 Frc consts  --      0.0025
 IR Inten    --      0.0418

 - Thermochemistry -
 -------------------
 Temperature   298.150 Kelvin.  Pressure   1.00000 Atm.
 Atom     1 has atomic number  1 and mass   1.00783

 Molecular mass:    21.01405 amu.
 Principal axes and moments of inertia in atomic units:
                           1         2         3
     Eigenvalues --     0.00000 222.62213 222.62213
           X            1.00000  -0.00000   0.00000
           Y            0.00000   1.00000   0.00000
           Z            0.00000   0.00000   1.00000
 This molecule is a prolate symmetric top.
 Rotational symmetry number  1.
 Rotational temperature (Kelvin)      0.38906
 Rotational constant (GHZ):           8.106747
    2 imaginary frequencies ignored.
 Zero-point vibrational energy        777.3 (Joules/Mol)
                                    0.18578 (Kcal/Mol)
 Warning -- explicit consideration of   2 degrees of freedom as
           vibrations may cause significant error
 Vibrational temperatures:     93.49    93.49
          (Kelvin)

 Zero-point correction=                           0.000296 (Hartree/Particle)
 Thermal correction to Energy=                    0.004264
 Thermal correction to Enthalpy=                  0.005208
 Thermal correction to Gibbs Free Energy=        -0.023409
 Sum of electronic and zero-point Energies=           -100.758438
 Sum of electronic and thermal Energies=              -100.754469
 Sum of electronic and thermal Enthalpies=            -100.753525
 Sum of electronic and thermal Free Energies=         -100.782143

                     E (Thermal)             CV                S
                      KCal/Mol        Cal/Mol-Kelvin    Cal/Mol-Kelvin
 Total                    2.676              8.910             60.231
 Electronic               0.000              0.000              1.377
 Translational            0.889              2.981             35.068
 Rotational               0.592              1.987             15.185
 Vibrational              1.195              3.942              8.600
 Vibration     1          0.597              1.971              4.300
 Vibration     2          0.597              1.971              4.300

 Normal termination of Gaussian 16 at Sat Aug 23 00:05:06 2025.
