 Gaussian 16, Revision C.01,
 Gaussian 16:  ES64L-G16RevC.01  3-Jul-2019

 -----------------------------------------
 # sp b3lyp/6-311g** Force nosymm scf=(qc)
 -----------------------------------------

 -------------------
 Title Card Required
 -------------------
 Symbolic Z-matrix:
 Charge =  0 Multiplicity = 2

                          Input orientation:
 ---------------------------------------------------------------------
 Center     Atomic      Atomic             Coordinates (Angstroms)
 Number     Number       Type             X           Y           Z
 ---------------------------------------------------------------------
      1          1           0        0.000000    0.000000    0.000000
      2          1           0       -2.300000    0.000000    0.000000
      3          9           0        1.450000    0.000000    0.000000
 ---------------------------------------------------------------------

 SCF Done:  E(UB3LYP) =  -100.868063633     a.u. after    9 cycles

 Alpha  occ. eigenvalues --  -24.63924  -1.09814  -0.44037  -0.36217  -0.36217
 Alpha  occ. eigenvalues --   -0.36194
 Alpha virt. eigenvalues --   -0.11780   0.23570   0.26722   0.93727   0.93727
 Alpha virt. eigenvalues --    1.03541   1.11357   1.21225   1.21225   1.27455
 Alpha virt. eigenvalues --    1.32876   1.32876   1.73807   2.11347   2.22413

  Beta  occ. eigenvalues --  -24.63646  -1.09084  -0.43092  -0.35954  -0.35954
  Beta virt. eigenvalues --   -0.15916  -0.07040   0.25891   0.34729   0.93648
  Beta virt. eigenvalues --    0.93648   1.04239   1.13245   1.31781   1.31781
  Beta virt. eigenvalues --    1.40880   1.40880   1.44082   1.73700   2.18925

 Mulliken charges and spin densities:
               1          2
     1  H    0.333068  -0.055695
     2  H    0.025523   0.968664
     3  F   -0.358591   0.087031
 Sum of Mulliken charges =   0.00000   1.00000

 Dipole moment (field-independent basis, Debye):
    X=             -2.8493    Y=             -0.0000    Z=             -0.0000  Tot=              2.8493
 Quadrupole moment (field-independent basis, Debye-Ang):
   XX=             -9.0573   YY=             -7.2877   ZZ=             -7.2877
   XY=              0.0000   XZ=             -0.0000   YZ=              0.0000

  Exact polarizability:      22.002       0.000       2.234       0.000       0.000       2.234
 Approx polarizability:      32.814       0.000       2.169       0.000       0.000       2.169

 ******    2 imaginary frequencies (negative Signs) ******

                      1                      2                      3
                      A                      A                      A
 Frequencies --  -1357.3625              -280.4893              1026.8006
 Red. masses --      1.0438                 1.0681                 1.0244
 Frc consts  --      1.1330                 0.0495                 0.6363
 IR Inten    --    144.3976                 1.6130                94.7110

                      4
                      A
 Frequencies --   1026.8006
 Red. masses --      1.0244
 Frc consts  --      0.6363
 IR Inten    --     94.7110

 - Thermochemistry -
 -------------------
 Temperature   298.150 Kelvin.  Pressure   1.00000 Atm.
 Atom     1 has atomic number  1 and mass   1.00783

 Molecular mass:    21.01405 amu.
 Principal axes and moments of inertia in atomic units:
                           1         2         3
     Eigenvalues --     0.00000  53.51068  53.51068
           X            1.00000  -0.00000   0.00000
           Y            0.00000   1.00000   0.00000
           Z            0.00000   0.00000   1.00000
 This molecule is a prolate symmetric top.
 Rotational symmetry number  1.
 Rotational temperature (Kelvin)      1.61863
 Rotational constant (GHZ):          33.726746
    2 imaginary frequencies ignored.
 Zero-point vibrational energy      12283.3 (Joules/Mol)
                                    2.93577 (Kcal/Mol)
 Vibrational temperatures:   1477.34  1477.34
          (Kelvin)

 Zero-point correction=                           0.004678 (Hartree/Particle)
 Thermal correction to Energy=                    0.007105
 Thermal correction to Enthalpy=                  0.008050
 Thermal correction to Gibbs Free Energy=        -0.015216
 Sum of electronic and zero-point Energies=           -100.863385
 Sum of electronic and thermal Energies=              -100.860958
 Sum of electronic and thermal Enthalpies=            -100.860014
 Sum of electronic and thermal Free Energies=         -100.883279

                     E (Thermal)             CV                S
                      KCal/Mol        Cal/Mol-Kelvin    Cal/Mol-Kelvin
 Total                    4.459              5.666             48.966
 Electronic               0.000              0.000              1.377
 Translational            0.889              2.981             35.068
 Rotational               0.592              1.987             12.352
 Vibrational              2.977              0.698              0.168

 Normal termination of Gaussian 16 at Fri Aug 22 16:23:03 2025.
