 Gaussian 16, Revision C.01,
 Gaussian 16:  ES64L-G16RevC.01  3-Jul-2019

 -----------------------------------------
 # sp b3lyp/6-311g** Force nosymm scf=(qc)
 -----------------------------------------

 -------------------
 Title Card Required
 -------------------
 Symbolic Z-matrix:
 Charge =  0 Multiplicity = 2

                          Input orientation:
 ---------------------------------------------------------------------
 Center     Atomic      Atomic             Coordinates (Angstroms)
 Number     Number       Type             X           Y           Z
 ---------------------------------------------------------------------
      1          1           0        0.000000    0.000000    0.000000
      2          1           0       -1.250000    0.000000    0.000000
      3          9           0        2.900000    0.000000    0.000000
 ---------------------------------------------------------------------

 SCF Done:  E(UB3LYP) =  -100.863314901     a.u. after   16 cycles

 Alpha  occ. eigenvalues --  -24.76779  -1.22590  -0.55775  -0.47048  -0.46925
 Alpha  occ. eigenvalues --   -0.35599
 Alpha virt. eigenvalues --   -0.04852   0.23434   0.33934   0.85695   0.90566
 Alpha virt. eigenvalues --    0.93350   1.04672   1.14270   1.14277   1.18974
 Alpha virt. eigenvalues --    1.52026   1.52034   2.04000   2.30920   2.54978

  Beta  occ. eigenvalues --  -24.73617  -1.13503  -0.43891  -0.43755  -0.35582
  Beta virt. eigenvalues --   -0.26397  -0.04831   0.23457   0.34018   0.92065
  Beta virt. eigenvalues --    0.95081   0.95150   1.08488   1.14269   1.14276
  Beta virt. eigenvalues --    1.18976   1.52024   1.52032   2.04009   2.30922

 Mulliken charges and spin densities:
               1          2
     1  H   -0.001359  -0.000016
     2  H   -0.007695  -0.001223
     3  F    0.009054   1.001239
 Sum of Mulliken charges =   0.00000   1.00000

 Dipole moment (field-independent basis, Debye):
    X=              0.1245    Y=             -0.0000    Z=              0.0000  Tot=              0.1245
 Quadrupole moment (field-independent basis, Debye-Ang):
   XX=             -6.1320   YY=             -6.6900   ZZ=             -7.5531
   XY=             -0.0000   XZ=             -0.0000   YZ=              0.0123

  Exact polarizability:      17.719       0.000       2.542       0.000       0.007       2.082
 Approx polarizability:      27.221      -0.000       2.683      -0.000       0.008       2.105

 ******    1 imaginary frequencies (negative Signs) ******

                      1                      2                      3
                      A                      A                      A
 Frequencies --   -789.6031                43.4279              1427.3140
 Red. masses --      1.0078                 1.1085                 1.0109
 Frc consts  --      0.3702                 0.0012                 1.2134
 IR Inten    --      1.6080                 0.7868                 0.0073

                      4
                      A
 Frequencies --   1431.8268
 Red. masses --      1.0109
 Frc consts  --      1.2211
 IR Inten    --      0.0045

 - Thermochemistry -
 -------------------
 Temperature   298.150 Kelvin.  Pressure   1.00000 Atm.
 Atom     1 has atomic number  1 and mass   1.00783

 Molecular mass:    21.01405 amu.
 Principal axes and moments of inertia in atomic units:
                           1         2         3
     Eigenvalues --     0.00000  83.67259  83.67259
           X            1.00000  -0.00000   0.00000
           Y            0.00000   1.00000   0.00000
           Z            0.00000   0.00000   1.00000
 This molecule is a prolate symmetric top.
 Rotational symmetry number  1.
 Rotational temperature (Kelvin)      1.03515
 Rotational constant (GHZ):          21.569085
    1 imaginary frequencies ignored.
 Zero-point vibrational energy      17361.2 (Joules/Mol)
                                    4.14943 (Kcal/Mol)
 Warning -- explicit consideration of   1 degrees of freedom as
           vibrations may cause significant error
 Vibrational temperatures:     62.48  2053.59  2060.08
          (Kelvin)

 Zero-point correction=                           0.006613 (Hartree/Particle)
 Thermal correction to Energy=                    0.009835
 Thermal correction to Enthalpy=                  0.010779
 Thermal correction to Gibbs Free Energy=        -0.015265
 Sum of electronic and zero-point Energies=           -100.856702
 Sum of electronic and thermal Energies=              -100.853480
 Sum of electronic and thermal Enthalpies=            -100.852536
 Sum of electronic and thermal Free Energies=         -100.878580

                     E (Thermal)             CV                S
                      KCal/Mol        Cal/Mol-Kelvin    Cal/Mol-Kelvin
 Total                    6.171              7.139             54.814
 Electronic               0.000              0.000              1.377
 Translational            0.889              2.981             35.068
 Rotational               0.592              1.987             13.241
 Vibrational              4.690              2.171              5.128
 Vibration     1          0.595              1.980              5.096

 Normal termination of Gaussian 16 at Fri Aug 22 19:00:14 2025.
