 Gaussian 16, Revision C.01,
 Gaussian 16:  ES64L-G16RevC.01  3-Jul-2019

 -----------------------------------------
 # sp b3lyp/6-311g** Force nosymm scf=(qc)
 -----------------------------------------

 -------------------
 Title Card Required
 -------------------
 Symbolic Z-matrix:
 Charge =  0 Multiplicity = 2

                          Input orientation:
 ---------------------------------------------------------------------
 Center     Atomic      Atomic             Coordinates (Angstroms)
 Number     Number       Type             X           Y           Z
 ---------------------------------------------------------------------
      1          1           0        0.000000    0.000000    0.000000
      2          1           0       -2.300000    0.000000    0.000000
      3          9           0        0.950000    0.000000    0.000000
 ---------------------------------------------------------------------

 SCF Done:  E(UB3LYP) =  -100.971519051     a.u. after    6 cycles

 Alpha  occ. eigenvalues --  -24.63921  -1.17295  -0.52702  -0.39055  -0.39055
 Alpha  occ. eigenvalues --   -0.35314
 Alpha virt. eigenvalues --    0.03852   0.24971   0.36616   0.94368   0.94368
 Alpha virt. eigenvalues --    0.97953   1.17329   1.22225   1.22225   1.36647
 Alpha virt. eigenvalues --    1.36647   1.43067   1.95522   2.13914   2.35392

  Beta  occ. eigenvalues --  -24.63889  -1.17214  -0.52550  -0.39027  -0.39027
  Beta virt. eigenvalues --   -0.10647   0.05745   0.35749   0.37270   0.94372
  Beta virt. eigenvalues --    0.94372   0.98179   1.26826   1.36551   1.36551
  Beta virt. eigenvalues --    1.43106   1.43106   1.53908   1.95748   2.34504

 Mulliken charges and spin densities:
               1          2
     1  H    0.300349   0.004373
     2  H    0.009287   0.986395
     3  F   -0.309636   0.009232
 Sum of Mulliken charges =   0.00000   1.00000

 Dipole moment (field-independent basis, Debye):
    X=             -2.0692    Y=             -0.0000    Z=              0.0000  Tot=              2.0692
 Quadrupole moment (field-independent basis, Debye-Ang):
   XX=             -7.7675   YY=             -6.9008   ZZ=             -6.9008
   XY=              0.0000   XZ=              0.0000   YZ=             -0.0000

  Exact polarizability:       8.736       0.000       2.452      -0.000       0.000       2.452
 Approx polarizability:       9.568      -0.000       2.433       0.000       0.000       2.433

                      1                      2                      3
                      A                      A                      A
 Frequencies --     49.1190               651.4327               651.4327
 Red. masses --      1.0529                 1.0312                 1.0312
 Frc consts  --      0.0015                 0.2578                 0.2578
 IR Inten    --      1.2818               154.3436               154.3436

                      4
                      A
 Frequencies --   3662.9497
 Red. masses --      1.0587
 Frc consts  --      8.3688
 IR Inten    --    144.0973

 - Thermochemistry -
 -------------------
 Temperature   298.150 Kelvin.  Pressure   1.00000 Atm.
 Atom     1 has atomic number  1 and mass   1.00783

 Molecular mass:    21.01405 amu.
 Principal axes and moments of inertia in atomic units:
                           1         2         3
     Eigenvalues --     0.00000  38.21785  38.21785
           X            1.00000  -0.00000   0.00000
           Y            0.00000   1.00000   0.00000
           Z            0.00000   0.00000   1.00000
 This molecule is a prolate symmetric top.
 Rotational symmetry number  1.
 Rotational temperature (Kelvin)      2.26632
 Rotational constant (GHZ):          47.222472
 Zero-point vibrational energy      29996.0 (Joules/Mol)
                                    7.16921 (Kcal/Mol)
 Warning -- explicit consideration of   1 degrees of freedom as
           vibrations may cause significant error
 Vibrational temperatures:     70.67   937.27   937.27  5270.17
          (Kelvin)

 Zero-point correction=                           0.011425 (Hartree/Particle)
 Thermal correction to Energy=                    0.014890
 Thermal correction to Enthalpy=                  0.015834
 Thermal correction to Gibbs Free Energy=        -0.009690
 Sum of electronic and zero-point Energies=           -100.960094
 Sum of electronic and thermal Energies=              -100.956629
 Sum of electronic and thermal Enthalpies=            -100.955685
 Sum of electronic and thermal Free Energies=         -100.981209

                     E (Thermal)             CV                S
                      KCal/Mol        Cal/Mol-Kelvin    Cal/Mol-Kelvin
 Total                    9.343              8.796             53.720
 Electronic               0.000              0.000              1.377
 Translational            0.889              2.981             35.068
 Rotational               0.592              1.987             11.684
 Vibrational              7.862              3.828              5.591
 Vibration     1          0.595              1.978              4.853

 Normal termination of Gaussian 16 at Fri Aug 22 15:58:21 2025.
