 Gaussian 16, Revision C.01,
 Gaussian 16:  ES64L-G16RevC.01  3-Jul-2019

 -----------------------------------------
 # sp b3lyp/6-311g** Force nosymm scf=(qc)
 -----------------------------------------

 -------------------
 Title Card Required
 -------------------
 Symbolic Z-matrix:
 Charge =  0 Multiplicity = 2

                          Input orientation:
 ---------------------------------------------------------------------
 Center     Atomic      Atomic             Coordinates (Angstroms)
 Number     Number       Type             X           Y           Z
 ---------------------------------------------------------------------
      1          1           0        0.000000    0.000000    0.000000
      2          1           0       -3.800000    0.000000    0.000000
      3          9           0        1.750000    0.000000    0.000000
 ---------------------------------------------------------------------

 SCF Done:  E(UB3LYP) =  -100.805539730     a.u. after   10 cycles

 Alpha  occ. eigenvalues --  -24.64226  -1.08741  -0.40503  -0.35944  -0.35944
 Alpha  occ. eigenvalues --   -0.33782
 Alpha virt. eigenvalues --   -0.19680   0.19858   0.26985   0.94496   0.95254
 Alpha virt. eigenvalues --    0.95254   1.07551   1.23695   1.23722   1.23722
 Alpha virt. eigenvalues --    1.26775   1.26775   1.68049   2.12143   2.16607

  Beta  occ. eigenvalues --  -24.64232  -1.08758  -0.40510  -0.35950  -0.35950
  Beta virt. eigenvalues --   -0.19713  -0.06527   0.22460   0.38090   0.94517
  Beta virt. eigenvalues --    0.95258   0.95258   1.07553   1.26830   1.26830
  Beta virt. eigenvalues --    1.45951   1.46326   1.46326   1.68095   2.15088

 Mulliken charges and spin densities:
               1          2
     1  H    0.320529   0.003146
     2  H    0.001263   0.998684
     3  F   -0.321792  -0.001830
 Sum of Mulliken charges =   0.00000   1.00000

 Dipole moment (field-independent basis, Debye):
    X=             -2.8076    Y=              0.0000    Z=              0.0000  Tot=              2.8076
 Quadrupole moment (field-independent basis, Debye-Ang):
   XX=            -10.8791   YY=             -7.4390   ZZ=             -7.4390
   XY=              0.0000   XZ=             -0.0000   YZ=              0.0000

  Exact polarizability:      20.731       0.000       2.084      -0.000      -0.000       2.084
 Approx polarizability:      52.020      -0.000       1.994      -0.000      -0.000       1.994

 ******    2 imaginary frequencies (negative Signs) ******

                      1                      2                      3
                      A                      A                      A
 Frequencies --  -1171.8762               -66.2002               835.3375
 Red. masses --      1.0578                 1.0537                 1.0294
 Frc consts  --      0.8559                 0.0027                 0.4232
 IR Inten    --     31.2017                 0.1605                99.6653

                      4
                      A
 Frequencies --    835.3375
 Red. masses --      1.0294
 Frc consts  --      0.4232
 IR Inten    --     99.6653

 - Thermochemistry -
 -------------------
 Temperature   298.150 Kelvin.  Pressure   1.00000 Atm.
 Atom     1 has atomic number  1 and mass   1.00783

 Molecular mass:    21.01405 amu.
 Principal axes and moments of inertia in atomic units:
                           1         2         3
     Eigenvalues --     0.00000 112.68220 112.68220
           X            1.00000  -0.00000   0.00000
           Y            0.00000   1.00000   0.00000
           Z            0.00000   0.00000   1.00000
 This molecule is a prolate symmetric top.
 Rotational symmetry number  1.
 Rotational temperature (Kelvin)      0.76866
 Rotational constant (GHZ):          16.016205
    2 imaginary frequencies ignored.
 Zero-point vibrational energy       9992.9 (Joules/Mol)
                                    2.38835 (Kcal/Mol)
 Vibrational temperatures:   1201.86  1201.86
          (Kelvin)

 Zero-point correction=                           0.003806 (Hartree/Particle)
 Thermal correction to Energy=                    0.006304
 Thermal correction to Enthalpy=                  0.007248
 Thermal correction to Gibbs Free Energy=        -0.016812
 Sum of electronic and zero-point Energies=           -100.801734
 Sum of electronic and thermal Energies=              -100.799236
 Sum of electronic and thermal Enthalpies=            -100.798291
 Sum of electronic and thermal Free Energies=         -100.822351

                     E (Thermal)             CV                S
                      KCal/Mol        Cal/Mol-Kelvin    Cal/Mol-Kelvin
 Total                    3.956              6.157             50.639
 Electronic               0.000              0.000              1.377
 Translational            0.889              2.981             35.068
 Rotational               0.592              1.987             13.832
 Vibrational              2.475              1.189              0.361

 Normal termination of Gaussian 16 at Fri Aug 22 16:42:01 2025.
