 Gaussian 16, Revision C.01,
 Gaussian 16:  ES64L-G16RevC.01  3-Jul-2019

 -----------------------------------------
 # sp b3lyp/6-311g** Force nosymm scf=(qc)
 -----------------------------------------

 -------------------
 Title Card Required
 -------------------
 Symbolic Z-matrix:
 Charge =  0 Multiplicity = 2

                          Input orientation:
 ---------------------------------------------------------------------
 Center     Atomic      Atomic             Coordinates (Angstroms)
 Number     Number       Type             X           Y           Z
 ---------------------------------------------------------------------
      1          1           0        0.000000    0.000000    0.000000
      2          1           0       -1.700000    0.000000    0.000000
      3          9           0        1.350000    0.000000    0.000000
 ---------------------------------------------------------------------

 SCF Done:  E(UB3LYP) =  -100.897085158     a.u. after    7 cycles

 Alpha  occ. eigenvalues --  -24.63520  -1.10486  -0.46665  -0.37666  -0.36268
 Alpha  occ. eigenvalues --   -0.36268
 Alpha virt. eigenvalues --   -0.05716   0.21818   0.28106   0.93761   0.93761
 Alpha virt. eigenvalues --    1.01231   1.03445   1.17820   1.17820   1.36805
 Alpha virt. eigenvalues --    1.36805   1.48432   1.74465   2.15134   2.35078

  Beta  occ. eigenvalues --  -24.62921  -1.08934  -0.43772  -0.35709  -0.35709
  Beta virt. eigenvalues --   -0.18819  -0.01923   0.25935   0.31119   0.93738
  Beta virt. eigenvalues --    0.93738   1.04153   1.08460   1.28747   1.28747
  Beta virt. eigenvalues --    1.39913   1.39913   1.54430   1.78424   2.22929

 Mulliken charges and spin densities:
               1          2
     1  H    0.307363  -0.081872
     2  H    0.055759   0.898768
     3  F   -0.363122   0.183104
 Sum of Mulliken charges =  -0.00000   1.00000

 Dipole moment (field-independent basis, Debye):
    X=             -2.9399    Y=             -0.0000    Z=             -0.0000  Tot=              2.9399
 Quadrupole moment (field-independent basis, Debye-Ang):
   XX=             -8.3224   YY=             -7.1509   ZZ=             -7.1509
   XY=             -0.0000   XZ=             -0.0000   YZ=              0.0000

  Exact polarizability:      24.358       0.000       2.338       0.000       0.000       2.338
 Approx polarizability:      32.738      -0.000       2.290       0.000       0.000       2.290

 ******    2 imaginary frequencies (negative Signs) ******

                      1                      2                      3
                      A                      A                      A
 Frequencies --  -1848.5067              -225.9326              1085.9624
 Red. masses --      1.0257                 1.0876                 1.0210
 Frc consts  --      2.0650                 0.0327                 0.7094
 IR Inten    --     70.6274                 7.9976                65.7055

                      4
                      A
 Frequencies --   1085.9624
 Red. masses --      1.0210
 Frc consts  --      0.7094
 IR Inten    --     65.7055

 - Thermochemistry -
 -------------------
 Temperature   298.150 Kelvin.  Pressure   1.00000 Atm.
 Atom     1 has atomic number  1 and mass   1.00783

 Molecular mass:    21.01405 amu.
 Principal axes and moments of inertia in atomic units:
                           1         2         3
     Eigenvalues --     0.00000  36.69730  36.69730
           X            1.00000  -0.00000   0.00000
           Y            0.00000   1.00000   0.00000
           Z            0.00000   0.00000   1.00000
 This molecule is a prolate symmetric top.
 Rotational symmetry number  1.
 Rotational temperature (Kelvin)      2.36023
 Rotational constant (GHZ):          49.179128
    2 imaginary frequencies ignored.
 Zero-point vibrational energy      12991.0 (Joules/Mol)
                                    3.10492 (Kcal/Mol)
 Vibrational temperatures:   1562.46  1562.46
          (Kelvin)

 Zero-point correction=                           0.004948 (Hartree/Particle)
 Thermal correction to Energy=                    0.007361
 Thermal correction to Enthalpy=                  0.008305
 Thermal correction to Gibbs Free Energy=        -0.014587
 Sum of electronic and zero-point Energies=           -100.892137
 Sum of electronic and thermal Energies=              -100.889724
 Sum of electronic and thermal Enthalpies=            -100.888780
 Sum of electronic and thermal Free Energies=         -100.911672

                     E (Thermal)             CV                S
                      KCal/Mol        Cal/Mol-Kelvin    Cal/Mol-Kelvin
 Total                    4.619              5.552             48.180
 Electronic               0.000              0.000              1.377
 Translational            0.889              2.981             35.068
 Rotational               0.592              1.987             11.603
 Vibrational              3.138              0.584              0.132

 Normal termination of Gaussian 16 at Fri Aug 22 16:17:23 2025.
