 Gaussian 16, Revision C.01,
 Gaussian 16:  ES64L-G16RevC.01  3-Jul-2019

 -----------------------------------------
 # sp b3lyp/6-311g** Force nosymm scf=(qc)
 -----------------------------------------

 -------------------
 Title Card Required
 -------------------
 Symbolic Z-matrix:
 Charge =  0 Multiplicity = 2

                          Input orientation:
 ---------------------------------------------------------------------
 Center     Atomic      Atomic             Coordinates (Angstroms)
 Number     Number       Type             X           Y           Z
 ---------------------------------------------------------------------
      1          1           0        0.000000    0.000000    0.000000
      2          1           0       -3.000000    0.000000    0.000000
      3          9           0        3.200000    0.000000    0.000000
 ---------------------------------------------------------------------

 SCF Done:  E(UB3LYP) =  -100.760853352     a.u. after   24 cycles

 Alpha  occ. eigenvalues --  -24.74742  -1.20752  -0.53862  -0.45225  -0.45225
 Alpha  occ. eigenvalues --   -0.32585
 Alpha virt. eigenvalues --   -0.08557   0.24807   0.35383   0.88702   0.91878
 Alpha virt. eigenvalues --    0.91878   1.02883   1.24952   1.24952   1.25709
 Alpha virt. eigenvalues --    1.43126   1.43126   1.43296   2.15599   2.39370

  Beta  occ. eigenvalues --  -24.71670  -1.11938  -0.42148  -0.42148  -0.33331
  Beta virt. eigenvalues --   -0.25145  -0.07575   0.24660   0.36722   0.93353
  Beta virt. eigenvalues --    0.93353   0.97632   1.06784   1.24078   1.24078
  Beta virt. eigenvalues --    1.24798   1.44651   1.44687   1.44687   2.16122

 Mulliken charges and spin densities:
               1          2
     1  H    0.022791  -0.966167
     2  H    0.001162   0.992563
     3  F   -0.023953   0.973604
 Sum of Mulliken charges =  -0.00000   1.00000

 Dipole moment (field-independent basis, Debye):
    X=             -0.4105    Y=              0.0000    Z=              0.0000  Tot=              0.4105
 Quadrupole moment (field-independent basis, Debye-Ang):
   XX=             -7.8106   YY=             -7.6290   ZZ=             -7.6290
   XY=             -0.0000   XZ=             -0.0000   YZ=              0.0000

  Exact polarizability:      32.890      -0.000       2.025      -0.000      -0.000       2.025
 Approx polarizability:      29.076      -0.000       1.928      -0.000       0.000       1.928

 ******    2 imaginary frequencies (negative Signs) ******

                      1                      2                      3
                      A                      A                      A
 Frequencies --   -398.5320              -166.5399               143.2745
 Red. masses --      1.0178                 1.0967                 1.0172
 Frc consts  --      0.0952                 0.0179                 0.0123
 IR Inten    --     20.9069                 6.1561                 0.4523

                      4
                      A
 Frequencies --    143.2745
 Red. masses --      1.0172
 Frc consts  --      0.0123
 IR Inten    --      0.4523

 - Thermochemistry -
 -------------------
 Temperature   298.150 Kelvin.  Pressure   1.00000 Atm.
 Atom     1 has atomic number  1 and mass   1.00783

 Molecular mass:    21.01405 amu.
 Principal axes and moments of inertia in atomic units:
                           1         2         3
     Eigenvalues --     0.00000 159.94819 159.94819
           X            1.00000  -0.00000   0.00000
           Y            0.00000   1.00000   0.00000
           Z            0.00000   0.00000   1.00000
 This molecule is a prolate symmetric top.
 Rotational symmetry number  1.
 Rotational temperature (Kelvin)      0.54151
 Rotational constant (GHZ):          11.283286
    2 imaginary frequencies ignored.
 Zero-point vibrational energy       1713.9 (Joules/Mol)
                                    0.40964 (Kcal/Mol)
 Warning -- explicit consideration of   2 degrees of freedom as
           vibrations may cause significant error
 Vibrational temperatures:    206.14   206.14
          (Kelvin)

 Zero-point correction=                           0.000653 (Hartree/Particle)
 Thermal correction to Energy=                    0.004323
 Thermal correction to Enthalpy=                  0.005268
 Thermal correction to Gibbs Free Energy=        -0.021574
 Sum of electronic and zero-point Energies=           -100.760201
 Sum of electronic and thermal Energies=              -100.756530
 Sum of electronic and thermal Enthalpies=            -100.755586
 Sum of electronic and thermal Free Energies=         -100.782427

                     E (Thermal)             CV                S
                      KCal/Mol        Cal/Mol-Kelvin    Cal/Mol-Kelvin
 Total                    2.713              8.788             56.493
 Electronic               0.000              0.000              1.377
 Translational            0.889              2.981             35.068
 Rotational               0.592              1.987             14.528
 Vibrational              1.232              3.820              5.519
 Vibration     1          0.616              1.910              2.760
 Vibration     2          0.616              1.910              2.760

 Normal termination of Gaussian 16 at Fri Aug 22 20:24:22 2025.
