 Gaussian 16, Revision C.01,
 Gaussian 16:  ES64L-G16RevC.01  3-Jul-2019

 -----------------------------------------
 # sp b3lyp/6-311g** Force nosymm scf=(qc)
 -----------------------------------------

 -------------------
 Title Card Required
 -------------------
 Symbolic Z-matrix:
 Charge =  0 Multiplicity = 2

                          Input orientation:
 ---------------------------------------------------------------------
 Center     Atomic      Atomic             Coordinates (Angstroms)
 Number     Number       Type             X           Y           Z
 ---------------------------------------------------------------------
      1          1           0        0.000000    0.000000    0.000000
      2          1           0       -3.450000    0.000000    0.000000
      3          9           0        2.150000    0.000000    0.000000
 ---------------------------------------------------------------------

 SCF Done:  E(UB3LYP) =  -100.778311273     a.u. after   17 cycles

 Alpha  occ. eigenvalues --  -24.66746  -1.08409  -0.38138  -0.38138  -0.37076
 Alpha  occ. eigenvalues --   -0.33185
 Alpha virt. eigenvalues --   -0.21626   0.20511   0.27905   0.90880   0.95659
 Alpha virt. eigenvalues --    0.95659   1.08231   1.21528   1.21528   1.24253
 Alpha virt. eigenvalues --    1.24253   1.24339   1.44760   2.11147   2.15255

  Beta  occ. eigenvalues --  -24.69313  -1.15636  -0.48353  -0.40679  -0.40679
  Beta virt. eigenvalues --   -0.12962  -0.04723   0.30656   0.40050   0.88439
  Beta virt. eigenvalues --    0.94668   0.94668   1.06026   1.37055   1.37055
  Beta virt. eigenvalues --    1.47655   1.47655   1.47873   1.53904   2.31759

 Mulliken charges and spin densities:
               1          2
     1  H    0.155761   0.809318
     2  H    0.001379   0.998655
     3  F   -0.157140  -0.807973
 Sum of Mulliken charges =   0.00000   1.00000

 Dipole moment (field-independent basis, Debye):
    X=             -1.7099    Y=              0.0000    Z=             -0.0000  Tot=              1.7099
 Quadrupole moment (field-independent basis, Debye-Ang):
   XX=             -9.9252   YY=             -7.5081   ZZ=             -7.5081
   XY=              0.0000   XZ=             -0.0000   YZ=             -0.0000

  Exact polarizability:      28.401       0.000       2.045      -0.000       0.000       2.045
 Approx polarizability:      39.776       0.000       1.933      -0.000      -0.000       1.933

 ******    1 imaginary frequencies (negative Signs) ******

                      1                      2                      3
                      A                      A                      A
 Frequencies --   -910.7436                75.0568               382.3104
 Red. masses --      1.0594                 1.0522                 1.0246
 Frc consts  --      0.5177                 0.0035                 0.0882
 IR Inten    --    101.1705                 0.2696                22.8508

                      4
                      A
 Frequencies --    382.3104
 Red. masses --      1.0246
 Frc consts  --      0.0882
 IR Inten    --     22.8508

 - Thermochemistry -
 -------------------
 Temperature   298.150 Kelvin.  Pressure   1.00000 Atm.
 Atom     1 has atomic number  1 and mass   1.00783

 Molecular mass:    21.01405 amu.
 Principal axes and moments of inertia in atomic units:
                           1         2         3
     Eigenvalues --     0.00000 119.13412 119.13412
           X            1.00000  -0.00000   0.00000
           Y            0.00000   1.00000   0.00000
           Z            0.00000   0.00000   1.00000
 This molecule is a prolate symmetric top.
 Rotational symmetry number  1.
 Rotational temperature (Kelvin)      0.72703
 Rotational constant (GHZ):          15.148819
    1 imaginary frequencies ignored.
 Zero-point vibrational energy       5022.4 (Joules/Mol)
                                    1.20038 (Kcal/Mol)
 Warning -- explicit consideration of   3 degrees of freedom as
           vibrations may cause significant error
 Vibrational temperatures:    107.99   550.06   550.06
          (Kelvin)

 Zero-point correction=                           0.001913 (Hartree/Particle)
 Thermal correction to Energy=                    0.005711
 Thermal correction to Enthalpy=                  0.006655
 Thermal correction to Gibbs Free Energy=        -0.020173
 Sum of electronic and zero-point Energies=           -100.776398
 Sum of electronic and thermal Energies=              -100.772600
 Sum of electronic and thermal Enthalpies=            -100.771656
 Sum of electronic and thermal Free Energies=         -100.798484

                     E (Thermal)             CV                S
                      KCal/Mol        Cal/Mol-Kelvin    Cal/Mol-Kelvin
 Total                    3.584              9.949             56.465
 Electronic               0.000              0.000              1.377
 Translational            0.889              2.981             35.068
 Rotational               0.592              1.987             13.943
 Vibrational              2.102              4.981              6.076
 Vibration     1          0.599              1.966              4.016
 Vibration     2          0.752              1.508              1.030
 Vibration     3          0.752              1.508              1.030

 Normal termination of Gaussian 16 at Fri Aug 22 17:09:04 2025.
