 Gaussian 16, Revision C.01,
 Gaussian 16:  ES64L-G16RevC.01  3-Jul-2019

 -----------------------------------------
 # sp b3lyp/6-311g** Force nosymm scf=(qc)
 -----------------------------------------

 -------------------
 Title Card Required
 -------------------
 Symbolic Z-matrix:
 Charge =  0 Multiplicity = 2

                          Input orientation:
 ---------------------------------------------------------------------
 Center     Atomic      Atomic             Coordinates (Angstroms)
 Number     Number       Type             X           Y           Z
 ---------------------------------------------------------------------
      1          1           0        0.000000    0.000000    0.000000
      2          1           0       -1.850000    0.000000    0.000000
      3          9           0        1.550000    0.000000    0.000000
 ---------------------------------------------------------------------

 SCF Done:  E(UB3LYP) =  -100.854411228     a.u. after   12 cycles

 Alpha  occ. eigenvalues --  -24.64266  -1.10480  -0.44690  -0.37758  -0.36450
 Alpha  occ. eigenvalues --   -0.36450
 Alpha virt. eigenvalues --   -0.11075   0.22594   0.28105   0.94396   0.94396
 Alpha virt. eigenvalues --    0.96750   1.04525   1.19149   1.19149   1.34561
 Alpha virt. eigenvalues --    1.34561   1.36573   1.74094   2.11522   2.30549

  Beta  occ. eigenvalues --  -24.63149  -1.07490  -0.40941  -0.35381  -0.35381
  Beta virt. eigenvalues --   -0.19733  -0.07530   0.25647   0.30955   0.94214
  Beta virt. eigenvalues --    0.94214   1.00500   1.07031   1.28245   1.28245
  Beta virt. eigenvalues --    1.36599   1.36599   1.46151   1.74947   2.15646

 Mulliken charges and spin densities:
               1          2
     1  H    0.273866  -0.243230
     2  H    0.057680   0.893647
     3  F   -0.331546   0.349583
 Sum of Mulliken charges =   0.00000   1.00000

 Dipole moment (field-independent basis, Debye):
    X=             -3.0356    Y=              0.0000    Z=             -0.0000  Tot=              3.0356
 Quadrupole moment (field-independent basis, Debye-Ang):
   XX=             -8.6800   YY=             -7.3207   ZZ=             -7.3207
   XY=              0.0000   XZ=              0.0000   YZ=              0.0000

  Exact polarizability:      34.209       0.000       2.219       0.000       0.000       2.219
 Approx polarizability:      46.946       0.000       2.147       0.000      -0.000       2.147

 ******    2 imaginary frequencies (negative Signs) ******

                      1                      2                      3
                      A                      A                      A
 Frequencies --  -2175.2922              -494.5320               951.7303
 Red. masses --      1.0319                 1.0808                 1.0202
 Frc consts  --      2.8768                 0.1557                 0.5445
 IR Inten    --     23.5415                 0.4934                49.0077

                      4
                      A
 Frequencies --    951.7303
 Red. masses --      1.0202
 Frc consts  --      0.5445
 IR Inten    --     49.0077

 - Thermochemistry -
 -------------------
 Temperature   298.150 Kelvin.  Pressure   1.00000 Atm.
 Atom     1 has atomic number  1 and mass   1.00783

 Molecular mass:    21.01405 amu.
 Principal axes and moments of inertia in atomic units:
                           1         2         3
     Eigenvalues --     0.00000  46.02186  46.02186
           X            1.00000  -0.00000   0.00000
           Y            0.00000   1.00000   0.00000
           Z            0.00000   0.00000   1.00000
 This molecule is a prolate symmetric top.
 Rotational symmetry number  1.
 Rotational temperature (Kelvin)      1.88202
 Rotational constant (GHZ):          39.214872
    2 imaginary frequencies ignored.
 Zero-point vibrational energy      11385.2 (Joules/Mol)
                                    2.72113 (Kcal/Mol)
 Vibrational temperatures:   1369.33  1369.33
          (Kelvin)

 Zero-point correction=                           0.004336 (Hartree/Particle)
 Thermal correction to Energy=                    0.006786
 Thermal correction to Enthalpy=                  0.007730
 Thermal correction to Gibbs Free Energy=        -0.015421
 Sum of electronic and zero-point Energies=           -100.850075
 Sum of electronic and thermal Energies=              -100.847626
 Sum of electronic and thermal Enthalpies=            -100.846681
 Sum of electronic and thermal Free Energies=         -100.869833

                     E (Thermal)             CV                S
                      KCal/Mol        Cal/Mol-Kelvin    Cal/Mol-Kelvin
 Total                    4.258              5.834             48.725
 Electronic               0.000              0.000              1.377
 Translational            0.889              2.981             35.068
 Rotational               0.592              1.987             12.053
 Vibrational              2.777              0.866              0.227

 Normal termination of Gaussian 16 at Fri Aug 22 16:28:09 2025.
