 Gaussian 16, Revision C.01,
 Gaussian 16:  ES64L-G16RevC.01  3-Jul-2019

 -----------------------------------------
 # sp b3lyp/6-311g** Force nosymm scf=(qc)
 -----------------------------------------

 -------------------
 Title Card Required
 -------------------
 Symbolic Z-matrix:
 Charge =  0 Multiplicity = 2

                          Input orientation:
 ---------------------------------------------------------------------
 Center     Atomic      Atomic             Coordinates (Angstroms)
 Number     Number       Type             X           Y           Z
 ---------------------------------------------------------------------
      1          1           0        0.000000    0.000000    0.000000
      2          1           0       -3.950000    0.000000    0.000000
      3          9           0        0.500000    0.000000    0.000000
 ---------------------------------------------------------------------

 SCF Done:  E(UB3LYP) =  -100.268948729     a.u. after    6 cycles

 Alpha  occ. eigenvalues --  -24.63032  -1.42358  -0.63508  -0.44339  -0.44339
 Alpha  occ. eigenvalues --   -0.33025
 Alpha virt. eigenvalues --    0.08062   0.24561   0.62095   0.88990   0.90146
 Alpha virt. eigenvalues --    0.90146   1.24406   1.24477   1.24477   1.35898
 Alpha virt. eigenvalues --    1.58510   1.58510   2.00231   2.14366   3.76628

  Beta  occ. eigenvalues --  -24.63032  -1.42358  -0.63508  -0.44339  -0.44339
  Beta virt. eigenvalues --   -0.04989   0.08187   0.38566   0.62074   0.88987
  Beta virt. eigenvalues --    0.90145   0.90145   1.35698   1.48190   1.48601
  Beta virt. eigenvalues --    1.48601   1.58511   1.58511   2.00196   2.46347

 Mulliken charges and spin densities:
               1          2
     1  H    0.126870   0.000221
     2  H    0.000300   0.999675
     3  F   -0.127170   0.000104
 Sum of Mulliken charges =   0.00000   1.00000

 Dipole moment (field-independent basis, Debye):
    X=             -1.2938    Y=              0.0000    Z=             -0.0000  Tot=              1.2938
 Quadrupole moment (field-independent basis, Debye-Ang):
   XX=             -6.6840   YY=             -6.4387   ZZ=             -6.4387
   XY=              0.0000   XZ=             -0.0000   YZ=              0.0000

  Exact polarizability:       2.789       0.000       2.410      -0.000      -0.000       2.410
 Approx polarizability:       2.974      -0.000       2.385       0.000       0.000       2.385

 ******    3 imaginary frequencies (negative Signs) ******

                      1                      2                      3
                      A                      A                      A
 Frequencies --  -9611.8720             -9611.8720               -23.6277
 Red. masses --      1.0471                 1.0471                 1.0532
 Frc consts  --     56.9990                56.9990                 0.0003
 IR Inten    --    286.3023               286.3023                 0.0066

                      4
                      A
 Frequencies --  19159.4178
 Red. masses --      1.0583
 Frc consts  --    228.8905
 IR Inten    --     75.6241

 - Thermochemistry -
 -------------------
 Temperature   298.150 Kelvin.  Pressure   1.00000 Atm.
 Atom     1 has atomic number  1 and mass   1.00783

 Molecular mass:    21.01405 amu.
 Principal axes and moments of inertia in atomic units:
                           1         2         3
     Eigenvalues --     0.00000  67.93982  67.93982
           X            1.00000  -0.00000   0.00000
           Y            0.00000   1.00000   0.00000
           Z            0.00000   0.00000   1.00000
 This molecule is a prolate symmetric top.
 Rotational symmetry number  1.
 Rotational temperature (Kelvin)      1.27486
 Rotational constant (GHZ):          26.563822
    3 imaginary frequencies ignored.
 Zero-point vibrational energy     114598.8 (Joules/Mol)
                                   27.38976 (Kcal/Mol)
 Vibrational temperatures:  27566.13
          (Kelvin)

 Zero-point correction=                           0.043648 (Hartree/Particle)
 Thermal correction to Energy=                    0.046009
 Thermal correction to Enthalpy=                  0.046953
 Thermal correction to Gibbs Free Energy=         0.023542
 Sum of electronic and zero-point Energies=           -100.225300
 Sum of electronic and thermal Energies=              -100.222940
 Sum of electronic and thermal Enthalpies=            -100.221996
 Sum of electronic and thermal Free Energies=         -100.245407

                     E (Thermal)             CV                S
                      KCal/Mol        Cal/Mol-Kelvin    Cal/Mol-Kelvin
 Total                   28.871              4.968             49.272
 Electronic               0.000              0.000              1.377
 Translational            0.889              2.981             35.068
 Rotational               0.592              1.987             12.827
 Vibrational             27.390              0.000              0.000

 Normal termination of Gaussian 16 at Fri Aug 22 15:38:13 2025.
