 Gaussian 16, Revision C.01,
 Gaussian 16:  ES64L-G16RevC.01  3-Jul-2019

 -----------------------------------------
 # sp b3lyp/6-311g** Force nosymm scf=(qc)
 -----------------------------------------

 -------------------
 Title Card Required
 -------------------
 Symbolic Z-matrix:
 Charge =  0 Multiplicity = 2

                          Input orientation:
 ---------------------------------------------------------------------
 Center     Atomic      Atomic             Coordinates (Angstroms)
 Number     Number       Type             X           Y           Z
 ---------------------------------------------------------------------
      1          1           0        0.000000    0.000000    0.000000
      2          1           0       -0.600000    0.000000    0.000000
      3          9           0        1.100000    0.000000    0.000000
 ---------------------------------------------------------------------

 SCF Done:  E(UB3LYP) =  -100.895526994     a.u. after    6 cycles

 Alpha  occ. eigenvalues --  -24.68206  -1.19428  -0.64395  -0.41874  -0.41874
 Alpha  occ. eigenvalues --   -0.37047
 Alpha virt. eigenvalues --    0.13189   0.18614   0.59803   0.86991   0.86991
 Alpha virt. eigenvalues --    0.94790   1.12200   1.12200   1.49426   1.67018
 Alpha virt. eigenvalues --    1.86240   1.86240   1.88303   2.49729   3.79016

  Beta  occ. eigenvalues --  -24.66107  -1.14084  -0.56012  -0.39941  -0.39941
  Beta virt. eigenvalues --   -0.18482   0.14912   0.19380   0.64174   0.88678
  Beta virt. eigenvalues --    0.88678   0.99112   1.15732   1.15732   1.52008
  Beta virt. eigenvalues --    1.73216   1.89432   1.89432   1.89549   2.55505

 Mulliken charges and spin densities:
               1          2
     1  H    0.263366  -0.014828
     2  H   -0.045832   0.455364
     3  F   -0.217533   0.559464
 Sum of Mulliken charges =   0.00000   1.00000

 Dipole moment (field-independent basis, Debye):
    X=             -1.3317    Y=              0.0000    Z=              0.0000  Tot=              1.3317
 Quadrupole moment (field-independent basis, Debye-Ang):
   XX=             -7.2317   YY=             -6.4619   ZZ=             -6.4619
   XY=              0.0000   XZ=              0.0000   YZ=             -0.0000

  Exact polarizability:      13.256      -0.000       2.452       0.000       0.000       2.452
 Approx polarizability:      16.089       0.000       2.514       0.000       0.000       2.514

 ******    2 imaginary frequencies (negative Signs) ******

                      1                      2                      3
                      A                      A                      A
 Frequencies --  -3276.4248             -3276.4248              1599.2154
 Red. masses --      1.0123                 1.0123                 1.1084
 Frc consts  --      6.4025                 6.4025                 1.6701
 IR Inten    --     11.1618                11.1618                 1.8815

                      4
                      A
 Frequencies --   6597.1445
 Red. masses --      1.0080
 Frc consts  --     25.8466
 IR Inten    --    267.0496

 - Thermochemistry -
 -------------------
 Temperature   298.150 Kelvin.  Pressure   1.00000 Atm.
 Atom     1 has atomic number  1 and mass   1.00783

 Molecular mass:    21.01405 amu.
 Principal axes and moments of inertia in atomic units:
                           1         2         3
     Eigenvalues --     0.00000  13.40270  13.40270
           X            1.00000  -0.00000   0.00000
           Y            0.00000   1.00000   0.00000
           Z            0.00000   0.00000   1.00000
 This molecule is a prolate symmetric top.
 Rotational symmetry number  1.
 Rotational temperature (Kelvin)      6.46242
 Rotational constant (GHZ):         134.655080
    2 imaginary frequencies ignored.
 Zero-point vibrational energy      49025.1 (Joules/Mol)
                                   11.71728 (Kcal/Mol)
 Vibrational temperatures:   2300.91  9491.82
          (Kelvin)

 Zero-point correction=                           0.018673 (Hartree/Particle)
 Thermal correction to Energy=                    0.021036
 Thermal correction to Enthalpy=                  0.021981
 Thermal correction to Gibbs Free Energy=         0.000099
 Sum of electronic and zero-point Energies=           -100.876854
 Sum of electronic and thermal Energies=              -100.874491
 Sum of electronic and thermal Enthalpies=            -100.873546
 Sum of electronic and thermal Free Energies=         -100.895428

                     E (Thermal)             CV                S
                      KCal/Mol        Cal/Mol-Kelvin    Cal/Mol-Kelvin
 Total                   13.201              5.021             46.055
 Electronic               0.000              0.000              1.377
 Translational            0.889              2.981             35.068
 Rotational               0.592              1.987              9.601
 Vibrational             11.719              0.053              0.008

 Normal termination of Gaussian 16 at Fri Aug 22 16:04:21 2025.
