 Gaussian 16, Revision C.01,
 Gaussian 16:  ES64L-G16RevC.01  3-Jul-2019

 -----------------------------------------
 # sp b3lyp/6-311g** Force nosymm scf=(qc)
 -----------------------------------------

 -------------------
 Title Card Required
 -------------------
 Symbolic Z-matrix:
 Charge =  0 Multiplicity = 2

                          Input orientation:
 ---------------------------------------------------------------------
 Center     Atomic      Atomic             Coordinates (Angstroms)
 Number     Number       Type             X           Y           Z
 ---------------------------------------------------------------------
      1          1           0        0.000000    0.000000    0.000000
      2          1           0       -0.900000    0.000000    0.000000
      3          9           0        2.900000    0.000000    0.000000
 ---------------------------------------------------------------------

 SCF Done:  E(UB3LYP) =  -100.922575700     a.u. after   21 cycles

 Alpha  occ. eigenvalues --  -24.76709  -1.22511  -0.55699  -0.46979  -0.46848
 Alpha  occ. eigenvalues --   -0.40197
 Alpha virt. eigenvalues --    0.03004   0.21006   0.42172   0.85774   0.90646
 Alpha virt. eigenvalues --    0.93751   1.06179   1.08539   1.08547   1.45647
 Alpha virt. eigenvalues --    1.72429   1.72439   2.19470   2.38461   2.74371

  Beta  occ. eigenvalues --  -24.73547  -1.13423  -0.43856  -0.43677  -0.40145
  Beta virt. eigenvalues --   -0.26319   0.03043   0.21036   0.42271   0.92144
  Beta virt. eigenvalues --    0.95230   0.95581   1.08539   1.08546   1.09857
  Beta virt. eigenvalues --    1.45654   1.72428   1.72437   2.19489   2.38469

 Mulliken charges and spin densities:
               1          2
     1  H   -0.004389  -0.001005
     2  H   -0.005706  -0.000360
     3  F    0.010095   1.001365
 Sum of Mulliken charges =   0.00000   1.00000

 Dipole moment (field-independent basis, Debye):
    X=              0.1098    Y=              0.0000    Z=              0.0000  Tot=              0.1098
 Quadrupole moment (field-independent basis, Debye-Ang):
   XX=             -6.0978   YY=             -6.4854   ZZ=             -6.9699
   XY=              0.0000   XZ=              0.0000   YZ=              0.3573

  Exact polarizability:      10.983      -0.000       2.391      -0.000       0.189       2.133
 Approx polarizability:      13.427       0.000       2.548       0.000       0.239       2.224

                      1                      2                      3
                      A                      A                      A
 Frequencies --     67.5504              1454.6251              1456.3732
 Red. masses --      1.1085                 1.0096                 1.0096
 Frc consts  --      0.0030                 1.2587                 1.2617
 IR Inten    --      0.4073                 0.0016                 0.0013

                      4
                      A
 Frequencies --   2643.5748
 Red. masses --      1.0078
 Frc consts  --      4.1497
 IR Inten    --      0.8907

 - Thermochemistry -
 -------------------
 Temperature   298.150 Kelvin.  Pressure   1.00000 Atm.
 Atom     1 has atomic number  1 and mass   1.00783

 Molecular mass:    21.01405 amu.
 Principal axes and moments of inertia in atomic units:
                           1         2         3
     Eigenvalues --     0.00000  74.48902  74.48902
           X            1.00000  -0.00000   0.00000
           Y            0.00000   1.00000   0.00000
           Z            0.00000   0.00000   1.00000
 This molecule is a prolate symmetric top.
 Rotational symmetry number  1.
 Rotational temperature (Kelvin)      1.16277
 Rotational constant (GHZ):          24.228285
 Zero-point vibrational energy      33627.8 (Joules/Mol)
                                    8.03723 (Kcal/Mol)
 Warning -- explicit consideration of   1 degrees of freedom as
           vibrations may cause significant error
 Vibrational temperatures:     97.19  2092.88  2095.40  3803.51
          (Kelvin)

 Zero-point correction=                           0.012808 (Hartree/Particle)
 Thermal correction to Energy=                    0.015979
 Thermal correction to Enthalpy=                  0.016923
 Thermal correction to Gibbs Free Energy=        -0.008595
 Sum of electronic and zero-point Energies=           -100.909768
 Sum of electronic and thermal Energies=              -100.906597
 Sum of electronic and thermal Enthalpies=            -100.905652
 Sum of electronic and thermal Free Energies=         -100.931170

                     E (Thermal)             CV                S
                      KCal/Mol        Cal/Mol-Kelvin    Cal/Mol-Kelvin
 Total                   10.027              7.114             53.707
 Electronic               0.000              0.000              1.377
 Translational            0.889              2.981             35.068
 Rotational               0.592              1.987             13.010
 Vibrational              8.546              2.146              4.252
 Vibration     1          0.598              1.970              4.223

 Normal termination of Gaussian 16 at Fri Aug 22 18:58:07 2025.
