 Gaussian 16, Revision C.01,
 Gaussian 16:  ES64L-G16RevC.01  3-Jul-2019

 -----------------------------------------
 # sp b3lyp/6-311g** Force nosymm scf=(qc)
 -----------------------------------------

 -------------------
 Title Card Required
 -------------------
 Symbolic Z-matrix:
 Charge =  0 Multiplicity = 2

                          Input orientation:
 ---------------------------------------------------------------------
 Center     Atomic      Atomic             Coordinates (Angstroms)
 Number     Number       Type             X           Y           Z
 ---------------------------------------------------------------------
      1          1           0        0.000000    0.000000    0.000000
      2          1           0       -3.100000    0.000000    0.000000
      3          9           0        2.500000    0.000000    0.000000
 ---------------------------------------------------------------------

 SCF Done:  E(UB3LYP) =  -100.768060041     a.u. after   22 cycles

 Alpha  occ. eigenvalues --  -24.71744  -1.17958  -0.50845  -0.42713  -0.42713
 Alpha  occ. eigenvalues --   -0.33125
 Alpha virt. eigenvalues --   -0.10704   0.23929   0.34677   0.89789   0.93614
 Alpha virt. eigenvalues --    0.93614   1.06400   1.24407   1.24407   1.25089
 Alpha virt. eigenvalues --    1.40325   1.40325   1.44313   2.14956   2.35286

  Beta  occ. eigenvalues --  -24.68902  -1.09870  -0.39880  -0.39880  -0.35359
  Beta virt. eigenvalues --   -0.23349  -0.07607   0.24499   0.37022   0.94977
  Beta virt. eigenvalues --    0.94977   0.96291   1.08837   1.22125   1.22125
  Beta virt. eigenvalues --    1.29733   1.44806   1.44888   1.44888   2.13645

 Mulliken charges and spin densities:
               1          2
     1  H    0.087643  -0.892141
     2  H    0.002476   0.994238
     3  F   -0.090119   0.897903
 Sum of Mulliken charges =  -0.00000   1.00000

 Dipole moment (field-independent basis, Debye):
    X=             -1.1829    Y=             -0.0000    Z=              0.0000  Tot=              1.1829
 Quadrupole moment (field-independent basis, Debye-Ang):
   XX=             -9.1961   YY=             -7.5799   ZZ=             -7.5799
   XY=             -0.0000   XZ=             -0.0000   YZ=              0.0000

  Exact polarizability:      33.358      -0.000       2.023       0.000       0.000       2.023
 Approx polarizability:      40.481      -0.000       1.920       0.000      -0.000       1.920

 ******    2 imaginary frequencies (negative Signs) ******

                      1                      2                      3
                      A                      A                      A
 Frequencies --   -642.0322              -191.2200               251.5558
 Red. masses --      1.0475                 1.0642                 1.0208
 Frc consts  --      0.2544                 0.0229                 0.0381
 IR Inten    --     77.6211                 1.9754                 7.0919

                      4
                      A
 Frequencies --    251.5558
 Red. masses --      1.0208
 Frc consts  --      0.0381
 IR Inten    --      7.0919

 - Thermochemistry -
 -------------------
 Temperature   298.150 Kelvin.  Pressure   1.00000 Atm.
 Atom     1 has atomic number  1 and mass   1.00783

 Molecular mass:    21.01405 amu.
 Principal axes and moments of inertia in atomic units:
                           1         2         3
     Eigenvalues --     0.00000 124.03397 124.03397
           X            1.00000  -0.00000   0.00000
           Y            0.00000   1.00000   0.00000
           Z            0.00000   0.00000   1.00000
 This molecule is a prolate symmetric top.
 Rotational symmetry number  1.
 Rotational temperature (Kelvin)      0.69831
 Rotational constant (GHZ):          14.550378
    2 imaginary frequencies ignored.
 Zero-point vibrational energy       3009.3 (Joules/Mol)
                                    0.71923 (Kcal/Mol)
 Warning -- explicit consideration of   2 degrees of freedom as
           vibrations may cause significant error
 Vibrational temperatures:    361.93   361.93
          (Kelvin)

 Zero-point correction=                           0.001146 (Hartree/Particle)
 Thermal correction to Energy=                    0.004475
 Thermal correction to Enthalpy=                  0.005419
 Thermal correction to Gibbs Free Energy=        -0.020194
 Sum of electronic and zero-point Energies=           -100.766914
 Sum of electronic and thermal Energies=              -100.763585
 Sum of electronic and thermal Enthalpies=            -100.762641
 Sum of electronic and thermal Free Energies=         -100.788254

                     E (Thermal)             CV                S
                      KCal/Mol        Cal/Mol-Kelvin    Cal/Mol-Kelvin
 Total                    2.808              8.488             53.908
 Electronic               0.000              0.000              1.377
 Translational            0.889              2.981             35.068
 Rotational               0.592              1.987             14.023
 Vibrational              1.327              3.520              3.439
 Vibration     1          0.664              1.760              1.720
 Vibration     2          0.664              1.760              1.720

 Normal termination of Gaussian 16 at Fri Aug 22 17:45:51 2025.
