 Gaussian 16, Revision C.01,
 Gaussian 16:  ES64L-G16RevC.01  3-Jul-2019

 -----------------------------------------
 # sp b3lyp/6-311g** Force nosymm scf=(qc)
 -----------------------------------------

 -------------------
 Title Card Required
 -------------------
 Symbolic Z-matrix:
 Charge =  0 Multiplicity = 2

                          Input orientation:
 ---------------------------------------------------------------------
 Center     Atomic      Atomic             Coordinates (Angstroms)
 Number     Number       Type             X           Y           Z
 ---------------------------------------------------------------------
      1          1           0        0.000000    0.000000    0.000000
      2          1           0       -1.300000    0.000000    0.000000
      3          9           0        0.750000    0.000000    0.000000
 ---------------------------------------------------------------------

 SCF Done:  E(UB3LYP) =  -100.911087955     a.u. after    6 cycles

 Alpha  occ. eigenvalues --  -24.63629  -1.26069  -0.59301  -0.41439  -0.41439
 Alpha  occ. eigenvalues --   -0.36069
 Alpha virt. eigenvalues --    0.14256   0.20502   0.53307   0.92788   0.92788
 Alpha virt. eigenvalues --    0.95272   1.12902   1.12902   1.40483   1.52035
 Alpha virt. eigenvalues --    1.52035   1.61548   2.02356   2.23923   3.18343

  Beta  occ. eigenvalues --  -24.63389  -1.25402  -0.57764  -0.41242  -0.41242
  Beta virt. eigenvalues --   -0.13800   0.15441   0.27182   0.58307   0.93276
  Beta virt. eigenvalues --    0.93276   0.95782   1.23156   1.23156   1.43626
  Beta virt. eigenvalues --    1.57695   1.57695   1.71219   2.02909   2.43617

 Mulliken charges and spin densities:
               1          2
     1  H    0.253518   0.009856
     2  H    0.011757   0.946076
     3  F   -0.265276   0.044067
 Sum of Mulliken charges =   0.00000   1.00000

 Dipole moment (field-independent basis, Debye):
    X=             -1.6721    Y=              0.0000    Z=             -0.0000  Tot=              1.6721
 Quadrupole moment (field-independent basis, Debye-Ang):
   XX=             -7.2676   YY=             -6.5859   ZZ=             -6.5859
   XY=              0.0000   XZ=             -0.0000   YZ=             -0.0000

  Exact polarizability:       8.386       0.000       2.563      -0.000      -0.000       2.563
 Approx polarizability:       8.311      -0.000       2.586       0.000      -0.000       2.586

 ******    2 imaginary frequencies (negative Signs) ******

                      1                      2                      3
                      A                      A                      A
 Frequencies --  -2676.5348             -2676.5348              1105.3175
 Red. masses --      1.0258                 1.0258                 1.0537
 Frc consts  --      4.3296                 4.3296                 0.7585
 IR Inten    --    128.9027               128.9027                13.3888

                      4
                      A
 Frequencies --   7518.6749
 Red. masses --      1.0579
 Frc consts  --     35.2346
 IR Inten    --    141.4330

 - Thermochemistry -
 -------------------
 Temperature   298.150 Kelvin.  Pressure   1.00000 Atm.
 Atom     1 has atomic number  1 and mass   1.00783

 Molecular mass:    21.01405 amu.
 Principal axes and moments of inertia in atomic units:
                           1         2         3
     Eigenvalues --     0.00000  15.79604  15.79604
           X            1.00000  -0.00000   0.00000
           Y            0.00000   1.00000   0.00000
           Z            0.00000   0.00000   1.00000
 This molecule is a prolate symmetric top.
 Rotational symmetry number  1.
 Rotational temperature (Kelvin)      5.48327
 Rotational constant (GHZ):         114.252781
    2 imaginary frequencies ignored.
 Zero-point vibrational energy      51582.9 (Joules/Mol)
                                   12.32862 (Kcal/Mol)
 Vibrational temperatures:   1590.31 10817.70
          (Kelvin)

 Zero-point correction=                           0.019647 (Hartree/Particle)
 Thermal correction to Energy=                    0.022032
 Thermal correction to Enthalpy=                  0.022976
 Thermal correction to Gibbs Free Energy=         0.000914
 Sum of electronic and zero-point Energies=           -100.891441
 Sum of electronic and thermal Energies=              -100.889056
 Sum of electronic and thermal Enthalpies=            -100.888112
 Sum of electronic and thermal Free Energies=         -100.910174

                     E (Thermal)             CV                S
                      KCal/Mol        Cal/Mol-Kelvin    Cal/Mol-Kelvin
 Total                   13.825              5.243             46.434
 Electronic               0.000              0.000              1.377
 Translational            0.889              2.981             35.068
 Rotational               0.592              1.987              9.928
 Vibrational             12.344              0.275              0.061

 Normal termination of Gaussian 16 at Fri Aug 22 15:48:16 2025.
