 Gaussian 16, Revision C.01,
 Gaussian 16:  ES64L-G16RevC.01  3-Jul-2019

 -----------------------------------------
 # sp b3lyp/6-311g** Force nosymm scf=(qc)
 -----------------------------------------

 -------------------
 Title Card Required
 -------------------
 Symbolic Z-matrix:
 Charge =  0 Multiplicity = 2

                          Input orientation:
 ---------------------------------------------------------------------
 Center     Atomic      Atomic             Coordinates (Angstroms)
 Number     Number       Type             X           Y           Z
 ---------------------------------------------------------------------
      1          1           0        0.000000    0.000000    0.000000
      2          1           0       -1.750000    0.000000    0.000000
      3          9           0        0.500000    0.000000    0.000000
 ---------------------------------------------------------------------

 SCF Done:  E(UB3LYP) =  -100.265816589     a.u. after    6 cycles

 Alpha  occ. eigenvalues --  -24.63098  -1.42524  -0.63779  -0.44410  -0.44410
 Alpha  occ. eigenvalues --   -0.35225
 Alpha virt. eigenvalues --    0.13062   0.23105   0.59417   0.89555   0.89965
 Alpha virt. eigenvalues --    0.89965   1.21617   1.21617   1.34125   1.59096
 Alpha virt. eigenvalues --    1.59096   1.63868   2.07061   2.21244   3.76568

  Beta  occ. eigenvalues --  -24.63052  -1.42375  -0.63625  -0.44386  -0.44386
  Beta virt. eigenvalues --   -0.10125   0.14278   0.33213   0.63048   0.89661
  Beta virt. eigenvalues --    0.89996   0.89996   1.40445   1.40912   1.40912
  Beta virt. eigenvalues --    1.59817   1.59817   1.73473   2.09154   2.46774

 Mulliken charges and spin densities:
               1          2
     1  H    0.085477   0.014880
     2  H    0.010924   0.985206
     3  F   -0.096401  -0.000086
 Sum of Mulliken charges =   0.00000   1.00000

 Dipole moment (field-independent basis, Debye):
    X=             -1.3331    Y=              0.0000    Z=             -0.0000  Tot=              1.3331
 Quadrupole moment (field-independent basis, Debye-Ang):
   XX=             -6.4958   YY=             -6.3913   ZZ=             -6.3913
   XY=              0.0000   XZ=             -0.0000   YZ=              0.0000

  Exact polarizability:       5.406      -0.000       2.461       0.000      -0.000       2.461
 Approx polarizability:       5.125       0.000       2.462       0.000       0.000       2.462

 ******    2 imaginary frequencies (negative Signs) ******

                      1                      2                      3
                      A                      A                      A
 Frequencies --  -9447.6106             -9447.6106               640.0577
 Red. masses --      1.0370                 1.0370                 1.0533
 Frc consts  --     54.5327                54.5327                 0.2542
 IR Inten    --    225.0904               225.0904                 1.2757

                      4
                      A
 Frequencies --  19156.7370
 Red. masses --      1.0583
 Frc consts  --    228.8145
 IR Inten    --     82.9266

 - Thermochemistry -
 -------------------
 Temperature   298.150 Kelvin.  Pressure   1.00000 Atm.
 Atom     1 has atomic number  1 and mass   1.00783

 Molecular mass:    21.01405 amu.
 Principal axes and moments of inertia in atomic units:
                           1         2         3
     Eigenvalues --     0.00000  17.81439  17.81439
           X            1.00000  -0.00000   0.00000
           Y            0.00000   1.00000   0.00000
           Z            0.00000   0.00000   1.00000
 This molecule is a prolate symmetric top.
 Rotational symmetry number  1.
 Rotational temperature (Kelvin)      4.86202
 Rotational constant (GHZ):         101.308038
    2 imaginary frequencies ignored.
 Zero-point vibrational energy     118411.1 (Joules/Mol)
                                   28.30094 (Kcal/Mol)
 Vibrational temperatures:    920.90 27562.27
          (Kelvin)

 Zero-point correction=                           0.045100 (Hartree/Particle)
 Thermal correction to Energy=                    0.047600
 Thermal correction to Enthalpy=                  0.048544
 Thermal correction to Gibbs Free Energy=         0.026214
 Sum of electronic and zero-point Energies=           -100.220716
 Sum of electronic and thermal Energies=              -100.218216
 Sum of electronic and thermal Enthalpies=            -100.217272
 Sum of electronic and thermal Free Energies=         -100.239603

                     E (Thermal)             CV                S
                      KCal/Mol        Cal/Mol-Kelvin    Cal/Mol-Kelvin
 Total                   29.870              5.916             46.998
 Electronic               0.000              0.000              1.377
 Translational            0.889              2.981             35.068
 Rotational               0.592              1.987             10.167
 Vibrational             28.388              0.948              0.386

 Normal termination of Gaussian 16 at Fri Aug 22 15:36:44 2025.
