 Gaussian 16, Revision C.01,
 Gaussian 16:  ES64L-G16RevC.01  3-Jul-2019

 -----------------------------------------
 # sp b3lyp/6-311g** Force nosymm scf=(qc)
 -----------------------------------------

 -------------------
 Title Card Required
 -------------------
 Symbolic Z-matrix:
 Charge =  0 Multiplicity = 2

                          Input orientation:
 ---------------------------------------------------------------------
 Center     Atomic      Atomic             Coordinates (Angstroms)
 Number     Number       Type             X           Y           Z
 ---------------------------------------------------------------------
      1          1           0        0.000000    0.000000    0.000000
      2          1           0       -3.750000    0.000000    0.000000
      3          9           0        1.900000    0.000000    0.000000
 ---------------------------------------------------------------------

 SCF Done:  E(UB3LYP) =  -100.781400820     a.u. after   12 cycles

 Alpha  occ. eigenvalues --  -24.64118  -1.08430  -0.39242  -0.35752  -0.35752
 Alpha  occ. eigenvalues --   -0.33851
 Alpha virt. eigenvalues --   -0.21925   0.19772   0.27069   0.90527   0.96440
 Alpha virt. eigenvalues --    0.96440   1.08354   1.23627   1.23649   1.23649
 Alpha virt. eigenvalues --    1.24525   1.24525   1.59914   2.11670   2.16029

  Beta  occ. eigenvalues --  -24.64122  -1.08440  -0.39238  -0.35755  -0.35755
  Beta virt. eigenvalues --   -0.21947  -0.06739   0.22455   0.37948   0.90556
  Beta virt. eigenvalues --    0.96443   0.96443   1.08361   1.24577   1.24577
  Beta virt. eigenvalues --    1.45679   1.46081   1.46081   1.59963   2.14077

 Mulliken charges and spin densities:
               1          2
     1  H    0.302143   0.002892
     2  H    0.001832   0.998095
     3  F   -0.303975  -0.000987
 Sum of Mulliken charges =   0.00000   1.00000

 Dipole moment (field-independent basis, Debye):
    X=             -2.9268    Y=              0.0000    Z=              0.0000  Tot=              2.9268
 Quadrupole moment (field-independent basis, Debye-Ang):
   XX=            -11.4583   YY=             -7.4949   ZZ=             -7.4949
   XY=              0.0000   XZ=              0.0000   YZ=              0.0000

  Exact polarizability:      25.112       0.000       2.036      -0.000      -0.000       2.036
 Approx polarizability:      73.442      -0.000       1.942      -0.000      -0.000       1.942

 ******    2 imaginary frequencies (negative Signs) ******

                      1                      2                      3
                      A                      A                      A
 Frequencies --  -1123.5656               -78.9700               736.1613
 Red. masses --      1.0576                 1.0540                 1.0278
 Frc consts  --      0.7866                 0.0039                 0.3282
 IR Inten    --     32.2418                 0.3492                89.6685

                      4
                      A
 Frequencies --    736.1613
 Red. masses --      1.0278
 Frc consts  --      0.3282
 IR Inten    --     89.6685

 - Thermochemistry -
 -------------------
 Temperature   298.150 Kelvin.  Pressure   1.00000 Atm.
 Atom     1 has atomic number  1 and mass   1.00783

 Molecular mass:    21.01405 amu.
 Principal axes and moments of inertia in atomic units:
                           1         2         3
     Eigenvalues --     0.00000 118.04275 118.04275
           X            1.00000  -0.00000   0.00000
           Y            0.00000   1.00000   0.00000
           Z            0.00000   0.00000   1.00000
 This molecule is a prolate symmetric top.
 Rotational symmetry number  1.
 Rotational temperature (Kelvin)      0.73375
 Rotational constant (GHZ):          15.288879
    2 imaginary frequencies ignored.
 Zero-point vibrational energy       8806.4 (Joules/Mol)
                                    2.10479 (Kcal/Mol)
 Vibrational temperatures:   1059.17  1059.17
          (Kelvin)

 Zero-point correction=                           0.003354 (Hartree/Particle)
 Thermal correction to Energy=                    0.005913
 Thermal correction to Enthalpy=                  0.006857
 Thermal correction to Gibbs Free Energy=        -0.017329
 Sum of electronic and zero-point Energies=           -100.778047
 Sum of electronic and thermal Energies=              -100.775488
 Sum of electronic and thermal Enthalpies=            -100.774544
 Sum of electronic and thermal Free Energies=         -100.798729

                     E (Thermal)             CV                S
                      KCal/Mol        Cal/Mol-Kelvin    Cal/Mol-Kelvin
 Total                    3.710              6.491             50.902
 Electronic               0.000              0.000              1.377
 Translational            0.889              2.981             35.068
 Rotational               0.592              1.987             13.925
 Vibrational              2.229              1.523              0.532

 Normal termination of Gaussian 16 at Fri Aug 22 16:51:29 2025.
