 Gaussian 16, Revision C.01,
 Gaussian 16:  ES64L-G16RevC.01  3-Jul-2019

 -----------------------------------------
 # sp b3lyp/6-311g** Force nosymm scf=(qc)
 -----------------------------------------

 -------------------
 Title Card Required
 -------------------
 Symbolic Z-matrix:
 Charge =  0 Multiplicity = 2

                          Input orientation:
 ---------------------------------------------------------------------
 Center     Atomic      Atomic             Coordinates (Angstroms)
 Number     Number       Type             X           Y           Z
 ---------------------------------------------------------------------
      1          1           0        0.000000    0.000000    0.000000
      2          1           0       -1.450000    0.000000    0.000000
      3          9           0        3.750000    0.000000    0.000000
 ---------------------------------------------------------------------

 SCF Done:  E(UB3LYP) =  -100.828160346     a.u. after  248 cycles

 Alpha  occ. eigenvalues --  -24.76285  -1.22178  -0.55380  -0.46562  -0.46536
 Alpha  occ. eigenvalues --   -0.33954
 Alpha virt. eigenvalues --   -0.09039   0.24606   0.30821   0.85997   0.90874
 Alpha virt. eigenvalues --    0.91517   1.00956   1.08890   1.19162   1.19164
 Alpha virt. eigenvalues --    1.43174   1.43176   1.85791   2.23818   2.47943

  Beta  occ. eigenvalues --  -24.73129  -1.13104  -0.43398  -0.43372  -0.33954
  Beta virt. eigenvalues --   -0.26028  -0.09037   0.24611   0.30836   0.92374
  Beta virt. eigenvalues --    0.93011   0.95463   1.05091   1.08899   1.19162
  Beta virt. eigenvalues --    1.19164   1.43173   1.43176   1.85793   2.23819

 Mulliken charges and spin densities:
               1          2
     1  H    0.000913   0.000402
     2  H   -0.002352  -0.000567
     3  F    0.001439   1.000166
 Sum of Mulliken charges =   0.00000   1.00000

 Dipole moment (field-independent basis, Debye):
    X=              0.0318    Y=             -0.0000    Z=             -0.0000  Tot=              0.0318
 Quadrupole moment (field-independent basis, Debye-Ang):
   XX=             -6.2937   YY=             -7.6092   ZZ=             -6.9740
   XY=             -0.0000   XZ=             -0.0000   YZ=              0.2932

  Exact polarizability:      21.462       0.000       2.112       0.000       0.161       2.460
 Approx polarizability:      39.666      -0.000       2.127      -0.000       0.198       2.555

 ******    2 imaginary frequencies (negative Signs) ******

                      1                      2                      3
                      A                      A                      A
 Frequencies --  -1222.9501               -61.0792              1262.8800
 Red. masses --      1.0078                 1.1085                 1.0104
 Frc consts  --      0.8881                 0.0024                 0.9495
 IR Inten    --      0.1071                 0.0799                 0.0133

                      4
                      A
 Frequencies --   1269.8889
 Red. masses --      1.0104
 Frc consts  --      0.9600
 IR Inten    --      0.0018

 - Thermochemistry -
 -------------------
 Temperature   298.150 Kelvin.  Pressure   1.00000 Atm.
 Atom     1 has atomic number  1 and mass   1.00783

 Molecular mass:    21.01405 amu.
 Principal axes and moments of inertia in atomic units:
                           1         2         3
     Eigenvalues --     0.00000 134.10200 134.10200
           X            1.00000  -0.00000   0.00000
           Y            0.00000   1.00000   0.00000
           Z            0.00000   0.00000   1.00000
 This molecule is a prolate symmetric top.
 Rotational symmetry number  1.
 Rotational temperature (Kelvin)      0.64588
 Rotational constant (GHZ):          13.457973
    2 imaginary frequencies ignored.
 Zero-point vibrational energy      15149.3 (Joules/Mol)
                                    3.62077 (Kcal/Mol)
 Vibrational temperatures:   1817.00  1827.09
          (Kelvin)

 Zero-point correction=                           0.005770 (Hartree/Particle)
 Thermal correction to Energy=                    0.008156
 Thermal correction to Enthalpy=                  0.009100
 Thermal correction to Gibbs Free Energy=        -0.014982
 Sum of electronic and zero-point Energies=           -100.822390
 Sum of electronic and thermal Energies=              -100.820004
 Sum of electronic and thermal Enthalpies=            -100.819060
 Sum of electronic and thermal Free Energies=         -100.843143

                     E (Thermal)             CV                S
                      KCal/Mol        Cal/Mol-Kelvin    Cal/Mol-Kelvin
 Total                    5.118              5.299             50.686
 Electronic               0.000              0.000              1.377
 Translational            0.889              2.981             35.068
 Rotational               0.592              1.987             14.178
 Vibrational              3.637              0.331              0.063

 Normal termination of Gaussian 16 at Sat Aug 23 00:18:06 2025.
