 Gaussian 16, Revision C.01,
 Gaussian 16:  ES64L-G16RevC.01  3-Jul-2019

 -----------------------------------------
 # sp b3lyp/6-311g** Force nosymm scf=(qc)
 -----------------------------------------

 -------------------
 Title Card Required
 -------------------
 Symbolic Z-matrix:
 Charge =  0 Multiplicity = 2

                          Input orientation:
 ---------------------------------------------------------------------
 Center     Atomic      Atomic             Coordinates (Angstroms)
 Number     Number       Type             X           Y           Z
 ---------------------------------------------------------------------
      1          1           0        0.000000    0.000000    0.000000
      2          1           0       -3.750000    0.000000    0.000000
      3          9           0        3.600000    0.000000    0.000000
 ---------------------------------------------------------------------

 SCF Done:  E(UB3LYP) =  -100.758799740     a.u. after   30 cycles

 Alpha  occ. eigenvalues --  -24.75532  -1.21485  -0.54656  -0.45889  -0.45889
 Alpha  occ. eigenvalues --   -0.32289
 Alpha virt. eigenvalues --   -0.06486   0.24171   0.37359   0.87304   0.91390
 Alpha virt. eigenvalues --    0.91390   1.01585   1.25209   1.25209   1.25268
 Alpha virt. eigenvalues --    1.45892   1.45892   1.46086   2.14742   2.41943

  Beta  occ. eigenvalues --  -24.72409  -1.12508  -0.42759  -0.42759  -0.32705
  Beta virt. eigenvalues --   -0.25557  -0.06097   0.23932   0.38147   0.92882
  Beta virt. eigenvalues --    0.92882   0.96504   1.05627   1.24739   1.24739
  Beta virt. eigenvalues --    1.24779   1.46358   1.46530   1.46530   2.14860

 Mulliken charges and spin densities:
               1          2
     1  H    0.008696  -0.989201
     2  H    0.000076   0.998852
     3  F   -0.008772   0.990349
 Sum of Mulliken charges =  -0.00000   1.00000

 Dipole moment (field-independent basis, Debye):
    X=             -0.1639    Y=              0.0000    Z=              0.0000  Tot=              0.1639
 Quadrupole moment (field-independent basis, Debye-Ang):
   XX=             -7.2794   YY=             -7.6196   ZZ=             -7.6196
   XY=              0.0000   XZ=              0.0000   YZ=              0.0000

  Exact polarizability:      20.404       0.000       2.042       0.000       0.000       2.042
 Approx polarizability:      15.623       0.000       1.935       0.000      -0.000       1.935

 ******    2 imaginary frequencies (negative Signs) ******

                      1                      2                      3
                      A                      A                      A
 Frequencies --   -206.0628               -82.2991                52.4890
 Red. masses --      1.0341                 1.0783                 1.0184
 Frc consts  --      0.0259                 0.0043                 0.0017
 IR Inten    --      7.5680                 0.5071                 0.0613

                      4
                      A
 Frequencies --     52.4898
 Red. masses --      1.0184
 Frc consts  --      0.0017
 IR Inten    --      0.0613

 - Thermochemistry -
 -------------------
 Temperature   298.150 Kelvin.  Pressure   1.00000 Atm.
 Atom     1 has atomic number  1 and mass   1.00783

 Molecular mass:    21.01405 amu.
 Principal axes and moments of inertia in atomic units:
                           1         2         3
     Eigenvalues --     0.00000 220.37459 220.37459
           X            1.00000  -0.00000   0.00000
           Y            0.00000   1.00000   0.00000
           Z            0.00000   0.00000   1.00000
 This molecule is a prolate symmetric top.
 Rotational symmetry number  1.
 Rotational temperature (Kelvin)      0.39303
 Rotational constant (GHZ):           8.189425
    2 imaginary frequencies ignored.
 Zero-point vibrational energy        627.9 (Joules/Mol)
                                    0.15007 (Kcal/Mol)
 Warning -- explicit consideration of   2 degrees of freedom as
           vibrations may cause significant error
 Vibrational temperatures:     75.52    75.52
          (Kelvin)

 Zero-point correction=                           0.000239 (Hartree/Particle)
 Thermal correction to Energy=                    0.004259
 Thermal correction to Enthalpy=                  0.005203
 Thermal correction to Gibbs Free Energy=        -0.023805
 Sum of electronic and zero-point Energies=           -100.758561
 Sum of electronic and thermal Energies=              -100.754541
 Sum of electronic and thermal Enthalpies=            -100.753597
 Sum of electronic and thermal Free Energies=         -100.782605

                     E (Thermal)             CV                S
                      KCal/Mol        Cal/Mol-Kelvin    Cal/Mol-Kelvin
 Total                    2.673              8.921             61.053
 Electronic               0.000              0.000              1.377
 Translational            0.889              2.981             35.068
 Rotational               0.592              1.987             15.165
 Vibrational              1.191              3.953              9.443
 Vibration     1          0.596              1.977              4.721
 Vibration     2          0.596              1.977              4.721

 Normal termination of Gaussian 16 at Fri Aug 22 23:08:24 2025.
