 Gaussian 16, Revision C.01,
 Gaussian 16:  ES64L-G16RevC.01  3-Jul-2019

 -----------------------------------------
 # sp b3lyp/6-311g** Force nosymm scf=(qc)
 -----------------------------------------

 -------------------
 Title Card Required
 -------------------
 Symbolic Z-matrix:
 Charge =  0 Multiplicity = 2

                          Input orientation:
 ---------------------------------------------------------------------
 Center     Atomic      Atomic             Coordinates (Angstroms)
 Number     Number       Type             X           Y           Z
 ---------------------------------------------------------------------
      1          1           0        0.000000    0.000000    0.000000
      2          1           0       -3.300000    0.000000    0.000000
      3          9           0        2.600000    0.000000    0.000000
 ---------------------------------------------------------------------

 SCF Done:  E(UB3LYP) =  -100.765793897     a.u. after   19 cycles

 Alpha  occ. eigenvalues --  -24.72302  -1.18484  -0.51411  -0.43182  -0.43182
 Alpha  occ. eigenvalues --   -0.32904
 Alpha virt. eigenvalues --   -0.09968   0.23808   0.35284   0.89947   0.93311
 Alpha virt. eigenvalues --    0.93311   1.06071   1.24614   1.24614   1.24968
 Alpha virt. eigenvalues --    1.41385   1.41385   1.43740   2.14818   2.36773

  Beta  occ. eigenvalues --  -24.69411  -1.10240  -0.40296  -0.40296  -0.34970
  Beta virt. eigenvalues --   -0.23704  -0.07094   0.24220   0.37535   0.94710
  Beta virt. eigenvalues --    0.94710   0.97192   1.08813   1.22413   1.22413
  Beta virt. eigenvalues --    1.27263   1.45293   1.45538   1.45538   2.13767

 Mulliken charges and spin densities:
               1          2
     1  H    0.075308  -0.910837
     2  H    0.001314   0.996582
     3  F   -0.076622   0.914254
 Sum of Mulliken charges =  -0.00000   1.00000

 Dipole moment (field-independent basis, Debye):
    X=             -1.0376    Y=             -0.0000    Z=             -0.0000  Tot=              1.0376
 Quadrupole moment (field-independent basis, Debye-Ang):
   XX=             -9.0715   YY=             -7.5854   ZZ=             -7.5854
   XY=             -0.0000   XZ=             -0.0000   YZ=             -0.0000

  Exact polarizability:      32.549      -0.000       2.023      -0.000      -0.000       2.023
 Approx polarizability:      39.015      -0.000       1.920      -0.000       0.000       1.920

 ******    2 imaginary frequencies (negative Signs) ******

                      1                      2                      3
                      A                      A                      A
 Frequencies --   -568.3833              -151.4202               217.2898
 Red. masses --      1.0500                 1.0616                 1.0211
 Frc consts  --      0.1999                 0.0143                 0.0284
 IR Inten    --     70.6623                 0.8710                 5.3258

                      4
                      A
 Frequencies --    217.2898
 Red. masses --      1.0211
 Frc consts  --      0.0284
 IR Inten    --      5.3258

 - Thermochemistry -
 -------------------
 Temperature   298.150 Kelvin.  Pressure   1.00000 Atm.
 Atom     1 has atomic number  1 and mass   1.00783

 Molecular mass:    21.01405 amu.
 Principal axes and moments of inertia in atomic units:
                           1         2         3
     Eigenvalues --     0.00000 137.13994 137.13994
           X            1.00000  -0.00000   0.00000
           Y            0.00000   1.00000   0.00000
           Z            0.00000   0.00000   1.00000
 This molecule is a prolate symmetric top.
 Rotational symmetry number  1.
 Rotational temperature (Kelvin)      0.63157
 Rotational constant (GHZ):          13.159852
    2 imaginary frequencies ignored.
 Zero-point vibrational energy       2599.4 (Joules/Mol)
                                    0.62126 (Kcal/Mol)
 Warning -- explicit consideration of   2 degrees of freedom as
           vibrations may cause significant error
 Vibrational temperatures:    312.63   312.63
          (Kelvin)

 Zero-point correction=                           0.000990 (Hartree/Particle)
 Thermal correction to Energy=                    0.004419
 Thermal correction to Enthalpy=                  0.005363
 Thermal correction to Gibbs Free Energy=        -0.020594
 Sum of electronic and zero-point Energies=           -100.764804
 Sum of electronic and thermal Energies=              -100.761375
 Sum of electronic and thermal Enthalpies=            -100.760431
 Sum of electronic and thermal Free Energies=         -100.786388

                     E (Thermal)             CV                S
                      KCal/Mol        Cal/Mol-Kelvin    Cal/Mol-Kelvin
 Total                    2.773              8.597             54.631
 Electronic               0.000              0.000              1.377
 Translational            0.889              2.981             35.068
 Rotational               0.592              1.987             14.223
 Vibrational              1.292              3.629              3.963
 Vibration     1          0.646              1.815              1.982
 Vibration     2          0.646              1.815              1.982

 Normal termination of Gaussian 16 at Fri Aug 22 18:05:01 2025.
