 Gaussian 16, Revision C.01,
 Gaussian 16:  ES64L-G16RevC.01  3-Jul-2019

 -----------------------------------------
 # sp b3lyp/6-311g** Force nosymm scf=(qc)
 -----------------------------------------

 -------------------
 Title Card Required
 -------------------
 Symbolic Z-matrix:
 Charge =  0 Multiplicity = 2

                          Input orientation:
 ---------------------------------------------------------------------
 Center     Atomic      Atomic             Coordinates (Angstroms)
 Number     Number       Type             X           Y           Z
 ---------------------------------------------------------------------
      1          1           0        0.000000    0.000000    0.000000
      2          1           0       -1.300000    0.000000    0.000000
      3          9           0        3.350000    0.000000    0.000000
 ---------------------------------------------------------------------

 SCF Done:  E(UB3LYP) =  -100.854041162     a.u. after  130 cycles

 Alpha  occ. eigenvalues --  -24.76464  -1.22323  -0.55520  -0.46727  -0.46673
 Alpha  occ. eigenvalues --   -0.35233
 Alpha virt. eigenvalues --   -0.06099   0.23588   0.32663   0.85894   0.90769
 Alpha virt. eigenvalues --    0.92504   1.01753   1.15416   1.15420   1.15786
 Alpha virt. eigenvalues --    1.49516   1.49520   1.98922   2.28982   2.53150

  Beta  occ. eigenvalues --  -24.73306  -1.13244  -0.43562  -0.43507  -0.35229
  Beta virt. eigenvalues --   -0.26157  -0.06092   0.23600   0.32706   0.92269
  Beta virt. eigenvalues --    0.94033   0.95357   1.05812   1.15416   1.15420
  Beta virt. eigenvalues --    1.15799   1.49515   1.49519   1.98930   2.28985

 Mulliken charges and spin densities:
               1          2
     1  H   -0.000089  -0.000044
     2  H   -0.003958  -0.000449
     3  F    0.004047   1.000494
 Sum of Mulliken charges =   0.00000   1.00000

 Dipole moment (field-independent basis, Debye):
    X=              0.0630    Y=              0.0000    Z=             -0.0000  Tot=              0.0630
 Quadrupole moment (field-independent basis, Debye-Ang):
   XX=             -6.2219   YY=             -7.5956   ZZ=             -6.7319
   XY=             -0.0000   XZ=             -0.0000   YZ=              0.0130

  Exact polarizability:      18.328      -0.000       2.072      -0.000       0.007       2.536
 Approx polarizability:      29.645      -0.000       2.088      -0.000       0.009       2.670

 ******    2 imaginary frequencies (negative Signs) ******

                      1                      2                      3
                      A                      A                      A
 Frequencies --   -970.2281               -32.9606              1393.4393
 Red. masses --      1.0078                 1.1085                 1.0104
 Frc consts  --      0.5590                 0.0007                 1.1559
 IR Inten    --      0.3231                 0.2447                 0.0018

                      4
                      A
 Frequencies --   1394.4103
 Red. masses --      1.0104
 Frc consts  --      1.1575
 IR Inten    --      0.0017

 - Thermochemistry -
 -------------------
 Temperature   298.150 Kelvin.  Pressure   1.00000 Atm.
 Atom     1 has atomic number  1 and mass   1.00783

 Molecular mass:    21.01405 amu.
 Principal axes and moments of inertia in atomic units:
                           1         2         3
     Eigenvalues --     0.00000 107.16259 107.16259
           X            1.00000  -0.00000   0.00000
           Y            0.00000   1.00000   0.00000
           Z            0.00000   0.00000   1.00000
 This molecule is a prolate symmetric top.
 Rotational symmetry number  1.
 Rotational temperature (Kelvin)      0.80825
 Rotational constant (GHZ):          16.841149
    2 imaginary frequencies ignored.
 Zero-point vibrational energy      16675.0 (Joules/Mol)
                                    3.98543 (Kcal/Mol)
 Vibrational temperatures:   2004.85  2006.25
          (Kelvin)

 Zero-point correction=                           0.006351 (Hartree/Particle)
 Thermal correction to Energy=                    0.008727
 Thermal correction to Enthalpy=                  0.009671
 Thermal correction to Gibbs Free Energy=        -0.014188
 Sum of electronic and zero-point Energies=           -100.847690
 Sum of electronic and thermal Energies=              -100.845314
 Sum of electronic and thermal Enthalpies=            -100.844370
 Sum of electronic and thermal Free Energies=         -100.868229

                     E (Thermal)             CV                S
                      KCal/Mol        Cal/Mol-Kelvin    Cal/Mol-Kelvin
 Total                    5.476              5.184             50.215
 Electronic               0.000              0.000              1.377
 Translational            0.889              2.981             35.068
 Rotational               0.592              1.987             13.733
 Vibrational              3.995              0.216              0.037

 Normal termination of Gaussian 16 at Fri Aug 22 20:56:26 2025.
