 Gaussian 16, Revision C.01,
 Gaussian 16:  ES64L-G16RevC.01  3-Jul-2019

 -----------------------------------------
 # sp b3lyp/6-311g** Force nosymm scf=(qc)
 -----------------------------------------

 -------------------
 Title Card Required
 -------------------
 Symbolic Z-matrix:
 Charge =  0 Multiplicity = 2

                          Input orientation:
 ---------------------------------------------------------------------
 Center     Atomic      Atomic             Coordinates (Angstroms)
 Number     Number       Type             X           Y           Z
 ---------------------------------------------------------------------
      1          1           0        0.000000    0.000000    0.000000
      2          1           0       -3.750000    0.000000    0.000000
      3          9           0        1.600000    0.000000    0.000000
 ---------------------------------------------------------------------

 SCF Done:  E(UB3LYP) =  -100.833858527     a.u. after   11 cycles

 Alpha  occ. eigenvalues --  -24.64078  -1.08360  -0.41470  -0.36023  -0.36023
 Alpha  occ. eigenvalues --   -0.33737
 Alpha virt. eigenvalues --   -0.17071   0.19660   0.26848   0.93860   0.93860
 Alpha virt. eigenvalues --    1.01092   1.07155   1.23745   1.23767   1.23767
 Alpha virt. eigenvalues --    1.27686   1.27686   1.71945   2.11869   2.15816

  Beta  occ. eigenvalues --  -24.64855  -1.10445  -0.43258  -0.36769  -0.36769
  Beta virt. eigenvalues --   -0.15604  -0.06121   0.24032   0.38607   0.94160
  Beta virt. eigenvalues --    0.94160   1.00436   1.06910   1.31894   1.31894
  Beta virt. eigenvalues --    1.46199   1.46622   1.46622   1.74021   2.20002

 Mulliken charges and spin densities:
               1          2
     1  H    0.330608   0.246506
     2  H    0.001051   0.998946
     3  F   -0.331659  -0.245452
 Sum of Mulliken charges =  -0.00000   1.00000

 Dipole moment (field-independent basis, Debye):
    X=             -2.6129    Y=              0.0000    Z=              0.0000  Tot=              2.6129
 Quadrupole moment (field-independent basis, Debye-Ang):
   XX=            -10.2146   YY=             -7.3677   ZZ=             -7.3677
   XY=              0.0000   XZ=             -0.0000   YZ=              0.0000

  Exact polarizability:      19.055       0.000       2.147      -0.000      -0.000       2.147
 Approx polarizability:      34.081      -0.000       2.060       0.000      -0.000       2.060

 ******    2 imaginary frequencies (negative Signs) ******

                      1                      2                      3
                      A                      A                      A
 Frequencies --  -1916.8538               -45.1672               915.6902
 Red. masses --      1.0585                 1.0530                 1.0306
 Frc consts  --      2.2916                 0.0013                 0.5092
 IR Inten    --     70.6087                 0.1558               104.6158

                      4
                      A
 Frequencies --    915.6902
 Red. masses --      1.0306
 Frc consts  --      0.5092
 IR Inten    --    104.6158

 - Thermochemistry -
 -------------------
 Temperature   298.150 Kelvin.  Pressure   1.00000 Atm.
 Atom     1 has atomic number  1 and mass   1.00783

 Molecular mass:    21.01405 amu.
 Principal axes and moments of inertia in atomic units:
                           1         2         3
     Eigenvalues --     0.00000 103.88874 103.88874
           X            1.00000  -0.00000   0.00000
           Y            0.00000   1.00000   0.00000
           Z            0.00000   0.00000   1.00000
 This molecule is a prolate symmetric top.
 Rotational symmetry number  1.
 Rotational temperature (Kelvin)      0.83372
 Rotational constant (GHZ):          17.371866
    2 imaginary frequencies ignored.
 Zero-point vibrational energy      10954.1 (Joules/Mol)
                                    2.61809 (Kcal/Mol)
 Vibrational temperatures:   1317.47  1317.47
          (Kelvin)

 Zero-point correction=                           0.004172 (Hartree/Particle)
 Thermal correction to Energy=                    0.006634
 Thermal correction to Enthalpy=                  0.007579
 Thermal correction to Gibbs Free Energy=        -0.016358
 Sum of electronic and zero-point Energies=           -100.829686
 Sum of electronic and thermal Energies=              -100.827224
 Sum of electronic and thermal Enthalpies=            -100.826280
 Sum of electronic and thermal Free Energies=         -100.850216

                     E (Thermal)             CV                S
                      KCal/Mol        Cal/Mol-Kelvin    Cal/Mol-Kelvin
 Total                    4.163              5.926             50.379
 Electronic               0.000              0.000              1.377
 Translational            0.889              2.981             35.068
 Rotational               0.592              1.987             13.671
 Vibrational              2.682              0.958              0.262

 Normal termination of Gaussian 16 at Fri Aug 22 16:32:46 2025.
