 Gaussian 16, Revision C.01,
 Gaussian 16:  ES64L-G16RevC.01  3-Jul-2019

 -----------------------------------------
 # sp b3lyp/6-311g** Force nosymm scf=(qc)
 -----------------------------------------

 -------------------
 Title Card Required
 -------------------
 Symbolic Z-matrix:
 Charge =  0 Multiplicity = 2

                          Input orientation:
 ---------------------------------------------------------------------
 Center     Atomic      Atomic             Coordinates (Angstroms)
 Number     Number       Type             X           Y           Z
 ---------------------------------------------------------------------
      1          1           0        0.000000    0.000000    0.000000
      2          1           0       -3.200000    0.000000    0.000000
      3          9           0        1.300000    0.000000    0.000000
 ---------------------------------------------------------------------

 SCF Done:  E(UB3LYP) =  -100.901355557     a.u. after    7 cycles

 Alpha  occ. eigenvalues --  -24.64339  -1.11090  -0.46046  -0.37042  -0.37042
 Alpha  occ. eigenvalues --   -0.34228
 Alpha virt. eigenvalues --   -0.08834   0.21916   0.28386   0.93032   0.93032
 Alpha virt. eigenvalues --    1.02075   1.21619   1.23293   1.23293   1.23683
 Alpha virt. eigenvalues --    1.33836   1.33836   1.70895   2.13919   2.24852

  Beta  occ. eigenvalues --  -24.64326  -1.11056  -0.46006  -0.37030  -0.37030
  Beta virt. eigenvalues --   -0.10258  -0.05756   0.25500   0.38005   0.93029
  Beta virt. eigenvalues --    0.93029   1.02112   1.21879   1.33799   1.33799
  Beta virt. eigenvalues --    1.45587   1.46066   1.46066   1.70967   2.24765

 Mulliken charges and spin densities:
               1          2
     1  H    0.356733  -0.000994
     2  H    0.002862   0.996808
     3  F   -0.359595   0.004186
 Sum of Mulliken charges =   0.00000   1.00000

 Dipole moment (field-independent basis, Debye):
    X=             -2.4341    Y=              0.0000    Z=             -0.0000  Tot=              2.4341
 Quadrupole moment (field-independent basis, Debye-Ang):
   XX=             -9.1210   YY=             -7.1999   ZZ=             -7.1999
   XY=             -0.0000   XZ=             -0.0000   YZ=             -0.0000

  Exact polarizability:      12.075       0.000       2.283      -0.000      -0.000       2.283
 Approx polarizability:      18.123      -0.000       2.228       0.000      -0.000       2.228

 ******    2 imaginary frequencies (negative Signs) ******

                      1                      2                      3
                      A                      A                      A
 Frequencies --   -621.9032               -89.2286              1154.8611
 Red. masses --      1.0542                 1.0574                 1.0314
 Frc consts  --      0.2402                 0.0050                 0.8105
 IR Inten    --     67.8478                 0.0824               133.2066

                      4
                      A
 Frequencies --   1154.8611
 Red. masses --      1.0314
 Frc consts  --      0.8105
 IR Inten    --    133.2066

 - Thermochemistry -
 -------------------
 Temperature   298.150 Kelvin.  Pressure   1.00000 Atm.
 Atom     1 has atomic number  1 and mass   1.00783

 Molecular mass:    21.01405 amu.
 Principal axes and moments of inertia in atomic units:
                           1         2         3
     Eigenvalues --     0.00000  73.15575  73.15575
           X            1.00000  -0.00000   0.00000
           Y            0.00000   1.00000   0.00000
           Z            0.00000   0.00000   1.00000
 This molecule is a prolate symmetric top.
 Rotational symmetry number  1.
 Rotational temperature (Kelvin)      1.18397
 Rotational constant (GHZ):          24.669847
    2 imaginary frequencies ignored.
 Zero-point vibrational energy      13815.2 (Joules/Mol)
                                    3.30191 (Kcal/Mol)
 Vibrational temperatures:   1661.59  1661.59
          (Kelvin)

 Zero-point correction=                           0.005262 (Hartree/Particle)
 Thermal correction to Energy=                    0.007663
 Thermal correction to Enthalpy=                  0.008607
 Thermal correction to Gibbs Free Energy=        -0.014921
 Sum of electronic and zero-point Energies=           -100.896094
 Sum of electronic and thermal Energies=              -100.893693
 Sum of electronic and thermal Enthalpies=            -100.892749
 Sum of electronic and thermal Free Energies=         -100.916277

                     E (Thermal)             CV                S
                      KCal/Mol        Cal/Mol-Kelvin    Cal/Mol-Kelvin
 Total                    4.808              5.441             49.519
 Electronic               0.000              0.000              1.377
 Translational            0.889              2.981             35.068
 Rotational               0.592              1.987             12.974
 Vibrational              3.327              0.473              0.100

 Normal termination of Gaussian 16 at Fri Aug 22 16:15:52 2025.
