 Gaussian 16, Revision C.01,
 Gaussian 16:  ES64L-G16RevC.01  3-Jul-2019

 -----------------------------------------
 # sp b3lyp/6-311g** Force nosymm scf=(qc)
 -----------------------------------------

 -------------------
 Title Card Required
 -------------------
 Symbolic Z-matrix:
 Charge =  0 Multiplicity = 2

                          Input orientation:
 ---------------------------------------------------------------------
 Center     Atomic      Atomic             Coordinates (Angstroms)
 Number     Number       Type             X           Y           Z
 ---------------------------------------------------------------------
      1          1           0        0.000000    0.000000    0.000000
      2          1           0       -0.550000    0.000000    0.000000
      3          9           0        2.950000    0.000000    0.000000
 ---------------------------------------------------------------------

 SCF Done:  E(UB3LYP) =  -100.894707805     a.u. after  302 cycles

 Alpha  occ. eigenvalues --  -24.76594  -1.22389  -0.55582  -0.47935  -0.46731
 Alpha  occ. eigenvalues --   -0.46596
 Alpha virt. eigenvalues --    0.09695   0.18827   0.54443   0.85888   0.90760
 Alpha virt. eigenvalues --    0.93974   1.07856   1.11214   1.11223   1.61972
 Alpha virt. eigenvalues --    1.83593   1.96344   1.96354   2.37336   3.64683

  Beta  occ. eigenvalues --  -24.73432  -1.13300  -0.47796  -0.43561  -0.43559
  Beta virt. eigenvalues --   -0.26202   0.09761   0.18866   0.54566   0.92258
  Beta virt. eigenvalues --    0.95344   0.95879   1.11214   1.11222   1.11387
  Beta virt. eigenvalues --    1.61995   1.83631   1.96343   1.96354   2.37342

 Mulliken charges and spin densities:
               1          2
     1  H   -0.008998  -0.001838
     2  H   -0.001752   0.000344
     3  F    0.010751   1.001494
 Sum of Mulliken charges =   0.00000   1.00000

 Dipole moment (field-independent basis, Debye):
    X=              0.0945    Y=             -0.0000    Z=             -0.0000  Tot=              0.0945
 Quadrupole moment (field-independent basis, Debye-Ang):
   XX=             -5.9828   YY=             -6.6348   ZZ=             -5.8457
   XY=              0.0000   XZ=             -0.0000   YZ=             -0.1753

  Exact polarizability:       6.327       0.000       1.863      -0.000      -0.093       2.283
 Approx polarizability:       6.699       0.000       1.951      -0.000      -0.117       2.477

 ******    2 imaginary frequencies (negative Signs) ******

                      1                      2                      3
                      A                      A                      A
 Frequencies --  -3688.3532             -3687.7549                72.8471
 Red. masses --      1.0086                 1.0086                 1.1085
 Frc consts  --      8.0838                 8.0812                 0.0035
 IR Inten    --      0.0602                 0.0585                 0.1699

                      4
                      A
 Frequencies --   8342.8288
 Red. masses --      1.0078
 Frc consts  --     41.3297
 IR Inten    --      0.3560

 - Thermochemistry -
 -------------------
 Temperature   298.150 Kelvin.  Pressure   1.00000 Atm.
 Atom     1 has atomic number  1 and mass   1.00783

 Molecular mass:    21.01405 amu.
 Principal axes and moments of inertia in atomic units:
                           1         2         3
     Eigenvalues --     0.00000  68.22735  68.22735
           X            1.00000  -0.00000   0.00000
           Y            0.00000   1.00000   0.00000
           Z            0.00000   0.00000   1.00000
 This molecule is a prolate symmetric top.
 Rotational symmetry number  1.
 Rotational temperature (Kelvin)      1.26949
 Rotational constant (GHZ):          26.451874
    2 imaginary frequencies ignored.
 Zero-point vibrational energy      50336.9 (Joules/Mol)
                                   12.03081 (Kcal/Mol)
 Warning -- explicit consideration of   1 degrees of freedom as
           vibrations may cause significant error
 Vibrational temperatures:    104.81 12003.47
          (Kelvin)

 Zero-point correction=                           0.019172 (Hartree/Particle)
 Thermal correction to Energy=                    0.022321
 Thermal correction to Enthalpy=                  0.023265
 Thermal correction to Gibbs Free Energy=        -0.002086
 Sum of electronic and zero-point Energies=           -100.875535
 Sum of electronic and thermal Energies=              -100.872387
 Sum of electronic and thermal Enthalpies=            -100.871443
 Sum of electronic and thermal Free Energies=         -100.896794

                     E (Thermal)             CV                S
                      KCal/Mol        Cal/Mol-Kelvin    Cal/Mol-Kelvin
 Total                   14.006              6.935             53.356
 Electronic               0.000              0.000              1.377
 Translational            0.889              2.981             35.068
 Rotational               0.592              1.987             12.835
 Vibrational             12.525              1.967              4.075
 Vibration     1          0.599              1.967              4.075

 Normal termination of Gaussian 16 at Fri Aug 22 19:06:49 2025.
