 Gaussian 16, Revision C.01,
 Gaussian 16:  ES64L-G16RevC.01  3-Jul-2019

 -----------------------------------------
 # sp b3lyp/6-311g** Force nosymm scf=(qc)
 -----------------------------------------

 -------------------
 Title Card Required
 -------------------
 Symbolic Z-matrix:
 Charge =  0 Multiplicity = 2

                          Input orientation:
 ---------------------------------------------------------------------
 Center     Atomic      Atomic             Coordinates (Angstroms)
 Number     Number       Type             X           Y           Z
 ---------------------------------------------------------------------
      1          1           0        0.000000    0.000000    0.000000
      2          1           0       -2.400000    0.000000    0.000000
      3          9           0        3.050000    0.000000    0.000000
 ---------------------------------------------------------------------

 SCF Done:  E(UB3LYP) =  -100.765744132     a.u. after   23 cycles

 Alpha  occ. eigenvalues --  -24.74351  -1.20388  -0.53468  -0.44894  -0.44894
 Alpha  occ. eigenvalues --   -0.33123
 Alpha virt. eigenvalues --   -0.10640   0.25486   0.33357   0.89360   0.92117
 Alpha virt. eigenvalues --    0.92117   1.03657   1.24578   1.24578   1.26118
 Alpha virt. eigenvalues --    1.39501   1.39501   1.42109   2.14981   2.35989

  Beta  occ. eigenvalues --  -24.71307  -1.11661  -0.41847  -0.41847  -0.33700
  Beta virt. eigenvalues --   -0.24945  -0.09616   0.25626   0.34479   0.93584
  Beta virt. eigenvalues --    0.93584   0.98189   1.07585   1.23867   1.23867
  Beta virt. eigenvalues --    1.25243   1.41155   1.41155   1.43703   2.16047

 Mulliken charges and spin densities:
               1          2
     1  H    0.025240  -0.924798
     2  H    0.006531   0.960292
     3  F   -0.031772   0.964506
 Sum of Mulliken charges =  -0.00000   1.00000

 Dipole moment (field-independent basis, Debye):
    X=             -0.5720    Y=              0.0000    Z=              0.0000  Tot=              0.5720
 Quadrupole moment (field-independent basis, Debye-Ang):
   XX=             -7.7563   YY=             -7.6635   ZZ=             -7.6635
   XY=              0.0000   XZ=              0.0000   YZ=              0.0000

  Exact polarizability:      46.115       0.000       2.013       0.000       0.000       2.013
 Approx polarizability:      40.005       0.000       1.923       0.000       0.000       1.923

 ******    2 imaginary frequencies (negative Signs) ******

                      1                      2                      3
                      A                      A                      A
 Frequencies --   -794.2707              -228.0460               298.8801
 Red. masses --      1.0088                 1.1073                 1.0153
 Frc consts  --      0.3750                 0.0339                 0.0534
 IR Inten    --     20.2526                20.0604                 0.4575

                      4
                      A
 Frequencies --    298.8801
 Red. masses --      1.0153
 Frc consts  --      0.0534
 IR Inten    --      0.4575

 - Thermochemistry -
 -------------------
 Temperature   298.150 Kelvin.  Pressure   1.00000 Atm.
 Atom     1 has atomic number  1 and mass   1.00783

 Molecular mass:    21.01405 amu.
 Principal axes and moments of inertia in atomic units:
                           1         2         3
     Eigenvalues --     0.00000 127.90848 127.90848
           X            1.00000  -0.00000   0.00000
           Y            0.00000   1.00000   0.00000
           Z            0.00000   0.00000   1.00000
 This molecule is a prolate symmetric top.
 Rotational symmetry number  1.
 Rotational temperature (Kelvin)      0.67716
 Rotational constant (GHZ):          14.109629
    2 imaginary frequencies ignored.
 Zero-point vibrational energy       3575.4 (Joules/Mol)
                                    0.85454 (Kcal/Mol)
 Warning -- explicit consideration of   2 degrees of freedom as
           vibrations may cause significant error
 Vibrational temperatures:    430.02   430.02
          (Kelvin)

 Zero-point correction=                           0.001362 (Hartree/Particle)
 Thermal correction to Energy=                    0.004565
 Thermal correction to Enthalpy=                  0.005510
 Thermal correction to Gibbs Free Energy=        -0.019851
 Sum of electronic and zero-point Energies=           -100.764382
 Sum of electronic and thermal Energies=              -100.761179
 Sum of electronic and thermal Enthalpies=            -100.760235
 Sum of electronic and thermal Free Energies=         -100.785595

                     E (Thermal)             CV                S
                      KCal/Mol        Cal/Mol-Kelvin    Cal/Mol-Kelvin
 Total                    2.865              8.320             53.376
 Electronic               0.000              0.000              1.377
 Translational            0.889              2.981             35.068
 Rotational               0.592              1.987             14.084
 Vibrational              1.384              3.352              2.846
 Vibration     1          0.692              1.676              1.423
 Vibration     2          0.692              1.676              1.423

 Normal termination of Gaussian 16 at Fri Aug 22 19:44:06 2025.
