 Gaussian 16, Revision C.01,
 Gaussian 16:  ES64L-G16RevC.01  3-Jul-2019

 -----------------------------------------
 # sp b3lyp/6-311g** Force nosymm scf=(qc)
 -----------------------------------------

 -------------------
 Title Card Required
 -------------------
 Symbolic Z-matrix:
 Charge =  0 Multiplicity = 2

                          Input orientation:
 ---------------------------------------------------------------------
 Center     Atomic      Atomic             Coordinates (Angstroms)
 Number     Number       Type             X           Y           Z
 ---------------------------------------------------------------------
      1          1           0        0.000000    0.000000    0.000000
      2          1           0       -0.850000    0.000000    0.000000
      3          9           0        2.550000    0.000000    0.000000
 ---------------------------------------------------------------------

 SCF Done:  E(UB3LYP) =  -100.927841848     a.u. after    5 cycles

 Alpha  occ. eigenvalues --  -24.75983  -1.21894  -0.55183  -0.46275  -0.46275
 Alpha  occ. eigenvalues --   -0.41976
 Alpha virt. eigenvalues --    0.03788   0.20449   0.43839   0.89813   0.91013
 Alpha virt. eigenvalues --    0.91013   1.07506   1.07506   1.10647   1.48330
 Alpha virt. eigenvalues --    1.74842   1.74842   2.12494   2.38434   2.86710

  Beta  occ. eigenvalues --  -24.72862  -1.12929  -0.43149  -0.43149  -0.41931
  Beta virt. eigenvalues --   -0.26170   0.04216   0.20720   0.44178   0.92489
  Beta virt. eigenvalues --    0.92489   0.98240   1.07650   1.07650   1.15035
  Beta virt. eigenvalues --    1.48521   1.74937   1.74937   2.12637   2.38594

 Mulliken charges and spin densities:
               1          2
     1  H   -0.012822  -0.009415
     2  H    0.017179   0.022354
     3  F   -0.004357   0.987060
 Sum of Mulliken charges =   0.00000   1.00000

 Dipole moment (field-independent basis, Debye):
    X=             -0.1333    Y=             -0.0000    Z=             -0.0000  Tot=              0.1333
 Quadrupole moment (field-independent basis, Debye-Ang):
   XX=             -5.6285   YY=             -7.0792   ZZ=             -7.0792
   XY=             -0.0000   XZ=             -0.0000   YZ=             -0.0000

  Exact polarizability:      15.119      -0.000       2.028       0.000      -0.000       2.028
 Approx polarizability:      16.740      -0.000       2.097       0.000      -0.000       2.097

 ******    1 imaginary frequencies (negative Signs) ******

                      1                      2                      3
                      A                      A                      A
 Frequencies --   -135.5226              1303.6143              1303.6143
 Red. masses --      1.1085                 1.0098                 1.0098
 Frc consts  --      0.0120                 1.0111                 1.0111
 IR Inten    --      3.6748                 0.2629                 0.2629

                      4
                      A
 Frequencies --   3110.5582
 Red. masses --      1.0078
 Frc consts  --      5.7453
 IR Inten    --     39.3930

 - Thermochemistry -
 -------------------
 Temperature   298.150 Kelvin.  Pressure   1.00000 Atm.
 Atom     1 has atomic number  1 and mass   1.00783

 Molecular mass:    21.01405 amu.
 Principal axes and moments of inertia in atomic units:
                           1         2         3
     Eigenvalues --     0.00000  58.89638  58.89638
           X            1.00000  -0.00000   0.00000
           Y            0.00000   1.00000   0.00000
           Z            0.00000   0.00000   1.00000
 This molecule is a prolate symmetric top.
 Rotational symmetry number  1.
 Rotational temperature (Kelvin)      1.47062
 Rotational constant (GHZ):          30.642653
    1 imaginary frequencies ignored.
 Zero-point vibrational energy      34200.0 (Joules/Mol)
                                    8.17399 (Kcal/Mol)
 Vibrational temperatures:   1875.61  1875.61  4475.40
          (Kelvin)

 Zero-point correction=                           0.013026 (Hartree/Particle)
 Thermal correction to Energy=                    0.015409
 Thermal correction to Enthalpy=                  0.016353
 Thermal correction to Gibbs Free Energy=        -0.006949
 Sum of electronic and zero-point Energies=           -100.914816
 Sum of electronic and thermal Energies=              -100.912433
 Sum of electronic and thermal Enthalpies=            -100.911489
 Sum of electronic and thermal Free Energies=         -100.934791

                     E (Thermal)             CV                S
                      KCal/Mol        Cal/Mol-Kelvin    Cal/Mol-Kelvin
 Total                    9.669              5.261             49.042
 Electronic               0.000              0.000              1.377
 Translational            0.889              2.981             35.068
 Rotational               0.592              1.987             12.543
 Vibrational              8.188              0.293              0.054

 Normal termination of Gaussian 16 at Fri Aug 22 17:51:15 2025.
