 Gaussian 16, Revision C.01,
 Gaussian 16:  ES64L-G16RevC.01  3-Jul-2019

 -----------------------------------------
 # sp b3lyp/6-311g** Force nosymm scf=(qc)
 -----------------------------------------

 -------------------
 Title Card Required
 -------------------
 Symbolic Z-matrix:
 Charge =  0 Multiplicity = 2

                          Input orientation:
 ---------------------------------------------------------------------
 Center     Atomic      Atomic             Coordinates (Angstroms)
 Number     Number       Type             X           Y           Z
 ---------------------------------------------------------------------
      1          1           0        0.000000    0.000000    0.000000
      2          1           0       -1.800000    0.000000    0.000000
      3          9           0        2.850000    0.000000    0.000000
 ---------------------------------------------------------------------

 SCF Done:  E(UB3LYP) =  -100.788662415     a.u. after   24 cycles

 Alpha  occ. eigenvalues --  -24.74008  -1.20070  -0.53132  -0.44611  -0.44611
 Alpha  occ. eigenvalues --   -0.34305
 Alpha virt. eigenvalues --   -0.11963   0.25081   0.30909   0.90053   0.92307
 Alpha virt. eigenvalues --    0.92307   1.04517   1.10141   1.23268   1.23268
 Alpha virt. eigenvalues --    1.36125   1.36125   1.60029   2.13587   2.39497

  Beta  occ. eigenvalues --  -24.70997  -1.11445  -0.41598  -0.41598  -0.34220
  Beta virt. eigenvalues --   -0.24883  -0.11490   0.25985   0.30997   0.93759
  Beta virt. eigenvalues --    0.93759   0.98383   1.07447   1.11638   1.23372
  Beta virt. eigenvalues --    1.23372   1.36727   1.36727   1.60593   2.14683

 Mulliken charges and spin densities:
               1          2
     1  H    0.017090  -0.691840
     2  H    0.022994   0.738168
     3  F   -0.040084   0.953673
 Sum of Mulliken charges =  -0.00000   1.00000

 Dipole moment (field-independent basis, Debye):
    X=             -0.7819    Y=              0.0000    Z=             -0.0000  Tot=              0.7819
 Quadrupole moment (field-independent basis, Debye-Ang):
   XX=             -7.1801   YY=             -7.7243   ZZ=             -7.7243
   XY=              0.0000   XZ=             -0.0000   YZ=              0.0000

  Exact polarizability:      62.698       0.000       2.009      -0.000      -0.000       2.009
 Approx polarizability:      67.307      -0.000       1.952       0.000      -0.000       1.952

 ******    2 imaginary frequencies (negative Signs) ******

                      1                      2                      3
                      A                      A                      A
 Frequencies --  -1741.1691              -268.7924               759.4614
 Red. masses --      1.0080                 1.1083                 1.0133
 Frc consts  --      1.8005                 0.0472                 0.3444
 IR Inten    --    102.0968                35.5602                 0.0485

                      4
                      A
 Frequencies --    759.4614
 Red. masses --      1.0133
 Frc consts  --      0.3444
 IR Inten    --      0.0485

 - Thermochemistry -
 -------------------
 Temperature   298.150 Kelvin.  Pressure   1.00000 Atm.
 Atom     1 has atomic number  1 and mass   1.00783

 Molecular mass:    21.01405 amu.
 Principal axes and moments of inertia in atomic units:
                           1         2         3
     Eigenvalues --     0.00000  97.34337  97.34337
           X            1.00000  -0.00000   0.00000
           Y            0.00000   1.00000   0.00000
           Z            0.00000   0.00000   1.00000
 This molecule is a prolate symmetric top.
 Rotational symmetry number  1.
 Rotational temperature (Kelvin)      0.88978
 Rotational constant (GHZ):          18.539950
    2 imaginary frequencies ignored.
 Zero-point vibrational energy       9085.2 (Joules/Mol)
                                    2.17141 (Kcal/Mol)
 Vibrational temperatures:   1092.70  1092.70
          (Kelvin)

 Zero-point correction=                           0.003460 (Hartree/Particle)
 Thermal correction to Energy=                    0.006003
 Thermal correction to Enthalpy=                  0.006947
 Thermal correction to Gibbs Free Energy=        -0.017034
 Sum of electronic and zero-point Energies=           -100.785202
 Sum of electronic and thermal Energies=              -100.782660
 Sum of electronic and thermal Enthalpies=            -100.781716
 Sum of electronic and thermal Free Energies=         -100.805697

                     E (Thermal)             CV                S
                      KCal/Mol        Cal/Mol-Kelvin    Cal/Mol-Kelvin
 Total                    3.767              6.408             50.473
 Electronic               0.000              0.000              1.377
 Translational            0.889              2.981             35.068
 Rotational               0.592              1.987             13.542
 Vibrational              2.286              1.440              0.486

 Normal termination of Gaussian 16 at Fri Aug 22 18:53:02 2025.
