 Gaussian 16, Revision C.01,
 Gaussian 16:  ES64L-G16RevC.01  3-Jul-2019

 -----------------------------------------
 # sp b3lyp/6-311g** Force nosymm scf=(qc)
 -----------------------------------------

 -------------------
 Title Card Required
 -------------------
 Symbolic Z-matrix:
 Charge =  0 Multiplicity = 2

                          Input orientation:
 ---------------------------------------------------------------------
 Center     Atomic      Atomic             Coordinates (Angstroms)
 Number     Number       Type             X           Y           Z
 ---------------------------------------------------------------------
      1          1           0        0.000000    0.000000    0.000000
      2          1           0       -2.850000    0.000000    0.000000
      3          9           0        2.600000    0.000000    0.000000
 ---------------------------------------------------------------------

 SCF Done:  E(UB3LYP) =  -100.766906495     a.u. after   23 cycles

 Alpha  occ. eigenvalues --  -24.72315  -1.18493  -0.51422  -0.43189  -0.43189
 Alpha  occ. eigenvalues --   -0.33208
 Alpha virt. eigenvalues --   -0.10737   0.24477   0.34206   0.90107   0.93307
 Alpha virt. eigenvalues --    0.93307   1.06204   1.24354   1.24354   1.25714
 Alpha virt. eigenvalues --    1.40179   1.40179   1.42846   2.15252   2.35671

  Beta  occ. eigenvalues --  -24.69424  -1.10247  -0.40304  -0.40304  -0.34969
  Beta virt. eigenvalues --   -0.23722  -0.08258   0.25057   0.36134   0.94707
  Beta virt. eigenvalues --    0.94707   0.97538   1.09165   1.22467   1.22467
  Beta virt. eigenvalues --    1.27545   1.43859   1.43859   1.44175   2.14699

 Mulliken charges and spin densities:
               1          2
     1  H    0.071936  -0.903371
     2  H    0.004125   0.988938
     3  F   -0.076061   0.914433
 Sum of Mulliken charges =  -0.00000   1.00000

 Dipole moment (field-independent basis, Debye):
    X=             -1.0655    Y=             -0.0000    Z=             -0.0000  Tot=              1.0655
 Quadrupole moment (field-independent basis, Debye-Ang):
   XX=             -8.9079   YY=             -7.6004   ZZ=             -7.6004
   XY=             -0.0000   XZ=             -0.0000   YZ=             -0.0000

  Exact polarizability:      36.913      -0.000       2.019      -0.000      -0.000       2.019
 Approx polarizability:      41.674      -0.000       1.919      -0.000       0.000       1.919

 ******    2 imaginary frequencies (negative Signs) ******

                      1                      2                      3
                      A                      A                      A
 Frequencies --   -626.7010              -245.4552               243.3602
 Red. masses --      1.0347                 1.0777                 1.0191
 Frc consts  --      0.2394                 0.0383                 0.0356
 IR Inten    --     63.4430                 7.1632                 4.6091

                      4
                      A
 Frequencies --    243.3602
 Red. masses --      1.0191
 Frc consts  --      0.0356
 IR Inten    --      4.6091

 - Thermochemistry -
 -------------------
 Temperature   298.150 Kelvin.  Pressure   1.00000 Atm.
 Atom     1 has atomic number  1 and mass   1.00783

 Molecular mass:    21.01405 amu.
 Principal axes and moments of inertia in atomic units:
                           1         2         3
     Eigenvalues --     0.00000 120.04349 120.04349
           X            1.00000  -0.00000   0.00000
           Y            0.00000   1.00000   0.00000
           Z            0.00000   0.00000   1.00000
 This molecule is a prolate symmetric top.
 Rotational symmetry number  1.
 Rotational temperature (Kelvin)      0.72152
 Rotational constant (GHZ):          15.034062
    2 imaginary frequencies ignored.
 Zero-point vibrational energy       2911.2 (Joules/Mol)
                                    0.69580 (Kcal/Mol)
 Warning -- explicit consideration of   2 degrees of freedom as
           vibrations may cause significant error
 Vibrational temperatures:    350.14   350.14
          (Kelvin)

 Zero-point correction=                           0.001109 (Hartree/Particle)
 Thermal correction to Energy=                    0.004461
 Thermal correction to Enthalpy=                  0.005405
 Thermal correction to Gibbs Free Energy=        -0.020233
 Sum of electronic and zero-point Energies=           -100.765798
 Sum of electronic and thermal Energies=              -100.762445
 Sum of electronic and thermal Enthalpies=            -100.761501
 Sum of electronic and thermal Free Energies=         -100.787139

                     E (Thermal)             CV                S
                      KCal/Mol        Cal/Mol-Kelvin    Cal/Mol-Kelvin
 Total                    2.799              8.515             53.960
 Electronic               0.000              0.000              1.377
 Translational            0.889              2.981             35.068
 Rotational               0.592              1.987             13.958
 Vibrational              1.318              3.547              3.556
 Vibration     1          0.659              1.774              1.778
 Vibration     2          0.659              1.774              1.778

 Normal termination of Gaussian 16 at Fri Aug 22 18:04:35 2025.
