 Gaussian 16, Revision C.01,
 Gaussian 16:  ES64L-G16RevC.01  3-Jul-2019

 -----------------------------------------
 # sp b3lyp/6-311g** Force nosymm scf=(qc)
 -----------------------------------------

 -------------------
 Title Card Required
 -------------------
 Symbolic Z-matrix:
 Charge =  0 Multiplicity = 2

                          Input orientation:
 ---------------------------------------------------------------------
 Center     Atomic      Atomic             Coordinates (Angstroms)
 Number     Number       Type             X           Y           Z
 ---------------------------------------------------------------------
      1          1           0        0.000000    0.000000    0.000000
      2          1           0       -0.850000    0.000000    0.000000
      3          9           0        1.450000    0.000000    0.000000
 ---------------------------------------------------------------------

 SCF Done:  E(UB3LYP) =  -100.937946282     a.u. after    7 cycles

 Alpha  occ. eigenvalues --  -24.69803  -1.17113  -0.55160  -0.41691  -0.41691
 Alpha  occ. eigenvalues --   -0.41376
 Alpha virt. eigenvalues --    0.07375   0.19772   0.39602   0.88941   0.88941
 Alpha virt. eigenvalues --    0.97794   1.07687   1.07687   1.28053   1.67156
 Alpha virt. eigenvalues --    1.73560   1.73560   2.12203   2.37763   2.71513

  Beta  occ. eigenvalues --  -24.67380  -1.10523  -0.46609  -0.39351  -0.39351
  Beta virt. eigenvalues --   -0.23115   0.09194   0.20964   0.42133   0.90074
  Beta virt. eigenvalues --    0.90074   1.03445   1.10503   1.10503   1.31827
  Beta virt. eigenvalues --    1.70581   1.75294   1.75294   2.13548   2.41304

 Mulliken charges and spin densities:
               1          2
     1  H    0.158218  -0.062962
     2  H    0.029594   0.334160
     3  F   -0.187812   0.728802
 Sum of Mulliken charges =   0.00000   1.00000

 Dipole moment (field-independent basis, Debye):
    X=             -1.4714    Y=              0.0000    Z=              0.0000  Tot=              1.4714
 Quadrupole moment (field-independent basis, Debye-Ang):
   XX=             -7.1421   YY=             -6.8623   ZZ=             -6.8623
   XY=              0.0000   XZ=              0.0000   YZ=             -0.0000

  Exact polarizability:      22.892       0.000       2.367       0.000       0.000       2.367
 Approx polarizability:      31.107       0.000       2.386       0.000       0.000       2.386

 ******    1 imaginary frequencies (negative Signs) ******

                      1                      2                      3
                      A                      A                      A
 Frequencies --   -884.0372               858.3351               858.3351
 Red. masses --      1.1010                 1.0128                 1.0128
 Frc consts  --      0.5070                 0.4396                 0.4396
 IR Inten    --    240.1179                 2.8248                 2.8248

                      4
                      A
 Frequencies --   2501.6323
 Red. masses --      1.0141
 Frc consts  --      3.7391
 IR Inten    --    684.9930

 - Thermochemistry -
 -------------------
 Temperature   298.150 Kelvin.  Pressure   1.00000 Atm.
 Atom     1 has atomic number  1 and mass   1.00783

 Molecular mass:    21.01405 amu.
 Principal axes and moments of inertia in atomic units:
                           1         2         3
     Eigenvalues --     0.00000  24.17839  24.17839
           X            1.00000  -0.00000   0.00000
           Y            0.00000   1.00000   0.00000
           Z            0.00000   0.00000   1.00000
 This molecule is a prolate symmetric top.
 Rotational symmetry number  1.
 Rotational temperature (Kelvin)      3.58229
 Rotational constant (GHZ):          74.642750
    1 imaginary frequencies ignored.
 Zero-point vibrational energy      25231.1 (Joules/Mol)
                                    6.03037 (Kcal/Mol)
 Vibrational temperatures:   1234.95  1234.95  3599.29
          (Kelvin)

 Zero-point correction=                           0.009610 (Hartree/Particle)
 Thermal correction to Energy=                    0.012097
 Thermal correction to Enthalpy=                  0.013041
 Thermal correction to Gibbs Free Energy=        -0.009551
 Sum of electronic and zero-point Energies=           -100.928336
 Sum of electronic and thermal Energies=              -100.925849
 Sum of electronic and thermal Enthalpies=            -100.924905
 Sum of electronic and thermal Free Energies=         -100.947497

                     E (Thermal)             CV                S
                      KCal/Mol        Cal/Mol-Kelvin    Cal/Mol-Kelvin
 Total                    7.591              6.088             47.549
 Electronic               0.000              0.000              1.377
 Translational            0.889              2.981             35.068
 Rotational               0.592              1.987             10.774
 Vibrational              6.110              1.120              0.330

 Normal termination of Gaussian 16 at Fri Aug 22 16:21:49 2025.
