 Gaussian 16, Revision C.01,
 Gaussian 16:  ES64L-G16RevC.01  3-Jul-2019

 -----------------------------------------
 # sp b3lyp/6-311g** Force nosymm scf=(qc)
 -----------------------------------------

 -------------------
 Title Card Required
 -------------------
 Symbolic Z-matrix:
 Charge =  0 Multiplicity = 2

                          Input orientation:
 ---------------------------------------------------------------------
 Center     Atomic      Atomic             Coordinates (Angstroms)
 Number     Number       Type             X           Y           Z
 ---------------------------------------------------------------------
      1          1           0        0.000000    0.000000    0.000000
      2          1           0       -3.450000    0.000000    0.000000
      3          9           0        3.150000    0.000000    0.000000
 ---------------------------------------------------------------------

 SCF Done:  E(UB3LYP) =  -100.760271845     a.u. after   22 cycles

 Alpha  occ. eigenvalues --  -24.74577  -1.20601  -0.53697  -0.45087  -0.45087
 Alpha  occ. eigenvalues --   -0.32478
 Alpha virt. eigenvalues --   -0.07781   0.24170   0.36283   0.88854   0.91978
 Alpha virt. eigenvalues --    0.91978   1.03110   1.25029   1.25029   1.25217
 Alpha virt. eigenvalues --    1.44326   1.44326   1.44545   2.14961   2.40585

  Beta  occ. eigenvalues --  -24.71516  -1.11819  -0.42021  -0.42021  -0.33397
  Beta virt. eigenvalues --   -0.25051  -0.06622   0.24015   0.37815   0.93451
  Beta virt. eigenvalues --    0.93451   0.97719   1.06952   1.23967   1.23967
  Beta virt. eigenvalues --    1.24223   1.45739   1.45992   1.45992   2.15277

 Mulliken charges and spin densities:
               1          2
     1  H    0.026766  -0.967857
     2  H    0.000399   0.997648
     3  F   -0.027165   0.970210
 Sum of Mulliken charges =  -0.00000   1.00000

 Dipole moment (field-independent basis, Debye):
    X=             -0.4463    Y=             -0.0000    Z=             -0.0000  Tot=              0.4463
 Quadrupole moment (field-independent basis, Debye-Ang):
   XX=             -7.9987   YY=             -7.6158   ZZ=             -7.6158
   XY=             -0.0000   XZ=             -0.0000   YZ=             -0.0000

  Exact polarizability:      30.742      -0.000       2.028      -0.000      -0.000       2.028
 Approx polarizability:      28.803      -0.000       1.928      -0.000       0.000       1.928

 ******    2 imaginary frequencies (negative Signs) ******

                      1                      2                      3
                      A                      A                      A
 Frequencies --   -330.7678              -120.7630               114.5808
 Red. masses --      1.0400                 1.0720                 1.0191
 Frc consts  --      0.0670                 0.0092                 0.0079
 IR Inten    --     28.7322                 1.1182                 0.6597

                      4
                      A
 Frequencies --    114.5808
 Red. masses --      1.0191
 Frc consts  --      0.0079
 IR Inten    --      0.6597

 - Thermochemistry -
 -------------------
 Temperature   298.150 Kelvin.  Pressure   1.00000 Atm.
 Atom     1 has atomic number  1 and mass   1.00783

 Molecular mass:    21.01405 amu.
 Principal axes and moments of inertia in atomic units:
                           1         2         3
     Eigenvalues --     0.00000 176.07553 176.07553
           X            1.00000  -0.00000   0.00000
           Y            0.00000   1.00000   0.00000
           Z            0.00000   0.00000   1.00000
 This molecule is a prolate symmetric top.
 Rotational symmetry number  1.
 Rotational temperature (Kelvin)      0.49191
 Rotational constant (GHZ):          10.249813
    2 imaginary frequencies ignored.
 Zero-point vibrational energy       1370.7 (Joules/Mol)
                                    0.32760 (Kcal/Mol)
 Warning -- explicit consideration of   2 degrees of freedom as
           vibrations may cause significant error
 Vibrational temperatures:    164.86   164.86
          (Kelvin)

 Zero-point correction=                           0.000522 (Hartree/Particle)
 Thermal correction to Energy=                    0.004297
 Thermal correction to Enthalpy=                  0.005241
 Thermal correction to Gibbs Free Energy=        -0.022100
 Sum of electronic and zero-point Energies=           -100.759750
 Sum of electronic and thermal Energies=              -100.755975
 Sum of electronic and thermal Enthalpies=            -100.755031
 Sum of electronic and thermal Free Energies=         -100.782372

                     E (Thermal)             CV                S
                      KCal/Mol        Cal/Mol-Kelvin    Cal/Mol-Kelvin
 Total                    2.696              8.843             57.544
 Electronic               0.000              0.000              1.377
 Translational            0.889              2.981             35.068
 Rotational               0.592              1.987             14.719
 Vibrational              1.215              3.875              6.380
 Vibration     1          0.608              1.937              3.190
 Vibration     2          0.608              1.937              3.190

 Normal termination of Gaussian 16 at Fri Aug 22 20:11:43 2025.
