 Gaussian 16, Revision C.01,
 Gaussian 16:  ES64L-G16RevC.01  3-Jul-2019

 -----------------------------------------
 # sp b3lyp/6-311g** Force nosymm scf=(qc)
 -----------------------------------------

 -------------------
 Title Card Required
 -------------------
 Symbolic Z-matrix:
 Charge =  0 Multiplicity = 2

                          Input orientation:
 ---------------------------------------------------------------------
 Center     Atomic      Atomic             Coordinates (Angstroms)
 Number     Number       Type             X           Y           Z
 ---------------------------------------------------------------------
      1          1           0        0.000000    0.000000    0.000000
      2          1           0       -1.050000    0.000000    0.000000
      3          9           0        0.650000    0.000000    0.000000
 ---------------------------------------------------------------------

 SCF Done:  E(UB3LYP) =  -100.764334874     a.u. after    6 cycles

 Alpha  occ. eigenvalues --  -24.64449  -1.33894  -0.63864  -0.43859  -0.43859
 Alpha  occ. eigenvalues --   -0.34405
 Alpha virt. eigenvalues --    0.16126   0.19895   0.70725   0.89221   0.89221
 Alpha virt. eigenvalues --    0.92046   1.09984   1.09984   1.48015   1.67837
 Alpha virt. eigenvalues --    1.67837   1.76975   2.04836   2.38775   3.76992

  Beta  occ. eigenvalues --  -24.64089  -1.32780  -0.61834  -0.43570  -0.43570
  Beta virt. eigenvalues --   -0.12800   0.16923   0.26473   0.76228   0.90405
  Beta virt. eigenvalues --    0.90405   0.92954   1.18295   1.18295   1.48897
  Beta virt. eigenvalues --    1.73632   1.73632   1.83989   2.12644   2.55021

 Mulliken charges and spin densities:
               1          2
     1  H    0.253638  -0.000662
     2  H   -0.018612   0.951818
     3  F   -0.235026   0.048844
 Sum of Mulliken charges =   0.00000   1.00000

 Dipole moment (field-independent basis, Debye):
    X=             -1.2191    Y=             -0.0000    Z=             -0.0000  Tot=              1.2191
 Quadrupole moment (field-independent basis, Debye-Ang):
   XX=             -7.2724   YY=             -6.4608   ZZ=             -6.4608
   XY=             -0.0000   XZ=             -0.0000   YZ=             -0.0000

  Exact polarizability:       7.408      -0.000       2.543      -0.000       0.000       2.543
 Approx polarizability:       7.210      -0.000       2.595      -0.000       0.000       2.595

 ******    2 imaginary frequencies (negative Signs) ******

                      1                      2                      3
                      A                      A                      A
 Frequencies --  -4521.7277             -4521.7277              1915.3855
 Red. masses --      1.0247                 1.0247                 1.0547
 Frc consts  --     12.3435                12.3435                 2.2797
 IR Inten    --    137.6352               137.6352                67.5534

                      4
                      A
 Frequencies --  10844.9841
 Red. masses --      1.0569
 Frc consts  --     73.2381
 IR Inten    --     74.3198

 - Thermochemistry -
 -------------------
 Temperature   298.150 Kelvin.  Pressure   1.00000 Atm.
 Atom     1 has atomic number  1 and mass   1.00783

 Molecular mass:    21.01405 amu.
 Principal axes and moments of inertia in atomic units:
                           1         2         3
     Eigenvalues --     0.00000  10.96849  10.96849
           X            1.00000  -0.00000   0.00000
           Y            0.00000   1.00000   0.00000
           Z            0.00000   0.00000   1.00000
 This molecule is a prolate symmetric top.
 Rotational symmetry number  1.
 Rotational temperature (Kelvin)      7.89661
 Rotational constant (GHZ):         164.538649
    2 imaginary frequencies ignored.
 Zero-point vibrational energy      76324.0 (Joules/Mol)
                                   18.24186 (Kcal/Mol)
 Vibrational temperatures:   2755.81 15603.51
          (Kelvin)

 Zero-point correction=                           0.029070 (Hartree/Particle)
 Thermal correction to Energy=                    0.031432
 Thermal correction to Enthalpy=                  0.032376
 Thermal correction to Gibbs Free Energy=         0.010686
 Sum of electronic and zero-point Energies=           -100.735265
 Sum of electronic and thermal Energies=              -100.732903
 Sum of electronic and thermal Enthalpies=            -100.731959
 Sum of electronic and thermal Free Energies=         -100.753649

                     E (Thermal)             CV                S
                      KCal/Mol        Cal/Mol-Kelvin    Cal/Mol-Kelvin
 Total                   19.724              4.984             45.650
 Electronic               0.000              0.000              1.377
 Translational            0.889              2.981             35.068
 Rotational               0.592              1.987              9.203
 Vibrational             18.242              0.016              0.002

 Normal termination of Gaussian 16 at Fri Aug 22 15:43:24 2025.
