 Gaussian 16, Revision C.01,
 Gaussian 16:  ES64L-G16RevC.01  3-Jul-2019

 -----------------------------------------
 # sp b3lyp/6-311g** Force nosymm scf=(qc)
 -----------------------------------------

 -------------------
 Title Card Required
 -------------------
 Symbolic Z-matrix:
 Charge =  0 Multiplicity = 2

                          Input orientation:
 ---------------------------------------------------------------------
 Center     Atomic      Atomic             Coordinates (Angstroms)
 Number     Number       Type             X           Y           Z
 ---------------------------------------------------------------------
      1          1           0        0.000000    0.000000    0.000000
      2          1           0       -0.650000    0.000000    0.000000
      3          9           0        1.250000    0.000000    0.000000
 ---------------------------------------------------------------------

 SCF Done:  E(UB3LYP) =  -100.923006205     a.u. after    6 cycles

 Alpha  occ. eigenvalues --  -24.69243  -1.18089  -0.60803  -0.41890  -0.41890
 Alpha  occ. eigenvalues --   -0.39989
 Alpha virt. eigenvalues --    0.11932   0.19067   0.52000   0.87572   0.87572
 Alpha virt. eigenvalues --    0.96025   1.10846   1.10846   1.47270   1.61922
 Alpha virt. eigenvalues --    1.85507   1.85507   1.90767   2.41686   3.59335

  Beta  occ. eigenvalues --  -24.66897  -1.11926  -0.52449  -0.39677  -0.39677
  Beta virt. eigenvalues --   -0.20907   0.13346   0.19922   0.55724   0.88979
  Beta virt. eigenvalues --    0.88979   1.01070   1.13940   1.13940   1.50610
  Beta virt. eigenvalues --    1.66489   1.87805   1.87805   1.91773   2.46630

 Mulliken charges and spin densities:
               1          2
     1  H    0.223542  -0.024290
     2  H   -0.020278   0.355234
     3  F   -0.203264   0.669056
 Sum of Mulliken charges =   0.00000   1.00000

 Dipole moment (field-independent basis, Debye):
    X=             -1.3219    Y=              0.0000    Z=             -0.0000  Tot=              1.3219
 Quadrupole moment (field-independent basis, Debye-Ang):
   XX=             -7.1114   YY=             -6.5717   ZZ=             -6.5717
   XY=              0.0000   XZ=             -0.0000   YZ=             -0.0000

  Exact polarizability:      15.692       0.000       2.403       0.000       0.000       2.403
 Approx polarizability:      19.707       0.000       2.451       0.000       0.000       2.451

 ******    2 imaginary frequencies (negative Signs) ******

                      1                      2                      3
                      A                      A                      A
 Frequencies --  -2388.5575             -2388.5575               835.9790
 Red. masses --      1.0120                 1.0120                 1.1081
 Frc consts  --      3.4016                 3.4016                 0.4563
 IR Inten    --      4.5662                 4.5662                44.0990

                      4
                      A
 Frequencies --   5535.4766
 Red. masses --      1.0082
 Frc consts  --     18.2008
 IR Inten    --    502.0452

 - Thermochemistry -
 -------------------
 Temperature   298.150 Kelvin.  Pressure   1.00000 Atm.
 Atom     1 has atomic number  1 and mass   1.00783

 Molecular mass:    21.01405 amu.
 Principal axes and moments of inertia in atomic units:
                           1         2         3
     Eigenvalues --     0.00000  16.90318  16.90318
           X            1.00000  -0.00000   0.00000
           Y            0.00000   1.00000   0.00000
           Z            0.00000   0.00000   1.00000
 This molecule is a prolate symmetric top.
 Rotational symmetry number  1.
 Rotational temperature (Kelvin)      5.12412
 Rotational constant (GHZ):         106.769333
    2 imaginary frequencies ignored.
 Zero-point vibrational energy      38109.8 (Joules/Mol)
                                    9.10845 (Kcal/Mol)
 Vibrational temperatures:   1202.79  7964.32
          (Kelvin)

 Zero-point correction=                           0.014515 (Hartree/Particle)
 Thermal correction to Energy=                    0.016944
 Thermal correction to Enthalpy=                  0.017889
 Thermal correction to Gibbs Free Energy=        -0.004294
 Sum of electronic and zero-point Energies=           -100.908491
 Sum of electronic and thermal Energies=              -100.906062
 Sum of electronic and thermal Enthalpies=            -100.905118
 Sum of electronic and thermal Free Energies=         -100.927301

                     E (Thermal)             CV                S
                      KCal/Mol        Cal/Mol-Kelvin    Cal/Mol-Kelvin
 Total                   10.633              5.561             46.688
 Electronic               0.000              0.000              1.377
 Translational            0.889              2.981             35.068
 Rotational               0.592              1.987             10.062
 Vibrational              9.152              0.593              0.180

 Normal termination of Gaussian 16 at Fri Aug 22 16:11:36 2025.
