 Gaussian 16, Revision C.01,
 Gaussian 16:  ES64L-G16RevC.01  3-Jul-2019

 -----------------------------------------
 # sp b3lyp/6-311g** Force nosymm scf=(qc)
 -----------------------------------------

 -------------------
 Title Card Required
 -------------------
 Symbolic Z-matrix:
 Charge =  0 Multiplicity = 2

                          Input orientation:
 ---------------------------------------------------------------------
 Center     Atomic      Atomic             Coordinates (Angstroms)
 Number     Number       Type             X           Y           Z
 ---------------------------------------------------------------------
      1          1           0        0.000000    0.000000    0.000000
      2          1           0       -3.650000    0.000000    0.000000
      3          9           0        1.850000    0.000000    0.000000
 ---------------------------------------------------------------------

 SCF Done:  E(UB3LYP) =  -100.799083892     a.u. after   17 cycles

 Alpha  occ. eigenvalues --  -24.64932  -1.07557  -0.38979  -0.36679  -0.36679
 Alpha  occ. eigenvalues --   -0.33475
 Alpha virt. eigenvalues --   -0.19632   0.19649   0.27165   0.92092   0.95017
 Alpha virt. eigenvalues --    0.95017   1.07981   1.23126   1.23126   1.24011
 Alpha virt. eigenvalues --    1.24011   1.24020   1.62047   2.10898   2.15171

  Beta  occ. eigenvalues --  -24.66976  -1.13212  -0.45816  -0.38680  -0.38680
  Beta virt. eigenvalues --   -0.14950  -0.05122   0.27136   0.39420   0.91456
  Beta virt. eigenvalues --    0.94856   0.94856   1.05729   1.34075   1.34075
  Beta virt. eigenvalues --    1.46993   1.46993   1.47179   1.67616   2.26465

 Mulliken charges and spin densities:
               1          2
     1  H    0.240046   0.643882
     2  H    0.001058   0.998976
     3  F   -0.241103  -0.642858
 Sum of Mulliken charges =   0.00000   1.00000

 Dipole moment (field-independent basis, Debye):
    X=             -2.2020    Y=             -0.0000    Z=             -0.0000  Tot=              2.2020
 Quadrupole moment (field-independent basis, Debye-Ang):
   XX=            -10.2212   YY=             -7.4451   ZZ=             -7.4451
   XY=             -0.0000   XZ=             -0.0000   YZ=              0.0000

  Exact polarizability:      23.653      -0.000       2.087       0.000       0.000       2.087
 Approx polarizability:      36.599       0.000       1.975      -0.000      -0.000       1.975

 ******    1 imaginary frequencies (negative Signs) ******

                      1                      2                      3
                      A                      A                      A
 Frequencies --  -1403.0972                36.5779               605.9944
 Red. masses --      1.0586                 1.0530                 1.0278
 Frc consts  --      1.2279                 0.0008                 0.2224
 IR Inten    --    129.3951                 0.1645                54.0235

                      4
                      A
 Frequencies --    605.9944
 Red. masses --      1.0278
 Frc consts  --      0.2224
 IR Inten    --     54.0235

 - Thermochemistry -
 -------------------
 Temperature   298.150 Kelvin.  Pressure   1.00000 Atm.
 Atom     1 has atomic number  1 and mass   1.00783

 Molecular mass:    21.01405 amu.
 Principal axes and moments of inertia in atomic units:
                           1         2         3
     Eigenvalues --     0.00000 111.86296 111.86296
           X            1.00000  -0.00000   0.00000
           Y            0.00000   1.00000   0.00000
           Z            0.00000   0.00000   1.00000
 This molecule is a prolate symmetric top.
 Rotational symmetry number  1.
 Rotational temperature (Kelvin)      0.77429
 Rotational constant (GHZ):          16.133502
    1 imaginary frequencies ignored.
 Zero-point vibrational energy       7468.1 (Joules/Mol)
                                    1.78492 (Kcal/Mol)
 Warning -- explicit consideration of   3 degrees of freedom as
           vibrations may cause significant error
 Vibrational temperatures:     52.63   871.89   871.89
          (Kelvin)

 Zero-point correction=                           0.002844 (Hartree/Particle)
 Thermal correction to Energy=                    0.006382
 Thermal correction to Enthalpy=                  0.007326
 Thermal correction to Gibbs Free Energy=        -0.019557
 Sum of electronic and zero-point Energies=           -100.796239
 Sum of electronic and thermal Energies=              -100.792702
 Sum of electronic and thermal Enthalpies=            -100.791758
 Sum of electronic and thermal Free Energies=         -100.818640

                     E (Thermal)             CV                S
                      KCal/Mol        Cal/Mol-Kelvin    Cal/Mol-Kelvin
 Total                    4.005              8.988             56.579
 Electronic               0.000              0.000              1.377
 Translational            0.889              2.981             35.068
 Rotational               0.592              1.987             13.818
 Vibrational              2.523              4.020              6.315
 Vibration     1          0.594              1.982              5.436
 Vibration     2          0.965              1.019              0.439
 Vibration     3          0.965              1.019              0.439

 Normal termination of Gaussian 16 at Fri Aug 22 16:48:22 2025.
