 Gaussian 16, Revision C.01,
 Gaussian 16:  ES64L-G16RevC.01  3-Jul-2019

 -----------------------------------------
 # sp b3lyp/6-311g** Force nosymm scf=(qc)
 -----------------------------------------

 -------------------
 Title Card Required
 -------------------
 Symbolic Z-matrix:
 Charge =  0 Multiplicity = 2

                          Input orientation:
 ---------------------------------------------------------------------
 Center     Atomic      Atomic             Coordinates (Angstroms)
 Number     Number       Type             X           Y           Z
 ---------------------------------------------------------------------
      1          1           0        0.000000    0.000000    0.000000
      2          1           0       -2.050000    0.000000    0.000000
      3          9           0        1.100000    0.000000    0.000000
 ---------------------------------------------------------------------

 SCF Done:  E(UB3LYP) =  -100.949827846     a.u. after    6 cycles

 Alpha  occ. eigenvalues --  -24.63839  -1.13547  -0.49636  -0.37730  -0.37730
 Alpha  occ. eigenvalues --   -0.36246
 Alpha virt. eigenvalues --    0.00213   0.24130   0.30754   0.93916   0.93916
 Alpha virt. eigenvalues --    0.99617   1.14404   1.21104   1.21104   1.35753
 Alpha virt. eigenvalues --    1.35753   1.46376   1.78058   2.14482   2.33764

  Beta  occ. eigenvalues --  -24.63741  -1.13302  -0.49112  -0.37642  -0.37642
  Beta virt. eigenvalues --   -0.13177   0.02901   0.30578   0.34639   0.93922
  Beta virt. eigenvalues --    0.93922   1.00001   1.23492   1.35068   1.35068
  Beta virt. eigenvalues --    1.41145   1.41145   1.55524   1.79146   2.30963

 Mulliken charges and spin densities:
               1          2
     1  H    0.325146   0.000457
     2  H    0.019744   0.971214
     3  F   -0.344890   0.028330
 Sum of Mulliken charges =  -0.00000   1.00000

 Dipole moment (field-independent basis, Debye):
    X=             -2.3832    Y=             -0.0000    Z=              0.0000  Tot=              2.3832
 Quadrupole moment (field-independent basis, Debye-Ang):
   XX=             -8.0403   YY=             -7.0135   ZZ=             -7.0135
   XY=             -0.0000   XZ=              0.0000   YZ=             -0.0000

  Exact polarizability:      12.673       0.000       2.418      -0.000       0.000       2.418
 Approx polarizability:      14.738      -0.000       2.391      -0.000       0.000       2.391

 ******    1 imaginary frequencies (negative Signs) ******

                      1                      2                      3
                      A                      A                      A
 Frequencies --   -196.6379              1140.5317              1140.5317
 Red. masses --      1.0485                 1.0269                 1.0269
 Frc consts  --      0.0239                 0.7870                 0.7870
 IR Inten    --      7.4555               124.2450               124.2450

                      4
                      A
 Frequencies --   1846.3084
 Red. masses --      1.0631
 Frc consts  --      2.1352
 IR Inten    --    186.7322

 - Thermochemistry -
 -------------------
 Temperature   298.150 Kelvin.  Pressure   1.00000 Atm.
 Atom     1 has atomic number  1 and mass   1.00783

 Molecular mass:    21.01405 amu.
 Principal axes and moments of inertia in atomic units:
                           1         2         3
     Eigenvalues --     0.00000  36.94825  36.94825
           X            1.00000  -0.00000   0.00000
           Y            0.00000   1.00000   0.00000
           Z            0.00000   0.00000   1.00000
 This molecule is a prolate symmetric top.
 Rotational symmetry number  1.
 Rotational temperature (Kelvin)      2.34420
 Rotational constant (GHZ):          48.845106
    1 imaginary frequencies ignored.
 Zero-point vibrational energy      24687.2 (Joules/Mol)
                                    5.90037 (Kcal/Mol)
 Vibrational temperatures:   1640.97  1640.97  2656.43
          (Kelvin)

 Zero-point correction=                           0.009403 (Hartree/Particle)
 Thermal correction to Energy=                    0.011807
 Thermal correction to Enthalpy=                  0.012751
 Thermal correction to Gibbs Free Energy=        -0.010136
 Sum of electronic and zero-point Energies=           -100.940425
 Sum of electronic and thermal Energies=              -100.938021
 Sum of electronic and thermal Enthalpies=            -100.937077
 Sum of electronic and thermal Free Energies=         -100.959964

                     E (Thermal)             CV                S
                      KCal/Mol        Cal/Mol-Kelvin    Cal/Mol-Kelvin
 Total                    7.409              5.483             48.170
 Electronic               0.000              0.000              1.377
 Translational            0.889              2.981             35.068
 Rotational               0.592              1.987             11.617
 Vibrational              5.928              0.515              0.108

 Normal termination of Gaussian 16 at Fri Aug 22 16:05:22 2025.
