 Gaussian 16, Revision C.01,
 Gaussian 16:  ES64L-G16RevC.01  3-Jul-2019

 -----------------------------------------
 # sp b3lyp/6-311g** Force nosymm scf=(qc)
 -----------------------------------------

 -------------------
 Title Card Required
 -------------------
 Symbolic Z-matrix:
 Charge =  0 Multiplicity = 2

                          Input orientation:
 ---------------------------------------------------------------------
 Center     Atomic      Atomic             Coordinates (Angstroms)
 Number     Number       Type             X           Y           Z
 ---------------------------------------------------------------------
      1          1           0        0.000000    0.000000    0.000000
      2          1           0       -4.000000    0.000000    0.000000
      3          9           0        1.350000    0.000000    0.000000
 ---------------------------------------------------------------------

 SCF Done:  E(UB3LYP) =  -100.889114661     a.u. after    6 cycles

 Alpha  occ. eigenvalues --  -24.64390  -1.10673  -0.45297  -0.36893  -0.36893
 Alpha  occ. eigenvalues --   -0.33534
 Alpha virt. eigenvalues --   -0.10491   0.21241   0.27426   0.93006   0.93006
 Alpha virt. eigenvalues --    1.02641   1.18332   1.23933   1.23972   1.23972
 Alpha virt. eigenvalues --    1.33224   1.33224   1.70557   2.13113   2.22870

  Beta  occ. eigenvalues --  -24.64387  -1.10666  -0.45290  -0.36890  -0.36890
  Beta virt. eigenvalues --   -0.10664  -0.05762   0.24291   0.38462   0.93005
  Beta virt. eigenvalues --    0.93005   1.02648   1.18342   1.33215   1.33215
  Beta virt. eigenvalues --    1.47021   1.47251   1.47251   1.70574   2.21999

 Mulliken charges and spin densities:
               1          2
     1  H    0.358551  -0.000436
     2  H    0.000456   0.999518
     3  F   -0.359007   0.000918
 Sum of Mulliken charges =  -0.00000   1.00000

 Dipole moment (field-independent basis, Debye):
    X=             -2.4475    Y=              0.0000    Z=              0.0000  Tot=              2.4475
 Quadrupole moment (field-independent basis, Debye-Ang):
   XX=             -9.4401   YY=             -7.2322   ZZ=             -7.2322
   XY=              0.0000   XZ=              0.0000   YZ=             -0.0000

  Exact polarizability:      11.654      -0.000       2.255      -0.000      -0.000       2.255
 Approx polarizability:      19.290       0.000       2.193      -0.000       0.000       2.193

 ******    2 imaginary frequencies (negative Signs) ******

                      1                      2                      3
                      A                      A                      A
 Frequencies --   -869.9272               -34.9065              1135.4074
 Red. masses --      1.0581                 1.0535                 1.0344
 Frc consts  --      0.4718                 0.0008                 0.7857
 IR Inten    --     49.1123                 0.0178               133.9234

                      4
                      A
 Frequencies --   1135.4074
 Red. masses --      1.0344
 Frc consts  --      0.7857
 IR Inten    --    133.9234

 - Thermochemistry -
 -------------------
 Temperature   298.150 Kelvin.  Pressure   1.00000 Atm.
 Atom     1 has atomic number  1 and mass   1.00783

 Molecular mass:    21.01405 amu.
 Principal axes and moments of inertia in atomic units:
                           1         2         3
     Eigenvalues --     0.00000 101.82349 101.82349
           X            1.00000  -0.00000   0.00000
           Y            0.00000   1.00000   0.00000
           Z            0.00000   0.00000   1.00000
 This molecule is a prolate symmetric top.
 Rotational symmetry number  1.
 Rotational temperature (Kelvin)      0.85063
 Rotational constant (GHZ):          17.724213
    2 imaginary frequencies ignored.
 Zero-point vibrational energy      13582.5 (Joules/Mol)
                                    3.24629 (Kcal/Mol)
 Vibrational temperatures:   1633.60  1633.60
          (Kelvin)

 Zero-point correction=                           0.005173 (Hartree/Particle)
 Thermal correction to Energy=                    0.007577
 Thermal correction to Enthalpy=                  0.008521
 Thermal correction to Gibbs Free Energy=        -0.015323
 Sum of electronic and zero-point Energies=           -100.883941
 Sum of electronic and thermal Energies=              -100.881538
 Sum of electronic and thermal Enthalpies=            -100.880593
 Sum of electronic and thermal Free Energies=         -100.904438

                     E (Thermal)             CV                S
                      KCal/Mol        Cal/Mol-Kelvin    Cal/Mol-Kelvin
 Total                    4.755              5.470             50.184
 Electronic               0.000              0.000              1.377
 Translational            0.889              2.981             35.068
 Rotational               0.592              1.987             13.631
 Vibrational              3.273              0.502              0.108

 Normal termination of Gaussian 16 at Fri Aug 22 16:18:56 2025.
