 Gaussian 16, Revision C.01,
 Gaussian 16:  ES64L-G16RevC.01  3-Jul-2019

 -----------------------------------------
 # sp b3lyp/6-311g** Force nosymm scf=(qc)
 -----------------------------------------

 -------------------
 Title Card Required
 -------------------
 Symbolic Z-matrix:
 Charge =  0 Multiplicity = 2

                          Input orientation:
 ---------------------------------------------------------------------
 Center     Atomic      Atomic             Coordinates (Angstroms)
 Number     Number       Type             X           Y           Z
 ---------------------------------------------------------------------
      1          1           0        0.000000    0.000000    0.000000
      2          1           0       -3.800000    0.000000    0.000000
      3          9           0        2.400000    0.000000    0.000000
 ---------------------------------------------------------------------

 SCF Done:  E(UB3LYP) =  -100.769404793     a.u. after   19 cycles

 Alpha  occ. eigenvalues --  -24.68306  -1.09447  -0.39398  -0.39398  -0.35797
 Alpha  occ. eigenvalues --   -0.32810
 Alpha virt. eigenvalues --   -0.22905   0.21044   0.27693   0.94400   0.95253
 Alpha virt. eigenvalues --    0.95253   1.08358   1.21814   1.21814   1.24654
 Alpha virt. eigenvalues --    1.24654   1.24659   1.33066   2.10470   2.16203

  Beta  occ. eigenvalues --  -24.71086  -1.17340  -0.50178  -0.42165  -0.42165
  Beta virt. eigenvalues --   -0.11131  -0.04354   0.32391   0.40348   0.89210
  Beta virt. eigenvalues --    0.93948   0.93948   1.06251   1.39562   1.39562
  Beta virt. eigenvalues --    1.46114   1.48331   1.48331   1.48442   2.35007

 Mulliken charges and spin densities:
               1          2
     1  H    0.106587   0.877874
     2  H    0.000420   0.999587
     3  F   -0.107007  -0.877462
 Sum of Mulliken charges =   0.00000   1.00000

 Dipole moment (field-independent basis, Debye):
    X=             -1.3081    Y=              0.0000    Z=              0.0000  Tot=              1.3081
 Quadrupole moment (field-independent basis, Debye-Ang):
   XX=             -9.5617   YY=             -7.5482   ZZ=             -7.5482
   XY=              0.0000   XZ=              0.0000   YZ=             -0.0000

  Exact polarizability:      29.583       0.000       2.030       0.000      -0.000       2.030
 Approx polarizability:      39.235       0.000       1.922       0.000       0.000       1.922

 ******    1 imaginary frequencies (negative Signs) ******

                      1                      2                      3
                      A                      A                      A
 Frequencies --   -673.3336                58.8427               271.4080
 Red. masses --      1.0593                 1.0523                 1.0243
 Frc consts  --      0.2830                 0.0021                 0.0445
 IR Inten    --     86.5109                 0.0232                11.0207

                      4
                      A
 Frequencies --    271.4080
 Red. masses --      1.0243
 Frc consts  --      0.0445
 IR Inten    --     11.0207

 - Thermochemistry -
 -------------------
 Temperature   298.150 Kelvin.  Pressure   1.00000 Atm.
 Atom     1 has atomic number  1 and mass   1.00783

 Molecular mass:    21.01405 amu.
 Principal axes and moments of inertia in atomic units:
                           1         2         3
     Eigenvalues --     0.00000 146.31017 146.31017
           X            1.00000  -0.00000   0.00000
           Y            0.00000   1.00000   0.00000
           Z            0.00000   0.00000   1.00000
 This molecule is a prolate symmetric top.
 Rotational symmetry number  1.
 Rotational temperature (Kelvin)      0.59199
 Rotational constant (GHZ):          12.335036
    1 imaginary frequencies ignored.
 Zero-point vibrational energy       3598.7 (Joules/Mol)
                                    0.86011 (Kcal/Mol)
 Warning -- explicit consideration of   3 degrees of freedom as
           vibrations may cause significant error
 Vibrational temperatures:     84.66   390.50   390.50
          (Kelvin)

 Zero-point correction=                           0.001371 (Hartree/Particle)
 Thermal correction to Energy=                    0.005462
 Thermal correction to Enthalpy=                  0.006406
 Thermal correction to Gibbs Free Energy=        -0.021373
 Sum of electronic and zero-point Energies=           -100.768034
 Sum of electronic and thermal Energies=              -100.763943
 Sum of electronic and thermal Enthalpies=            -100.762999
 Sum of electronic and thermal Free Energies=         -100.790778

                     E (Thermal)             CV                S
                      KCal/Mol        Cal/Mol-Kelvin    Cal/Mol-Kelvin
 Total                    3.427             10.394             58.467
 Electronic               0.000              0.000              1.377
 Translational            0.889              2.981             35.068
 Rotational               0.592              1.987             14.351
 Vibrational              1.946              5.426              7.670
 Vibration     1          0.596              1.974              4.496
 Vibration     2          0.675              1.726              1.587
 Vibration     3          0.675              1.726              1.587

 Normal termination of Gaussian 16 at Fri Aug 22 17:33:50 2025.
