 Gaussian 16, Revision C.01,
 Gaussian 16:  ES64L-G16RevC.01  3-Jul-2019

 -----------------------------------------
 # sp b3lyp/6-311g** Force nosymm scf=(qc)
 -----------------------------------------

 -------------------
 Title Card Required
 -------------------
 Symbolic Z-matrix:
 Charge =  0 Multiplicity = 2

                          Input orientation:
 ---------------------------------------------------------------------
 Center     Atomic      Atomic             Coordinates (Angstroms)
 Number     Number       Type             X           Y           Z
 ---------------------------------------------------------------------
      1          1           0        0.000000    0.000000    0.000000
      2          1           0       -3.150000    0.000000    0.000000
      3          9           0        1.350000    0.000000    0.000000
 ---------------------------------------------------------------------

 SCF Done:  E(UB3LYP) =  -100.889309401     a.u. after    7 cycles

 Alpha  occ. eigenvalues --  -24.64329  -1.10633  -0.45270  -0.36841  -0.36841
 Alpha  occ. eigenvalues --   -0.34325
 Alpha virt. eigenvalues --   -0.10323   0.21653   0.28078   0.93061   0.93061
 Alpha virt. eigenvalues --    1.02666   1.18767   1.23196   1.23196   1.23524
 Alpha virt. eigenvalues --    1.33308   1.33308   1.71205   2.13874   2.23070

  Beta  occ. eigenvalues --  -24.64310  -1.10583  -0.45213  -0.36823  -0.36823
  Beta virt. eigenvalues --   -0.11446  -0.06274   0.24977   0.37841   0.93057
  Beta virt. eigenvalues --    0.93057   1.02720   1.18918   1.33247   1.33247
  Beta virt. eigenvalues --    1.45310   1.45766   1.45766   1.71276   2.22979

 Mulliken charges and spin densities:
               1          2
     1  H    0.356125  -0.002275
     2  H    0.003475   0.996158
     3  F   -0.359599   0.006117
 Sum of Mulliken charges =   0.00000   1.00000

 Dipole moment (field-independent basis, Debye):
    X=             -2.4959    Y=             -0.0000    Z=              0.0000  Tot=              2.4959
 Quadrupole moment (field-independent basis, Debye-Ang):
   XX=             -9.2686   YY=             -7.2333   ZZ=             -7.2333
   XY=             -0.0000   XZ=              0.0000   YZ=             -0.0000

  Exact polarizability:      13.295       0.000       2.260      -0.000       0.000       2.260
 Approx polarizability:      20.739      -0.000       2.200       0.000       0.000       2.200

 ******    2 imaginary frequencies (negative Signs) ******

                      1                      2                      3
                      A                      A                      A
 Frequencies --   -887.7283              -102.1325              1121.2762
 Red. masses --      1.0558                 1.0558                 1.0306
 Frc consts  --      0.4902                 0.0065                 0.7634
 IR Inten    --     66.5332                 0.2964               127.6768

                      4
                      A
 Frequencies --   1121.2762
 Red. masses --      1.0306
 Frc consts  --      0.7634
 IR Inten    --    127.6768

 - Thermochemistry -
 -------------------
 Temperature   298.150 Kelvin.  Pressure   1.00000 Atm.
 Atom     1 has atomic number  1 and mass   1.00783

 Molecular mass:    21.01405 amu.
 Principal axes and moments of inertia in atomic units:
                           1         2         3
     Eigenvalues --     0.00000  73.53208  73.53208
           X            1.00000  -0.00000   0.00000
           Y            0.00000   1.00000   0.00000
           Z            0.00000   0.00000   1.00000
 This molecule is a prolate symmetric top.
 Rotational symmetry number  1.
 Rotational temperature (Kelvin)      1.17791
 Rotational constant (GHZ):          24.543591
    2 imaginary frequencies ignored.
 Zero-point vibrational energy      13413.4 (Joules/Mol)
                                    3.20589 (Kcal/Mol)
 Vibrational temperatures:   1613.27  1613.27
          (Kelvin)

 Zero-point correction=                           0.005109 (Hartree/Particle)
 Thermal correction to Energy=                    0.007515
 Thermal correction to Enthalpy=                  0.008459
 Thermal correction to Gibbs Free Energy=        -0.015080
 Sum of electronic and zero-point Energies=           -100.884200
 Sum of electronic and thermal Energies=              -100.881794
 Sum of electronic and thermal Enthalpies=            -100.880850
 Sum of electronic and thermal Free Energies=         -100.904390

                     E (Thermal)             CV                S
                      KCal/Mol        Cal/Mol-Kelvin    Cal/Mol-Kelvin
 Total                    4.716              5.493             49.544
 Electronic               0.000              0.000              1.377
 Translational            0.889              2.981             35.068
 Rotational               0.592              1.987             12.984
 Vibrational              3.235              0.525              0.114

 Normal termination of Gaussian 16 at Fri Aug 22 16:18:23 2025.
