 Gaussian 16, Revision C.01,
 Gaussian 16:  ES64L-G16RevC.01  3-Jul-2019

 -----------------------------------------
 # sp b3lyp/6-311g** Force nosymm scf=(qc)
 -----------------------------------------

 -------------------
 Title Card Required
 -------------------
 Symbolic Z-matrix:
 Charge =  0 Multiplicity = 2

                          Input orientation:
 ---------------------------------------------------------------------
 Center     Atomic      Atomic             Coordinates (Angstroms)
 Number     Number       Type             X           Y           Z
 ---------------------------------------------------------------------
      1          1           0        0.000000    0.000000    0.000000
      2          1           0       -1.700000    0.000000    0.000000
      3          9           0        1.450000    0.000000    0.000000
 ---------------------------------------------------------------------

 SCF Done:  E(UB3LYP) =  -100.876933092     a.u. after   10 cycles

 Alpha  occ. eigenvalues --  -24.63865  -1.10403  -0.45871  -0.37915  -0.36305
 Alpha  occ. eigenvalues --   -0.36305
 Alpha virt. eigenvalues --   -0.08137   0.21783   0.28123   0.93970   0.93970
 Alpha virt. eigenvalues --    0.97826   1.03811   1.17744   1.17744   1.36397
 Alpha virt. eigenvalues --    1.36397   1.44560   1.75811   2.13931   2.34943

  Beta  occ. eigenvalues --  -24.62956  -1.08003  -0.42164  -0.35444  -0.35444
  Beta virt. eigenvalues --   -0.19937  -0.04432   0.25493   0.30500   0.93883
  Beta virt. eigenvalues --    0.93883   1.02990   1.06033   1.27420   1.27420
  Beta virt. eigenvalues --    1.38645   1.38645   1.51431   1.78756   2.19692

 Mulliken charges and spin densities:
               1          2
     1  H    0.286051  -0.156104
     2  H    0.062684   0.874212
     3  F   -0.348735   0.281892
 Sum of Mulliken charges =   0.00000   1.00000

 Dipole moment (field-independent basis, Debye):
    X=             -3.0218    Y=              0.0000    Z=              0.0000  Tot=              3.0218
 Quadrupole moment (field-independent basis, Debye-Ang):
   XX=             -8.4366   YY=             -7.2268   ZZ=             -7.2268
   XY=             -0.0000   XZ=             -0.0000   YZ=              0.0000

  Exact polarizability:      30.112      -0.000       2.287      -0.000      -0.000       2.287
 Approx polarizability:      41.693      -0.000       2.228      -0.000      -0.000       2.228

 ******    2 imaginary frequencies (negative Signs) ******

                      1                      2                      3
                      A                      A                      A
 Frequencies --  -2213.7436              -400.4407              1033.7989
 Red. masses --      1.0274                 1.0858                 1.0200
 Frc consts  --      2.9664                 0.1026                 0.6423
 IR Inten    --      0.7488                 3.3060                51.2502

                      4
                      A
 Frequencies --   1033.7989
 Red. masses --      1.0200
 Frc consts  --      0.6423
 IR Inten    --     51.2502

 - Thermochemistry -
 -------------------
 Temperature   298.150 Kelvin.  Pressure   1.00000 Atm.
 Atom     1 has atomic number  1 and mass   1.00783

 Molecular mass:    21.01405 amu.
 Principal axes and moments of inertia in atomic units:
                           1         2         3
     Eigenvalues --     0.00000  39.62572  39.62572
           X            1.00000  -0.00000   0.00000
           Y            0.00000   1.00000   0.00000
           Z            0.00000   0.00000   1.00000
 This molecule is a prolate symmetric top.
 Rotational symmetry number  1.
 Rotational temperature (Kelvin)      2.18580
 Rotational constant (GHZ):          45.544697
    2 imaginary frequencies ignored.
 Zero-point vibrational energy      12367.0 (Joules/Mol)
                                    2.95578 (Kcal/Mol)
 Vibrational temperatures:   1487.41  1487.41
          (Kelvin)

 Zero-point correction=                           0.004710 (Hartree/Particle)
 Thermal correction to Energy=                    0.007135
 Thermal correction to Enthalpy=                  0.008080
 Thermal correction to Gibbs Free Energy=        -0.014900
 Sum of electronic and zero-point Energies=           -100.872223
 Sum of electronic and thermal Energies=              -100.869798
 Sum of electronic and thermal Enthalpies=            -100.868853
 Sum of electronic and thermal Free Energies=         -100.891833

                     E (Thermal)             CV                S
                      KCal/Mol        Cal/Mol-Kelvin    Cal/Mol-Kelvin
 Total                    4.478              5.651             48.364
 Electronic               0.000              0.000              1.377
 Translational            0.889              2.981             35.068
 Rotational               0.592              1.987             11.756
 Vibrational              2.996              0.683              0.163

 Normal termination of Gaussian 16 at Fri Aug 22 16:22:33 2025.
