 Gaussian 16, Revision C.01,
 Gaussian 16:  ES64L-G16RevC.01  3-Jul-2019

 -----------------------------------------
 # sp b3lyp/6-311g** Force nosymm scf=(qc)
 -----------------------------------------

 -------------------
 Title Card Required
 -------------------
 Symbolic Z-matrix:
 Charge =  0 Multiplicity = 2

                          Input orientation:
 ---------------------------------------------------------------------
 Center     Atomic      Atomic             Coordinates (Angstroms)
 Number     Number       Type             X           Y           Z
 ---------------------------------------------------------------------
      1          1           0        0.000000    0.000000    0.000000
      2          1           0       -1.150000    0.000000    0.000000
      3          9           0        1.250000    0.000000    0.000000
 ---------------------------------------------------------------------

 SCF Done:  E(UB3LYP) =  -100.934883576     a.u. after    9 cycles

 Alpha  occ. eigenvalues --  -24.65163  -1.13598  -0.52790  -0.38257  -0.38257
 Alpha  occ. eigenvalues --   -0.38190
 Alpha virt. eigenvalues --    0.04569   0.19432   0.32859   0.91090   0.91090
 Alpha virt. eigenvalues --    0.99852   1.09033   1.09033   1.22550   1.54467
 Alpha virt. eigenvalues --    1.54467   1.59006   2.14050   2.31097   2.46249

  Beta  occ. eigenvalues --  -24.63846  -1.10181  -0.46349  -0.37027  -0.37027
  Beta virt. eigenvalues --   -0.21362   0.07537   0.22062   0.36175   0.91913
  Beta virt. eigenvalues --    0.91913   1.02846   1.14662   1.14662   1.27906
  Beta virt. eigenvalues --    1.57811   1.57811   1.62410   2.23919   2.30963

 Mulliken charges and spin densities:
               1          2
     1  H    0.263535  -0.082505
     2  H    0.053856   0.695711
     3  F   -0.317391   0.386794
 Sum of Mulliken charges =   0.00000   1.00000

 Dipole moment (field-independent basis, Debye):
    X=             -2.3834    Y=              0.0000    Z=              0.0000  Tot=              2.3834
 Quadrupole moment (field-independent basis, Debye-Ang):
   XX=             -7.7840   YY=             -6.9284   ZZ=             -6.9284
   XY=              0.0000   XZ=              0.0000   YZ=              0.0000

  Exact polarizability:      23.525       0.000       2.484       0.000      -0.000       2.484
 Approx polarizability:      32.270       0.000       2.470       0.000      -0.000       2.470

 ******    1 imaginary frequencies (negative Signs) ******

                      1                      2                      3
                      A                      A                      A
 Frequencies --  -2470.7349               838.1569              1106.5901
 Red. masses --      1.0239                 1.0897                 1.0170
 Frc consts  --      3.6825                 0.4511                 0.7337
 IR Inten    --    238.7415                46.4989                31.2922

                      4
                      A
 Frequencies --   1106.5901
 Red. masses --      1.0170
 Frc consts  --      0.7337
 IR Inten    --     31.2922

 - Thermochemistry -
 -------------------
 Temperature   298.150 Kelvin.  Pressure   1.00000 Atm.
 Atom     1 has atomic number  1 and mass   1.00783

 Molecular mass:    21.01405 amu.
 Principal axes and moments of inertia in atomic units:
                           1         2         3
     Eigenvalues --     0.00000  24.05418  24.05418
           X            1.00000  -0.00000   0.00000
           Y            0.00000   1.00000   0.00000
           Z            0.00000   0.00000   1.00000
 This molecule is a prolate symmetric top.
 Rotational symmetry number  1.
 Rotational temperature (Kelvin)      3.60078
 Rotational constant (GHZ):          75.028160
    1 imaginary frequencies ignored.
 Zero-point vibrational energy      18251.0 (Joules/Mol)
                                    4.36211 (Kcal/Mol)
 Vibrational temperatures:   1205.92  1592.14  1592.14
          (Kelvin)

 Zero-point correction=                           0.006951 (Hartree/Particle)
 Thermal correction to Energy=                    0.009429
 Thermal correction to Enthalpy=                  0.010373
 Thermal correction to Gibbs Free Energy=        -0.012200
 Sum of electronic and zero-point Energies=           -100.927932
 Sum of electronic and thermal Energies=              -100.925455
 Sum of electronic and thermal Enthalpies=            -100.924511
 Sum of electronic and thermal Free Energies=         -100.947084

                     E (Thermal)             CV                S
                      KCal/Mol        Cal/Mol-Kelvin    Cal/Mol-Kelvin
 Total                    5.917              6.107             47.509
 Electronic               0.000              0.000              1.377
 Translational            0.889              2.981             35.068
 Rotational               0.592              1.987             10.764
 Vibrational              4.435              1.139              0.300

 Normal termination of Gaussian 16 at Fri Aug 22 16:11:58 2025.
