 Gaussian 16, Revision C.01,
 Gaussian 16:  ES64L-G16RevC.01  3-Jul-2019

 -----------------------------------------
 # sp b3lyp/6-311g** Force nosymm scf=(qc)
 -----------------------------------------

 -------------------
 Title Card Required
 -------------------
 Symbolic Z-matrix:
 Charge =  0 Multiplicity = 2

                          Input orientation:
 ---------------------------------------------------------------------
 Center     Atomic      Atomic             Coordinates (Angstroms)
 Number     Number       Type             X           Y           Z
 ---------------------------------------------------------------------
      1          1           0        0.000000    0.000000    0.000000
      2          1           0       -3.150000    0.000000    0.000000
      3          9           0        3.000000    0.000000    0.000000
 ---------------------------------------------------------------------

 SCF Done:  E(UB3LYP) =  -100.761556964     a.u. after   22 cycles

 Alpha  occ. eigenvalues --  -24.74097  -1.20155  -0.53215  -0.44684  -0.44684
 Alpha  occ. eigenvalues --   -0.32652
 Alpha virt. eigenvalues --   -0.08720   0.24432   0.35495   0.89430   0.92269
 Alpha virt. eigenvalues --    0.92269   1.03929   1.24873   1.24873   1.25394
 Alpha virt. eigenvalues --    1.43026   1.43026   1.43386   2.15302   2.39302

  Beta  occ. eigenvalues --  -24.71069  -1.11478  -0.41653  -0.41653  -0.33751
  Beta virt. eigenvalues --   -0.24784  -0.07268   0.24422   0.37157   0.93731
  Beta virt. eigenvalues --    0.93731   0.98136   1.07697   1.23604   1.23604
  Beta virt. eigenvalues --    1.24343   1.45008   1.45189   1.45189   2.15644

 Mulliken charges and spin densities:
               1          2
     1  H    0.035794  -0.954387
     2  H    0.001103   0.995004
     3  F   -0.036897   0.959383
 Sum of Mulliken charges =  -0.00000   1.00000

 Dipole moment (field-independent basis, Debye):
    X=             -0.5851    Y=             -0.0000    Z=             -0.0000  Tot=              0.5851
 Quadrupole moment (field-independent basis, Debye-Ang):
   XX=             -8.2390   YY=             -7.6169   ZZ=             -7.6169
   XY=             -0.0000   XZ=             -0.0000   YZ=             -0.0000

  Exact polarizability:      33.728      -0.000       2.023      -0.000      -0.000       2.023
 Approx polarizability:      33.494      -0.000       1.925      -0.000       0.000       1.925

 ******    2 imaginary frequencies (negative Signs) ******

                      1                      2                      3
                      A                      A                      A
 Frequencies --   -413.9602              -165.5680               150.4340
 Red. masses --      1.0333                 1.0793                 1.0185
 Frc consts  --      0.1043                 0.0174                 0.0136
 IR Inten    --     36.9017                 3.1621                 1.1614

                      4
                      A
 Frequencies --    150.4340
 Red. masses --      1.0185
 Frc consts  --      0.0136
 IR Inten    --      1.1614

 - Thermochemistry -
 -------------------
 Temperature   298.150 Kelvin.  Pressure   1.00000 Atm.
 Atom     1 has atomic number  1 and mass   1.00783

 Molecular mass:    21.01405 amu.
 Principal axes and moments of inertia in atomic units:
                           1         2         3
     Eigenvalues --     0.00000 154.06349 154.06349
           X            1.00000  -0.00000   0.00000
           Y            0.00000   1.00000   0.00000
           Z            0.00000   0.00000   1.00000
 This molecule is a prolate symmetric top.
 Rotational symmetry number  1.
 Rotational temperature (Kelvin)      0.56220
 Rotational constant (GHZ):          11.714269
    2 imaginary frequencies ignored.
 Zero-point vibrational energy       1799.6 (Joules/Mol)
                                    0.43011 (Kcal/Mol)
 Warning -- explicit consideration of   2 degrees of freedom as
           vibrations may cause significant error
 Vibrational temperatures:    216.44   216.44
          (Kelvin)

 Zero-point correction=                           0.000685 (Hartree/Particle)
 Thermal correction to Energy=                    0.004331
 Thermal correction to Enthalpy=                  0.005275
 Thermal correction to Gibbs Free Energy=        -0.021443
 Sum of electronic and zero-point Energies=           -100.760872
 Sum of electronic and thermal Energies=              -100.757226
 Sum of electronic and thermal Enthalpies=            -100.756282
 Sum of electronic and thermal Free Energies=         -100.783000

                     E (Thermal)             CV                S
                      KCal/Mol        Cal/Mol-Kelvin    Cal/Mol-Kelvin
 Total                    2.718              8.772             56.233
 Electronic               0.000              0.000              1.377
 Translational            0.889              2.981             35.068
 Rotational               0.592              1.987             14.454
 Vibrational              1.237              3.804              5.333
 Vibration     1          0.618              1.902              2.667
 Vibration     2          0.618              1.902              2.667

 Normal termination of Gaussian 16 at Fri Aug 22 19:32:47 2025.
