 Gaussian 16, Revision C.01,
 Gaussian 16:  ES64L-G16RevC.01  3-Jul-2019

 -----------------------------------------
 # sp b3lyp/6-311g** Force nosymm scf=(qc)
 -----------------------------------------

 -------------------
 Title Card Required
 -------------------
 Symbolic Z-matrix:
 Charge =  0 Multiplicity = 2

                          Input orientation:
 ---------------------------------------------------------------------
 Center     Atomic      Atomic             Coordinates (Angstroms)
 Number     Number       Type             X           Y           Z
 ---------------------------------------------------------------------
      1          1           0        0.000000    0.000000    0.000000
      2          1           0       -1.800000    0.000000    0.000000
      3          9           0        0.600000    0.000000    0.000000
 ---------------------------------------------------------------------

 SCF Done:  E(UB3LYP) =  -100.685987106     a.u. after    7 cycles

 Alpha  occ. eigenvalues --  -24.62702  -1.34767  -0.61248  -0.42959  -0.42959
 Alpha  occ. eigenvalues --   -0.35392
 Alpha virt. eigenvalues --    0.12182   0.23338   0.54998   0.92087   0.92087
 Alpha virt. eigenvalues --    0.93553   1.21536   1.21536   1.26970   1.50800
 Alpha virt. eigenvalues --    1.50800   1.59779   2.00246   2.18238   3.39369

  Beta  occ. eigenvalues --  -24.62656  -1.34625  -0.61045  -0.42930  -0.42930
  Beta virt. eigenvalues --   -0.10582   0.13510   0.33363   0.57658   0.92101
  Beta virt. eigenvalues --    0.92101   0.93670   1.34859   1.40252   1.40252
  Beta virt. eigenvalues --    1.51855   1.51855   1.68060   2.02607   2.43133

 Mulliken charges and spin densities:
               1          2
     1  H    0.216645   0.013352
     2  H    0.011055   0.982286
     3  F   -0.227701   0.004361
 Sum of Mulliken charges =   0.00000   1.00000

 Dipole moment (field-independent basis, Debye):
    X=             -1.5021    Y=             -0.0000    Z=             -0.0000  Tot=              1.5021
 Quadrupole moment (field-independent basis, Debye-Ang):
   XX=             -6.7538   YY=             -6.5049   ZZ=             -6.5049
   XY=             -0.0000   XZ=              0.0000   YZ=              0.0000

  Exact polarizability:       6.010       0.000       2.493      -0.000      -0.000       2.493
 Approx polarizability:       5.785       0.000       2.492      -0.000      -0.000       2.492

 ******    2 imaginary frequencies (negative Signs) ******

                      1                      2                      3
                      A                      A                      A
 Frequencies --  -5777.7977             -5777.7977               537.8016
 Red. masses --      1.0346                 1.0346                 1.0533
 Frc consts  --     20.3490                20.3490                 0.1795
 IR Inten    --    192.4722               192.4722                 0.2713

                      4
                      A
 Frequencies --  13069.7992
 Red. masses --      1.0582
 Frc consts  --    106.5054
 IR Inten    --    118.6145

 - Thermochemistry -
 -------------------
 Temperature   298.150 Kelvin.  Pressure   1.00000 Atm.
 Atom     1 has atomic number  1 and mass   1.00783

 Molecular mass:    21.01405 amu.
 Principal axes and moments of inertia in atomic units:
                           1         2         3
     Eigenvalues --     0.00000  20.47247  20.47247
           X            1.00000  -0.00000   0.00000
           Y            0.00000   1.00000   0.00000
           Z            0.00000   0.00000   1.00000
 This molecule is a prolate symmetric top.
 Rotational symmetry number  1.
 Rotational temperature (Kelvin)      4.23075
 Rotational constant (GHZ):          88.154541
    2 imaginary frequencies ignored.
 Zero-point vibrational energy      81391.5 (Joules/Mol)
                                   19.45304 (Kcal/Mol)
 Warning -- explicit consideration of   1 degrees of freedom as
           vibrations may cause significant error
 Vibrational temperatures:    773.78 18804.53
          (Kelvin)

 Zero-point correction=                           0.031000 (Hartree/Particle)
 Thermal correction to Energy=                    0.033558
 Thermal correction to Enthalpy=                  0.034503
 Thermal correction to Gibbs Free Energy=         0.011954
 Sum of electronic and zero-point Energies=           -100.654987
 Sum of electronic and thermal Energies=              -100.652429
 Sum of electronic and thermal Enthalpies=            -100.651484
 Sum of electronic and thermal Free Energies=         -100.674034

                     E (Thermal)             CV                S
                      KCal/Mol        Cal/Mol-Kelvin    Cal/Mol-Kelvin
 Total                   21.058              6.134             47.459
 Electronic               0.000              0.000              1.377
 Translational            0.889              2.981             35.068
 Rotational               0.592              1.987             10.443
 Vibrational             19.577              1.166              0.570
 Vibration     1          0.893              1.166              0.570

 Normal termination of Gaussian 16 at Fri Aug 22 15:41:34 2025.
