 Gaussian 16, Revision C.01,
 Gaussian 16:  ES64L-G16RevC.01  3-Jul-2019

 -----------------------------------------
 # sp b3lyp/6-311g** Force nosymm scf=(qc)
 -----------------------------------------

 -------------------
 Title Card Required
 -------------------
 Symbolic Z-matrix:
 Charge =  0 Multiplicity = 2

                          Input orientation:
 ---------------------------------------------------------------------
 Center     Atomic      Atomic             Coordinates (Angstroms)
 Number     Number       Type             X           Y           Z
 ---------------------------------------------------------------------
      1          1           0        0.000000    0.000000    0.000000
      2          1           0       -2.400000    0.000000    0.000000
      3          9           0        3.500000    0.000000    0.000000
 ---------------------------------------------------------------------

 SCF Done:  E(UB3LYP) =  -100.764197529     a.u. after   32 cycles

 Alpha  occ. eigenvalues --  -24.75466  -1.21423  -0.54589  -0.45835  -0.45835
 Alpha  occ. eigenvalues --   -0.32746
 Alpha virt. eigenvalues --   -0.09872   0.25769   0.33975   0.87605   0.91427
 Alpha virt. eigenvalues --    0.91427   1.01771   1.24955   1.24955   1.26215
 Alpha virt. eigenvalues --    1.40633   1.40633   1.43142   2.15360   2.36154

  Beta  occ. eigenvalues --  -24.72349  -1.12466  -0.42710  -0.42710  -0.33007
  Beta virt. eigenvalues --   -0.25543  -0.09419   0.25595   0.34641   0.92917
  Beta virt. eigenvalues --    0.92917   0.96777   1.05815   1.24640   1.24640
  Beta virt. eigenvalues --    1.25847   1.41326   1.41326   1.43817   2.15915

 Mulliken charges and spin densities:
               1          2
     1  H    0.007501  -0.947849
     2  H    0.002880   0.959548
     3  F   -0.010381   0.988301
 Sum of Mulliken charges =   0.00000   1.00000

 Dipole moment (field-independent basis, Debye):
    X=             -0.2194    Y=              0.0000    Z=             -0.0000  Tot=              0.2194
 Quadrupole moment (field-independent basis, Debye-Ang):
   XX=             -7.0372   YY=             -7.6747   ZZ=             -7.6747
   XY=             -0.0000   XZ=              0.0000   YZ=             -0.0000

  Exact polarizability:      35.277      -0.000       2.024       0.000      -0.000       2.024
 Approx polarizability:      26.653      -0.000       1.928       0.000       0.000       1.928

 ******    2 imaginary frequencies (negative Signs) ******

                      1                      2                      3
                      A                      A                      A
 Frequencies --   -770.7170              -139.1559               286.6626
 Red. masses --      1.0080                 1.1084                 1.0140
 Frc consts  --      0.3528                 0.0126                 0.0491
 IR Inten    --      6.1093                 6.4115                 0.0320

                      4
                      A
 Frequencies --    286.6627
 Red. masses --      1.0140
 Frc consts  --      0.0491
 IR Inten    --      0.0320

 - Thermochemistry -
 -------------------
 Temperature   298.150 Kelvin.  Pressure   1.00000 Atm.
 Atom     1 has atomic number  1 and mass   1.00783

 Molecular mass:    21.01405 amu.
 Principal axes and moments of inertia in atomic units:
                           1         2         3
     Eigenvalues --     0.00000 154.11779 154.11779
           X            1.00000  -0.00000   0.00000
           Y            0.00000   1.00000   0.00000
           Z            0.00000   0.00000   1.00000
 This molecule is a prolate symmetric top.
 Rotational symmetry number  1.
 Rotational temperature (Kelvin)      0.56200
 Rotational constant (GHZ):          11.710142
    2 imaginary frequencies ignored.
 Zero-point vibrational energy       3429.2 (Joules/Mol)
                                    0.81961 (Kcal/Mol)
 Warning -- explicit consideration of   2 degrees of freedom as
           vibrations may cause significant error
 Vibrational temperatures:    412.44   412.44
          (Kelvin)

 Zero-point correction=                           0.001306 (Hartree/Particle)
 Thermal correction to Energy=                    0.004541
 Thermal correction to Enthalpy=                  0.005485
 Thermal correction to Gibbs Free Energy=        -0.020119
 Sum of electronic and zero-point Energies=           -100.762891
 Sum of electronic and thermal Energies=              -100.759657
 Sum of electronic and thermal Enthalpies=            -100.758713
 Sum of electronic and thermal Free Energies=         -100.784316

                     E (Thermal)             CV                S
                      KCal/Mol        Cal/Mol-Kelvin    Cal/Mol-Kelvin
 Total                    2.849              8.365             53.887
 Electronic               0.000              0.000              1.377
 Translational            0.889              2.981             35.068
 Rotational               0.592              1.987             14.455
 Vibrational              1.368              3.397              2.987
 Vibration     1          0.684              1.698              1.494
 Vibration     2          0.684              1.698              1.494

 Normal termination of Gaussian 16 at Fri Aug 22 22:09:38 2025.
