 Gaussian 16, Revision C.01,
 Gaussian 16:  ES64L-G16RevC.01  3-Jul-2019

 -----------------------------------------
 # sp b3lyp/6-311g** Force nosymm scf=(qc)
 -----------------------------------------

 -------------------
 Title Card Required
 -------------------
 Symbolic Z-matrix:
 Charge =  0 Multiplicity = 2

                          Input orientation:
 ---------------------------------------------------------------------
 Center     Atomic      Atomic             Coordinates (Angstroms)
 Number     Number       Type             X           Y           Z
 ---------------------------------------------------------------------
      1          1           0        0.000000    0.000000    0.000000
      2          1           0       -1.650000    0.000000    0.000000
      3          9           0        1.600000    0.000000    0.000000
 ---------------------------------------------------------------------

 SCF Done:  E(UB3LYP) =  -100.854637150     a.u. after   14 cycles

 Alpha  occ. eigenvalues --  -24.65181  -1.11609  -0.45902  -0.38403  -0.37274
 Alpha  occ. eigenvalues --   -0.37274
 Alpha virt. eigenvalues --   -0.09886   0.21767   0.28893   0.92336   0.94193
 Alpha virt. eigenvalues --    0.94193   1.03724   1.17508   1.17508   1.36725
 Alpha virt. eigenvalues --    1.36725   1.40171   1.79502   2.15368   2.37030

  Beta  occ. eigenvalues --  -24.63615  -1.07368  -0.40326  -0.35763  -0.35763
  Beta virt. eigenvalues --   -0.21355  -0.06875   0.24949   0.29911   0.94184
  Beta virt. eigenvalues --    0.94184   0.96312   1.06997   1.24328   1.24328
  Beta virt. eigenvalues --    1.37715   1.37715   1.46637   1.81999   2.17876

 Mulliken charges and spin densities:
               1          2
     1  H    0.229639  -0.295984
     2  H    0.069046   0.806993
     3  F   -0.298685   0.488992
 Sum of Mulliken charges =   0.00000   1.00000

 Dipole moment (field-independent basis, Debye):
    X=             -2.8884    Y=              0.0000    Z=              0.0000  Tot=              2.8884
 Quadrupole moment (field-independent basis, Debye-Ang):
   XX=             -8.3882   YY=             -7.3319   ZZ=             -7.3319
   XY=              0.0000   XZ=              0.0000   YZ=              0.0000

  Exact polarizability:      39.458      -0.000       2.224      -0.000       0.000       2.224
 Approx polarizability:      55.749      -0.000       2.153      -0.000      -0.000       2.153

 ******    2 imaginary frequencies (negative Signs) ******

                      1                      2                      3
                      A                      A                      A
 Frequencies --  -2412.2124              -550.1100               976.5122
 Red. masses --      1.0245                 1.0890                 1.0183
 Frc consts  --      3.5123                 0.1942                 0.5721
 IR Inten    --    258.1389                 0.0049                27.6308

                      4
                      A
 Frequencies --    976.5122
 Red. masses --      1.0183
 Frc consts  --      0.5721
 IR Inten    --     27.6308

 - Thermochemistry -
 -------------------
 Temperature   298.150 Kelvin.  Pressure   1.00000 Atm.
 Atom     1 has atomic number  1 and mass   1.00783

 Molecular mass:    21.01405 amu.
 Principal axes and moments of inertia in atomic units:
                           1         2         3
     Eigenvalues --     0.00000  43.16784  43.16784
           X            1.00000  -0.00000   0.00000
           Y            0.00000   1.00000   0.00000
           Z            0.00000   0.00000   1.00000
 This molecule is a prolate symmetric top.
 Rotational symmetry number  1.
 Rotational temperature (Kelvin)      2.00645
 Rotational constant (GHZ):          41.807537
    2 imaginary frequencies ignored.
 Zero-point vibrational energy      11681.7 (Joules/Mol)
                                    2.79199 (Kcal/Mol)
 Vibrational temperatures:   1404.98  1404.98
          (Kelvin)

 Zero-point correction=                           0.004449 (Hartree/Particle)
 Thermal correction to Energy=                    0.006890
 Thermal correction to Enthalpy=                  0.007835
 Thermal correction to Gibbs Free Energy=        -0.015246
 Sum of electronic and zero-point Energies=           -100.850188
 Sum of electronic and thermal Energies=              -100.847747
 Sum of electronic and thermal Enthalpies=            -100.846803
 Sum of electronic and thermal Free Energies=         -100.869883

                     E (Thermal)             CV                S
                      KCal/Mol        Cal/Mol-Kelvin    Cal/Mol-Kelvin
 Total                    4.324              5.775             48.577
 Electronic               0.000              0.000              1.377
 Translational            0.889              2.981             35.068
 Rotational               0.592              1.987             11.926
 Vibrational              2.843              0.807              0.206

 Normal termination of Gaussian 16 at Fri Aug 22 16:30:51 2025.
