 Gaussian 16, Revision C.01,
 Gaussian 16:  ES64L-G16RevC.01  3-Jul-2019

 -----------------------------------------
 # sp b3lyp/6-311g** Force nosymm scf=(qc)
 -----------------------------------------

 -------------------
 Title Card Required
 -------------------
 Symbolic Z-matrix:
 Charge =  0 Multiplicity = 2

                          Input orientation:
 ---------------------------------------------------------------------
 Center     Atomic      Atomic             Coordinates (Angstroms)
 Number     Number       Type             X           Y           Z
 ---------------------------------------------------------------------
      1          1           0        0.000000    0.000000    0.000000
      2          1           0       -3.250000    0.000000    0.000000
      3          9           0        1.800000    0.000000    0.000000
 ---------------------------------------------------------------------

 SCF Done:  E(UB3LYP) =  -100.804921084     a.u. after   20 cycles

 Alpha  occ. eigenvalues --  -24.66579  -1.12762  -0.45375  -0.38328  -0.38328
 Alpha  occ. eigenvalues --   -0.33968
 Alpha virt. eigenvalues --   -0.14899   0.21859   0.30147   0.92896   0.94782
 Alpha virt. eigenvalues --    0.94782   1.05904   1.23559   1.23559   1.23831
 Alpha virt. eigenvalues --    1.33702   1.33702   1.69769   2.13911   2.25923

  Beta  occ. eigenvalues --  -24.64676  -1.07520  -0.39331  -0.36471  -0.36471
  Beta virt. eigenvalues --   -0.19283  -0.07602   0.22344   0.37430   0.93608
  Beta virt. eigenvalues --    0.94794   0.94794   1.07988   1.23782   1.23782
  Beta virt. eigenvalues --    1.44690   1.45151   1.45151   1.64981   2.12535

 Mulliken charges and spin densities:
               1          2
     1  H    0.253495  -0.594174
     2  H    0.003659   0.995300
     3  F   -0.257154   0.598873
 Sum of Mulliken charges =   0.00000   1.00000

 Dipole moment (field-independent basis, Debye):
    X=             -2.3173    Y=             -0.0000    Z=             -0.0000  Tot=              2.3173
 Quadrupole moment (field-independent basis, Debye-Ang):
   XX=            -10.0673   YY=             -7.4427   ZZ=             -7.4427
   XY=              0.0000   XZ=              0.0000   YZ=              0.0000

  Exact polarizability:      24.860       0.000       2.097       0.000       0.000       2.097
 Approx polarizability:      37.252       0.000       1.988       0.000      -0.000       1.988

 ******    2 imaginary frequencies (negative Signs) ******

                      1                      2                      3
                      A                      A                      A
 Frequencies --  -1518.1932              -156.6301               653.6393
 Red. masses --      1.0569                 1.0546                 1.0264
 Frc consts  --      1.4353                 0.0152                 0.2584
 IR Inten    --    126.2744                 0.9051                58.7333

                      4
                      A
 Frequencies --    653.6393
 Red. masses --      1.0264
 Frc consts  --      0.2584
 IR Inten    --     58.7333

 - Thermochemistry -
 -------------------
 Temperature   298.150 Kelvin.  Pressure   1.00000 Atm.
 Atom     1 has atomic number  1 and mass   1.00783

 Molecular mass:    21.01405 amu.
 Principal axes and moments of inertia in atomic units:
                           1         2         3
     Eigenvalues --     0.00000  95.34536  95.34536
           X            1.00000  -0.00000   0.00000
           Y            0.00000   1.00000   0.00000
           Z            0.00000   0.00000   1.00000
 This molecule is a prolate symmetric top.
 Rotational symmetry number  1.
 Rotational temperature (Kelvin)      0.90842
 Rotational constant (GHZ):          18.928465
    2 imaginary frequencies ignored.
 Zero-point vibrational energy       7819.3 (Joules/Mol)
                                    1.86885 (Kcal/Mol)
 Vibrational temperatures:    940.44   940.44
          (Kelvin)

 Zero-point correction=                           0.002978 (Hartree/Particle)
 Thermal correction to Energy=                    0.005604
 Thermal correction to Enthalpy=                  0.006548
 Thermal correction to Gibbs Free Energy=        -0.017530
 Sum of electronic and zero-point Energies=           -100.801943
 Sum of electronic and thermal Energies=              -100.799317
 Sum of electronic and thermal Enthalpies=            -100.798373
 Sum of electronic and thermal Free Energies=         -100.822451

                     E (Thermal)             CV                S
                      KCal/Mol        Cal/Mol-Kelvin    Cal/Mol-Kelvin
 Total                    3.517              6.809             50.678
 Electronic               0.000              0.000              1.377
 Translational            0.889              2.981             35.068
 Rotational               0.592              1.987             13.500
 Vibrational              2.035              1.841              0.732

 Normal termination of Gaussian 16 at Fri Aug 22 16:44:45 2025.
