 Gaussian 16, Revision C.01,
 Gaussian 16:  ES64L-G16RevC.01  3-Jul-2019

 -----------------------------------------
 # sp b3lyp/6-311g** Force nosymm scf=(qc)
 -----------------------------------------

 -------------------
 Title Card Required
 -------------------
 Symbolic Z-matrix:
 Charge =  0 Multiplicity = 2

                          Input orientation:
 ---------------------------------------------------------------------
 Center     Atomic      Atomic             Coordinates (Angstroms)
 Number     Number       Type             X           Y           Z
 ---------------------------------------------------------------------
      1          1           0        0.000000    0.000000    0.000000
      2          1           0       -3.500000    0.000000    0.000000
      3          9           0        0.850000    0.000000    0.000000
 ---------------------------------------------------------------------

 SCF Done:  E(UB3LYP) =  -100.965499931     a.u. after    6 cycles

 Alpha  occ. eigenvalues --  -24.63856  -1.20906  -0.55013  -0.40137  -0.40137
 Alpha  occ. eigenvalues --   -0.33566
 Alpha virt. eigenvalues --    0.04197   0.24569   0.42621   0.94335   0.94335
 Alpha virt. eigenvalues --    0.97387   1.23723   1.23947   1.23947   1.29816
 Alpha virt. eigenvalues --    1.38354   1.38354   2.02969   2.14459   2.42888

  Beta  occ. eigenvalues --  -24.63855  -1.20903  -0.55010  -0.40136  -0.40136
  Beta virt. eigenvalues --   -0.05467   0.04726   0.39055   0.42706   0.94335
  Beta virt. eigenvalues --    0.94335   0.97381   1.29433   1.38354   1.38354
  Beta virt. eigenvalues --    1.50577   1.50951   1.50951   2.03041   2.42858

 Mulliken charges and spin densities:
               1          2
     1  H    0.284048   0.000624
     2  H    0.000848   0.998968
     3  F   -0.284896   0.000408
 Sum of Mulliken charges =   0.00000   1.00000

 Dipole moment (field-independent basis, Debye):
    X=             -1.8194    Y=              0.0000    Z=              0.0000  Tot=              1.8194
 Quadrupole moment (field-independent basis, Debye-Ang):
   XX=             -7.7521   YY=             -6.8198   ZZ=             -6.8198
   XY=              0.0000   XZ=              0.0000   YZ=             -0.0000

  Exact polarizability:       5.122       0.000       2.436      -0.000      -0.000       2.436
 Approx polarizability:       5.840      -0.000       2.416      -0.000      -0.000       2.416

 ******    3 imaginary frequencies (negative Signs) ******

                      1                      2                      3
                      A                      A                      A
 Frequencies --  -1325.5199             -1325.5199               -42.2723
 Red. masses --      1.0393                 1.0393                 1.0532
 Frc consts  --      1.0759                 1.0759                 0.0011
 IR Inten    --    188.3969               188.3969                 0.0369

                      4
                      A
 Frequencies --   5311.5303
 Red. masses --      1.0583
 Frc consts  --     17.5916
 IR Inten    --    103.6092

 - Thermochemistry -
 -------------------
 Temperature   298.150 Kelvin.  Pressure   1.00000 Atm.
 Atom     1 has atomic number  1 and mass   1.00783

 Molecular mass:    21.01405 amu.
 Principal axes and moments of inertia in atomic units:
                           1         2         3
     Eigenvalues --     0.00000  66.03523  66.03523
           X            1.00000  -0.00000   0.00000
           Y            0.00000   1.00000   0.00000
           Z            0.00000   0.00000   1.00000
 This molecule is a prolate symmetric top.
 Rotational symmetry number  1.
 Rotational temperature (Kelvin)      1.31163
 Rotational constant (GHZ):          27.329975
    3 imaginary frequencies ignored.
 Zero-point vibrational energy      31770.0 (Joules/Mol)
                                    7.59321 (Kcal/Mol)
 Vibrational temperatures:   7642.11
          (Kelvin)

 Zero-point correction=                           0.012101 (Hartree/Particle)
 Thermal correction to Energy=                    0.014461
 Thermal correction to Enthalpy=                  0.015405
 Thermal correction to Gibbs Free Energy=        -0.007979
 Sum of electronic and zero-point Energies=           -100.953399
 Sum of electronic and thermal Energies=              -100.951039
 Sum of electronic and thermal Enthalpies=            -100.950095
 Sum of electronic and thermal Free Energies=         -100.973479

                     E (Thermal)             CV                S
                      KCal/Mol        Cal/Mol-Kelvin    Cal/Mol-Kelvin
 Total                    9.074              4.968             49.216
 Electronic               0.000              0.000              1.377
 Translational            0.889              2.981             35.068
 Rotational               0.592              1.987             12.770
 Vibrational              7.593              0.000              0.000

 Normal termination of Gaussian 16 at Fri Aug 22 15:54:25 2025.
