 Gaussian 16, Revision C.01,
 Gaussian 16:  ES64L-G16RevC.01  3-Jul-2019

 -----------------------------------------
 # sp b3lyp/6-311g** Force nosymm scf=(qc)
 -----------------------------------------

 -------------------
 Title Card Required
 -------------------
 Symbolic Z-matrix:
 Charge =  0 Multiplicity = 2

                          Input orientation:
 ---------------------------------------------------------------------
 Center     Atomic      Atomic             Coordinates (Angstroms)
 Number     Number       Type             X           Y           Z
 ---------------------------------------------------------------------
      1          1           0        0.000000    0.000000    0.000000
      2          1           0       -2.700000    0.000000    0.000000
      3          9           0        3.600000    0.000000    0.000000
 ---------------------------------------------------------------------

 SCF Done:  E(UB3LYP) =  -100.761151082     a.u. after   28 cycles

 Alpha  occ. eigenvalues --  -24.75573  -1.21522  -0.54696  -0.45925  -0.45925
 Alpha  occ. eigenvalues --   -0.32523
 Alpha virt. eigenvalues --   -0.08785   0.25465   0.35101   0.87310   0.91362
 Alpha virt. eigenvalues --    0.91362   1.01563   1.25063   1.25063   1.26423
 Alpha virt. eigenvalues --    1.42646   1.42646   1.43271   2.16006   2.38135

  Beta  occ. eigenvalues --  -24.72448  -1.12540  -0.42792  -0.42792  -0.32824
  Beta virt. eigenvalues --   -0.25587  -0.08355   0.25255   0.35740   0.92855
  Beta virt. eigenvalues --    0.92855   0.96536   1.05625   1.24714   1.24714
  Beta virt. eigenvalues --    1.26022   1.43311   1.43311   1.43935   2.16327

 Mulliken charges and spin densities:
               1          2
     1  H    0.007052  -0.973785
     2  H    0.001159   0.982960
     3  F   -0.008211   0.990825
 Sum of Mulliken charges =   0.00000   1.00000

 Dipole moment (field-independent basis, Debye):
    X=             -0.1669    Y=              0.0000    Z=             -0.0000  Tot=              0.1669
 Quadrupole moment (field-independent basis, Debye-Ang):
   XX=             -7.0844   YY=             -7.6506   ZZ=             -7.6506
   XY=             -0.0000   XZ=              0.0000   YZ=              0.0000

  Exact polarizability:      26.661      -0.000       2.123       0.000       0.000       2.123
 Approx polarizability:      19.862      -0.000       1.931       0.000      -0.000       1.931

 ******    2 imaginary frequencies (negative Signs) ******

                      1                      2                      3
                      A                      A                      A
 Frequencies --   -508.3503              -123.5804               161.7658
 Red. masses --      1.0082                 1.1080                 1.0148
 Frc consts  --      0.1535                 0.0100                 0.0156
 IR Inten    --      4.2568                 3.8865                 0.0012

                      4
                      A
 Frequencies --    161.7745
 Red. masses --      1.0148
 Frc consts  --      0.0156
 IR Inten    --      0.0012

 - Thermochemistry -
 -------------------
 Temperature   298.150 Kelvin.  Pressure   1.00000 Atm.
 Atom     1 has atomic number  1 and mass   1.00783

 Molecular mass:    21.01405 amu.
 Principal axes and moments of inertia in atomic units:
                           1         2         3
     Eigenvalues --     0.00000 172.57060 172.57060
           X            1.00000  -0.00000   0.00000
           Y            0.00000   1.00000   0.00000
           Z            0.00000   0.00000   1.00000
 This molecule is a prolate symmetric top.
 Rotational symmetry number  1.
 Rotational temperature (Kelvin)      0.50190
 Rotational constant (GHZ):          10.457988
    2 imaginary frequencies ignored.
 Zero-point vibrational energy       1935.2 (Joules/Mol)
                                    0.46252 (Kcal/Mol)
 Warning -- explicit consideration of   2 degrees of freedom as
           vibrations may cause significant error
 Vibrational temperatures:    232.74   232.76
          (Kelvin)

 Zero-point correction=                           0.000737 (Hartree/Particle)
 Thermal correction to Energy=                    0.004344
 Thermal correction to Enthalpy=                  0.005288
 Thermal correction to Gibbs Free Energy=        -0.021406
 Sum of electronic and zero-point Energies=           -100.760414
 Sum of electronic and thermal Energies=              -100.756807
 Sum of electronic and thermal Enthalpies=            -100.755863
 Sum of electronic and thermal Free Energies=         -100.782557

                     E (Thermal)             CV                S
                      KCal/Mol        Cal/Mol-Kelvin    Cal/Mol-Kelvin
 Total                    2.726              8.747             56.183
 Electronic               0.000              0.000              1.377
 Translational            0.889              2.981             35.068
 Rotational               0.592              1.987             14.679
 Vibrational              1.245              3.779              5.058
 Vibration     1          0.622              1.889              2.529
 Vibration     2          0.622              1.889              2.529

 Normal termination of Gaussian 16 at Fri Aug 22 23:06:40 2025.
