 Gaussian 16, Revision C.01,
 Gaussian 16:  ES64L-G16RevC.01  3-Jul-2019

 -----------------------------------------
 # sp b3lyp/6-311g** Force nosymm scf=(qc)
 -----------------------------------------

 -------------------
 Title Card Required
 -------------------
 Symbolic Z-matrix:
 Charge =  0 Multiplicity = 2

                          Input orientation:
 ---------------------------------------------------------------------
 Center     Atomic      Atomic             Coordinates (Angstroms)
 Number     Number       Type             X           Y           Z
 ---------------------------------------------------------------------
      1          1           0        0.000000    0.000000    0.000000
      2          1           0       -2.900000    0.000000    0.000000
      3          9           0        4.000000    0.000000    0.000000
 ---------------------------------------------------------------------

 SCF Done:  E(UB3LYP) =  -100.759839959     a.u. after   41 cycles

 Alpha  occ. eigenvalues --  -24.75892  -1.21818  -0.55017  -0.46194  -0.46194
 Alpha  occ. eigenvalues --   -0.32364
 Alpha virt. eigenvalues --   -0.07927   0.25234   0.36227   0.86557   0.91161
 Alpha virt. eigenvalues --    0.91161   1.01073   1.25184   1.25184   1.26080
 Alpha virt. eigenvalues --    1.44033   1.44033   1.44155   2.15939   2.39174

  Beta  occ. eigenvalues --  -24.72746  -1.12772  -0.43040  -0.43040  -0.32527
  Beta virt. eigenvalues --   -0.25741  -0.07724   0.25087   0.36480   0.92660
  Beta virt. eigenvalues --    0.92660   0.95942   1.05203   1.25009   1.25009
  Beta virt. eigenvalues --    1.25888   1.44329   1.44329   1.44451   2.15960

 Mulliken charges and spin densities:
               1          2
     1  H    0.001985  -0.987410
     2  H    0.000319   0.990005
     3  F   -0.002304   0.997406
 Sum of Mulliken charges =   0.00000   1.00000

 Dipole moment (field-independent basis, Debye):
    X=             -0.0521    Y=             -0.0000    Z=             -0.0000  Tot=              0.0521
 Quadrupole moment (field-independent basis, Debye-Ang):
   XX=             -6.8129   YY=             -7.6407   ZZ=             -7.6407
   XY=             -0.0000   XZ=             -0.0000   YZ=              0.0000

  Exact polarizability:      13.956      -0.000       2.029      -0.000       0.000       2.029
 Approx polarizability:      10.579      -0.000       1.934      -0.000      -0.000       1.934

 ******    2 imaginary frequencies (negative Signs) ******

                      1                      2                      3
                      A                      A                      A
 Frequencies --   -380.7946               -74.4423               136.1721
 Red. masses --      1.0080                 1.1083                 1.0145
 Frc consts  --      0.0861                 0.0036                 0.0111
 IR Inten    --      0.5524                 0.5606                 0.0033

                      4
                      A
 Frequencies --    136.1721
 Red. masses --      1.0145
 Frc consts  --      0.0111
 IR Inten    --      0.0033

 - Thermochemistry -
 -------------------
 Temperature   298.150 Kelvin.  Pressure   1.00000 Atm.
 Atom     1 has atomic number  1 and mass   1.00783

 Molecular mass:    21.01405 amu.
 Principal axes and moments of inertia in atomic units:
                           1         2         3
     Eigenvalues --     0.00000 208.42551 208.42551
           X            1.00000  -0.00000   0.00000
           Y            0.00000   1.00000   0.00000
           Z            0.00000   0.00000   1.00000
 This molecule is a prolate symmetric top.
 Rotational symmetry number  1.
 Rotational temperature (Kelvin)      0.41556
 Rotational constant (GHZ):           8.658927
    2 imaginary frequencies ignored.
 Zero-point vibrational energy       1629.0 (Joules/Mol)
                                    0.38934 (Kcal/Mol)
 Warning -- explicit consideration of   2 degrees of freedom as
           vibrations may cause significant error
 Vibrational temperatures:    195.92   195.92
          (Kelvin)

 Zero-point correction=                           0.000620 (Hartree/Particle)
 Thermal correction to Energy=                    0.004316
 Thermal correction to Enthalpy=                  0.005260
 Thermal correction to Gibbs Free Energy=        -0.021924
 Sum of electronic and zero-point Energies=           -100.759220
 Sum of electronic and thermal Energies=              -100.755524
 Sum of electronic and thermal Enthalpies=            -100.754579
 Sum of electronic and thermal Free Energies=         -100.781764

                     E (Thermal)             CV                S
                      KCal/Mol        Cal/Mol-Kelvin    Cal/Mol-Kelvin
 Total                    2.709              8.802             57.214
 Electronic               0.000              0.000              1.377
 Translational            0.889              2.981             35.068
 Rotational               0.592              1.987             15.054
 Vibrational              1.227              3.834              5.714
 Vibration     1          0.614              1.917              2.857
 Vibration     2          0.614              1.917              2.857

 Normal termination of Gaussian 16 at Sat Aug 23 01:56:28 2025.
