 Gaussian 16, Revision C.01,
 Gaussian 16:  ES64L-G16RevC.01  3-Jul-2019

 -----------------------------------------
 # sp b3lyp/6-311g** Force nosymm scf=(qc)
 -----------------------------------------

 -------------------
 Title Card Required
 -------------------
 Symbolic Z-matrix:
 Charge =  0 Multiplicity = 2

                          Input orientation:
 ---------------------------------------------------------------------
 Center     Atomic      Atomic             Coordinates (Angstroms)
 Number     Number       Type             X           Y           Z
 ---------------------------------------------------------------------
      1          1           0        0.000000    0.000000    0.000000
      2          1           0       -2.300000    0.000000    0.000000
      3          9           0        0.500000    0.000000    0.000000
 ---------------------------------------------------------------------

 SCF Done:  E(UB3LYP) =  -100.268878111     a.u. after    7 cycles

 Alpha  occ. eigenvalues --  -24.63002  -1.42320  -0.63515  -0.44298  -0.44298
 Alpha  occ. eigenvalues --   -0.34446
 Alpha virt. eigenvalues --    0.10272   0.25351   0.60005   0.89291   0.90193
 Alpha virt. eigenvalues --    0.90193   1.18566   1.23110   1.23110   1.52822
 Alpha virt. eigenvalues --    1.58533   1.58533   1.99251   2.18902   3.76669

  Beta  occ. eigenvalues --  -24.62992  -1.42286  -0.63490  -0.44294  -0.44294
  Beta virt. eigenvalues --   -0.08231   0.11640   0.37894   0.59837   0.89426
  Beta virt. eigenvalues --    0.90171   0.90171   1.31267   1.45038   1.45038
  Beta virt. eigenvalues --    1.58508   1.58508   1.62367   2.02612   2.46219

 Mulliken charges and spin densities:
               1          2
     1  H    0.112154   0.005831
     2  H    0.006285   0.992401
     3  F   -0.118439   0.001768
 Sum of Mulliken charges =   0.00000   1.00000

 Dipole moment (field-independent basis, Debye):
    X=             -1.3499    Y=              0.0000    Z=             -0.0000  Tot=              1.3499
 Quadrupole moment (field-independent basis, Debye-Ang):
   XX=             -6.4738   YY=             -6.4263   ZZ=             -6.4263
   XY=              0.0000   XZ=             -0.0000   YZ=             -0.0000

  Exact polarizability:       4.705       0.000       2.439      -0.000       0.000       2.439
 Approx polarizability:       4.599       0.000       2.424       0.000       0.000       2.424

 ******    2 imaginary frequencies (negative Signs) ******

                      1                      2                      3
                      A                      A                      A
 Frequencies --  -9522.8769             -9522.8769               226.9804
 Red. masses --      1.0409                 1.0409                 1.0533
 Frc consts  --     55.6138                55.6138                 0.0320
 IR Inten    --    257.7414               257.7414                 0.0712

                      4
                      A
 Frequencies --  19158.7004
 Red. masses --      1.0583
 Frc consts  --    228.8719
 IR Inten    --     85.6121

 - Thermochemistry -
 -------------------
 Temperature   298.150 Kelvin.  Pressure   1.00000 Atm.
 Atom     1 has atomic number  1 and mass   1.00783

 Molecular mass:    21.01405 amu.
 Principal axes and moments of inertia in atomic units:
                           1         2         3
     Eigenvalues --     0.00000  27.23629  27.23629
           X            1.00000  -0.00000   0.00000
           Y            0.00000   1.00000   0.00000
           Z            0.00000   0.00000   1.00000
 This molecule is a prolate symmetric top.
 Rotational symmetry number  1.
 Rotational temperature (Kelvin)      3.18009
 Rotational constant (GHZ):          66.262373
    2 imaginary frequencies ignored.
 Zero-point vibrational energy     115952.1 (Joules/Mol)
                                   27.71322 (Kcal/Mol)
 Warning -- explicit consideration of   1 degrees of freedom as
           vibrations may cause significant error
 Vibrational temperatures:    326.57 27565.10
          (Kelvin)

 Zero-point correction=                           0.044164 (Hartree/Particle)
 Thermal correction to Energy=                    0.047044
 Thermal correction to Enthalpy=                  0.047988
 Thermal correction to Gibbs Free Energy=         0.024536
 Sum of electronic and zero-point Energies=           -100.224714
 Sum of electronic and thermal Energies=              -100.221834
 Sum of electronic and thermal Enthalpies=            -100.220890
 Sum of electronic and thermal Free Energies=         -100.244342

                     E (Thermal)             CV                S
                      KCal/Mol        Cal/Mol-Kelvin    Cal/Mol-Kelvin
 Total                   29.521              6.768             49.359
 Electronic               0.000              0.000              1.377
 Translational            0.889              2.981             35.068
 Rotational               0.592              1.987             11.010
 Vibrational             28.039              1.800              1.903
 Vibration     1          0.651              1.800              1.903

 Normal termination of Gaussian 16 at Fri Aug 22 15:37:07 2025.
