 Gaussian 16, Revision C.01,
 Gaussian 16:  ES64L-G16RevC.01  3-Jul-2019

 -----------------------------------------
 # sp b3lyp/6-311g** Force nosymm scf=(qc)
 -----------------------------------------

 -------------------
 Title Card Required
 -------------------
 Symbolic Z-matrix:
 Charge =  0 Multiplicity = 2

                          Input orientation:
 ---------------------------------------------------------------------
 Center     Atomic      Atomic             Coordinates (Angstroms)
 Number     Number       Type             X           Y           Z
 ---------------------------------------------------------------------
      1          1           0        0.000000    0.000000    0.000000
      2          1           0       -1.300000    0.000000    0.000000
      3          9           0        3.050000    0.000000    0.000000
 ---------------------------------------------------------------------

 SCF Done:  E(UB3LYP) =  -100.854291587     a.u. after   15 cycles

 Alpha  occ. eigenvalues --  -24.76662  -1.22491  -0.55681  -0.46924  -0.46832
 Alpha  occ. eigenvalues --   -0.35156
 Alpha virt. eigenvalues --   -0.05984   0.23694   0.32913   0.85768   0.90642
 Alpha virt. eigenvalues --    0.93183   1.03309   1.15479   1.15485   1.15828
 Alpha virt. eigenvalues --    1.49579   1.49585   1.99363   2.29258   2.53700

  Beta  occ. eigenvalues --  -24.73502  -1.13407  -0.43762  -0.43663  -0.35146
  Beta virt. eigenvalues --   -0.26309  -0.05970   0.23713   0.32982   0.92141
  Beta virt. eigenvalues --    0.94828   0.95227   1.07224   1.15478   1.15484
  Beta virt. eigenvalues --    1.15834   1.49578   1.49584   1.99372   2.29260

 Mulliken charges and spin densities:
               1          2
     1  H   -0.000874   0.000096
     2  H   -0.006195  -0.001027
     3  F    0.007069   1.000931
 Sum of Mulliken charges =  -0.00000   1.00000

 Dipole moment (field-independent basis, Debye):
    X=              0.1012    Y=             -0.0000    Z=             -0.0000  Tot=              0.1012
 Quadrupole moment (field-independent basis, Debye-Ang):
   XX=             -6.1590   YY=             -7.5993   ZZ=             -6.7357
   XY=             -0.0000   XZ=             -0.0000   YZ=              0.0080

  Exact polarizability:      18.647      -0.000       2.075       0.000       0.004       2.536
 Approx polarizability:      29.917       0.000       2.091       0.000       0.005       2.671

 ******    1 imaginary frequencies (negative Signs) ******

                      1                      2                      3
                      A                      A                      A
 Frequencies --   -970.0254                26.6263              1390.5842
 Red. masses --      1.0078                 1.1085                 1.0109
 Frc consts  --      0.5587                 0.0005                 1.1517
 IR Inten    --      0.9462                 0.5546                 0.0041

                      4
                      A
 Frequencies --   1392.8806
 Red. masses --      1.0109
 Frc consts  --      1.1555
 IR Inten    --      0.0034

 - Thermochemistry -
 -------------------
 Temperature   298.150 Kelvin.  Pressure   1.00000 Atm.
 Atom     1 has atomic number  1 and mass   1.00783

 Molecular mass:    21.01405 amu.
 Principal axes and moments of inertia in atomic units:
                           1         2         3
     Eigenvalues --     0.00000  92.13006  92.13006
           X            1.00000  -0.00000   0.00000
           Y            0.00000   1.00000   0.00000
           Z            0.00000   0.00000   1.00000
 This molecule is a prolate symmetric top.
 Rotational symmetry number  1.
 Rotational temperature (Kelvin)      0.94013
 Rotational constant (GHZ):          19.589059
    1 imaginary frequencies ignored.
 Zero-point vibrational energy      16808.1 (Joules/Mol)
                                    4.01723 (Kcal/Mol)
 Warning -- explicit consideration of   1 degrees of freedom as
           vibrations may cause significant error
 Vibrational temperatures:     38.31  2000.74  2004.04
          (Kelvin)

 Zero-point correction=                           0.006402 (Hartree/Particle)
 Thermal correction to Energy=                    0.009663
 Thermal correction to Enthalpy=                  0.010607
 Thermal correction to Gibbs Free Energy=        -0.015992
 Sum of electronic and zero-point Energies=           -100.847890
 Sum of electronic and thermal Energies=              -100.844629
 Sum of electronic and thermal Enthalpies=            -100.843685
 Sum of electronic and thermal Free Energies=         -100.870283

                     E (Thermal)             CV                S
                      KCal/Mol        Cal/Mol-Kelvin    Cal/Mol-Kelvin
 Total                    6.063              7.170             55.981
 Electronic               0.000              0.000              1.377
 Translational            0.889              2.981             35.068
 Rotational               0.592              1.987             13.432
 Vibrational              4.582              2.202              6.103
 Vibration     1          0.593              1.984              6.066

 Normal termination of Gaussian 16 at Fri Aug 22 19:41:01 2025.
