 Gaussian 16, Revision C.01,
 Gaussian 16:  ES64L-G16RevC.01  3-Jul-2019

 -----------------------------------------
 # sp b3lyp/6-311g** Force nosymm scf=(qc)
 -----------------------------------------

 -------------------
 Title Card Required
 -------------------
 Symbolic Z-matrix:
 Charge =  0 Multiplicity = 2

                          Input orientation:
 ---------------------------------------------------------------------
 Center     Atomic      Atomic             Coordinates (Angstroms)
 Number     Number       Type             X           Y           Z
 ---------------------------------------------------------------------
      1          1           0        0.000000    0.000000    0.000000
      2          1           0       -2.400000    0.000000    0.000000
      3          9           0        4.000000    0.000000    0.000000
 ---------------------------------------------------------------------

 SCF Done:  E(UB3LYP) =  -100.763733705     a.u. after   62 cycles

 Alpha  occ. eigenvalues --  -24.75919  -1.21845  -0.55045  -0.46219  -0.46219
 Alpha  occ. eigenvalues --   -0.32578
 Alpha virt. eigenvalues --   -0.09505   0.25901   0.34494   0.86540   0.91139
 Alpha virt. eigenvalues --    0.91139   1.01050   1.25124   1.25124   1.26326
 Alpha virt. eigenvalues --    1.41157   1.41157   1.43634   2.15532   2.36077

  Beta  occ. eigenvalues --  -24.72773  -1.12797  -0.43064  -0.43064  -0.32688
  Beta virt. eigenvalues --   -0.25765  -0.09332   0.25761   0.34720   0.92638
  Beta virt. eigenvalues --    0.92638   0.95931   1.05184   1.25005   1.25005
  Beta virt. eigenvalues --    1.26202   1.41397   1.41397   1.43860   2.15619

 Mulliken charges and spin densities:
               1          2
     1  H    0.000982  -0.956646
     2  H    0.001083   0.959026
     3  F   -0.002064   0.997621
 Sum of Mulliken charges =   0.00000   1.00000

 Dipole moment (field-independent basis, Debye):
    X=             -0.0548    Y=             -0.0000    Z=             -0.0000  Tot=              0.0548
 Quadrupole moment (field-independent basis, Debye-Ang):
   XX=             -6.6187   YY=             -7.6769   ZZ=             -7.6769
   XY=             -0.0001   XZ=             -0.0001   YZ=              0.0000

  Exact polarizability:      20.860      -0.000       2.019      -0.000       0.000       2.019
 Approx polarizability:      16.549      -0.000       1.931      -0.000       0.000       1.931

 ******    2 imaginary frequencies (negative Signs) ******

                      1                      2                      3
                      A                      A                      A
 Frequencies --   -761.8339               -73.6660               286.9056
 Red. masses --      1.0078                 1.1085                 1.0129
 Frc consts  --      0.3446                 0.0035                 0.0491
 IR Inten    --      0.4711                 0.5947                 0.0003

                      4
                      A
 Frequencies --    286.9056
 Red. masses --      1.0129
 Frc consts  --      0.0491
 IR Inten    --      0.0003

 - Thermochemistry -
 -------------------
 Temperature   298.150 Kelvin.  Pressure   1.00000 Atm.
 Atom     1 has atomic number  1 and mass   1.00783

 Molecular mass:    21.01405 amu.
 Principal axes and moments of inertia in atomic units:
                           1         2         3
     Eigenvalues --     0.00000 186.33036 186.33036
           X            1.00000  -0.00000   0.00000
           Y            0.00000   1.00000   0.00000
           Z            0.00000   0.00000   1.00000
 This molecule is a prolate symmetric top.
 Rotational symmetry number  1.
 Rotational temperature (Kelvin)      0.46484
 Rotational constant (GHZ):           9.685707
    2 imaginary frequencies ignored.
 Zero-point vibrational energy       3432.2 (Joules/Mol)
                                    0.82030 (Kcal/Mol)
 Warning -- explicit consideration of   2 degrees of freedom as
           vibrations may cause significant error
 Vibrational temperatures:    412.79   412.79
          (Kelvin)

 Zero-point correction=                           0.001307 (Hartree/Particle)
 Thermal correction to Energy=                    0.004541
 Thermal correction to Enthalpy=                  0.005485
 Thermal correction to Gibbs Free Energy=        -0.020296
 Sum of electronic and zero-point Energies=           -100.762426
 Sum of electronic and thermal Energies=              -100.759192
 Sum of electronic and thermal Enthalpies=            -100.758248
 Sum of electronic and thermal Free Energies=         -100.784030

                     E (Thermal)             CV                S
                      KCal/Mol        Cal/Mol-Kelvin    Cal/Mol-Kelvin
 Total                    2.850              8.364             54.262
 Electronic               0.000              0.000              1.377
 Translational            0.889              2.981             35.068
 Rotational               0.592              1.987             14.832
 Vibrational              1.368              3.396              2.984
 Vibration     1          0.684              1.698              1.492
 Vibration     2          0.684              1.698              1.492

 Normal termination of Gaussian 16 at Sat Aug 23 01:55:04 2025.
