 Gaussian 16, Revision C.01,
 Gaussian 16:  ES64L-G16RevC.01  3-Jul-2019

 -----------------------------------------
 # sp b3lyp/6-311g** Force nosymm scf=(qc)
 -----------------------------------------

 -------------------
 Title Card Required
 -------------------
 Symbolic Z-matrix:
 Charge =  0 Multiplicity = 2

                          Input orientation:
 ---------------------------------------------------------------------
 Center     Atomic      Atomic             Coordinates (Angstroms)
 Number     Number       Type             X           Y           Z
 ---------------------------------------------------------------------
      1          1           0        0.000000    0.000000    0.000000
      2          1           0       -1.350000    0.000000    0.000000
      3          9           0        1.200000    0.000000    0.000000
 ---------------------------------------------------------------------

 SCF Done:  E(UB3LYP) =  -100.935755993     a.u. after    7 cycles

 Alpha  occ. eigenvalues --  -24.63832  -1.12554  -0.50953  -0.37764  -0.37267
 Alpha  occ. eigenvalues --   -0.37267
 Alpha virt. eigenvalues --    0.02927   0.19963   0.30834   0.92859   0.92859
 Alpha virt. eigenvalues --    1.00658   1.12242   1.12242   1.14104   1.45629
 Alpha virt. eigenvalues --    1.45629   1.55349   1.99802   2.29641   2.42552

  Beta  occ. eigenvalues --  -24.63056  -1.10577  -0.46564  -0.36554  -0.36554
  Beta virt. eigenvalues --   -0.19813   0.06154   0.23643   0.34062   0.93259
  Beta virt. eigenvalues --    0.93259   1.02409   1.20165   1.20165   1.20963
  Beta virt. eigenvalues --    1.49636   1.49636   1.57981   2.09672   2.31290

 Mulliken charges and spin densities:
               1          2
     1  H    0.293097  -0.056621
     2  H    0.056329   0.830029
     3  F   -0.349427   0.226592
 Sum of Mulliken charges =   0.00000   1.00000

 Dipole moment (field-independent basis, Debye):
    X=             -2.6199    Y=             -0.0000    Z=             -0.0000  Tot=              2.6199
 Quadrupole moment (field-independent basis, Debye-Ang):
   XX=             -7.9076   YY=             -6.9548   ZZ=             -6.9548
   XY=             -0.0000   XZ=             -0.0000   YZ=              0.0000

  Exact polarizability:      20.981       0.000       2.470       0.000      -0.000       2.470
 Approx polarizability:      26.778      -0.000       2.451      -0.000      -0.000       2.451

 ******    1 imaginary frequencies (negative Signs) ******

                      1                      2                      3
                      A                      A                      A
 Frequencies --  -1928.0564               724.7875              1107.0480
 Red. masses --      1.0169                 1.0977                 1.0194
 Frc consts  --      2.2272                 0.3398                 0.7361
 IR Inten    --      0.0205                38.3079                55.9187

                      4
                      A
 Frequencies --   1107.0480
 Red. masses --      1.0194
 Frc consts  --      0.7361
 IR Inten    --     55.9187

 - Thermochemistry -
 -------------------
 Temperature   298.150 Kelvin.  Pressure   1.00000 Atm.
 Atom     1 has atomic number  1 and mass   1.00783

 Molecular mass:    21.01405 amu.
 Principal axes and moments of inertia in atomic units:
                           1         2         3
     Eigenvalues --     0.00000  26.15784  26.15784
           X            1.00000  -0.00000   0.00000
           Y            0.00000   1.00000   0.00000
           Z            0.00000   0.00000   1.00000
 This molecule is a prolate symmetric top.
 Rotational symmetry number  1.
 Rotational temperature (Kelvin)      3.31120
 Rotational constant (GHZ):          68.994273
    1 imaginary frequencies ignored.
 Zero-point vibrational energy      17578.4 (Joules/Mol)
                                    4.20134 (Kcal/Mol)
 Vibrational temperatures:   1042.81  1592.80  1592.80
          (Kelvin)

 Zero-point correction=                           0.006695 (Hartree/Particle)
 Thermal correction to Energy=                    0.009207
 Thermal correction to Enthalpy=                  0.010152
 Thermal correction to Gibbs Free Energy=        -0.012548
 Sum of electronic and zero-point Energies=           -100.929061
 Sum of electronic and thermal Energies=              -100.926549
 Sum of electronic and thermal Enthalpies=            -100.925604
 Sum of electronic and thermal Free Energies=         -100.948304

                     E (Thermal)             CV                S
                      KCal/Mol        Cal/Mol-Kelvin    Cal/Mol-Kelvin
 Total                    5.778              6.299             47.775
 Electronic               0.000              0.000              1.377
 Translational            0.889              2.981             35.068
 Rotational               0.592              1.987             10.930
 Vibrational              4.296              1.331              0.399

 Normal termination of Gaussian 16 at Fri Aug 22 16:09:42 2025.
