 Gaussian 16, Revision C.01,
 Gaussian 16:  ES64L-G16RevC.01  3-Jul-2019

 -----------------------------------------
 # sp b3lyp/6-311g** Force nosymm scf=(qc)
 -----------------------------------------

 -------------------
 Title Card Required
 -------------------
 Symbolic Z-matrix:
 Charge =  0 Multiplicity = 2

                          Input orientation:
 ---------------------------------------------------------------------
 Center     Atomic      Atomic             Coordinates (Angstroms)
 Number     Number       Type             X           Y           Z
 ---------------------------------------------------------------------
      1          1           0        0.000000    0.000000    0.000000
      2          1           0       -0.850000    0.000000    0.000000
      3          9           0        1.050000    0.000000    0.000000
 ---------------------------------------------------------------------

 SCF Done:  E(UB3LYP) =  -100.949726898     a.u. after    6 cycles

 Alpha  occ. eigenvalues --  -24.66107  -1.17895  -0.59993  -0.40313  -0.40313
 Alpha  occ. eigenvalues --   -0.36503
 Alpha virt. eigenvalues --    0.12609   0.18608   0.48369   0.88329   0.88329
 Alpha virt. eigenvalues --    0.96585   1.08611   1.08611   1.44670   1.69201
 Alpha virt. eigenvalues --    1.70336   1.70336   2.15423   2.30415   3.17970

  Beta  occ. eigenvalues --  -24.64701  -1.14335  -0.52849  -0.39036  -0.39036
  Beta virt. eigenvalues --   -0.19107   0.14649   0.20385   0.53655   0.90105
  Beta virt. eigenvalues --    0.90105   0.99502   1.13230   1.13230   1.47019
  Beta virt. eigenvalues --    1.74411   1.74411   1.77002   2.15038   2.40339

 Mulliken charges and spin densities:
               1          2
     1  H    0.275291  -0.027126
     2  H   -0.001832   0.655514
     3  F   -0.273459   0.371612
 Sum of Mulliken charges =   0.00000   1.00000

 Dipole moment (field-independent basis, Debye):
    X=             -1.7723    Y=              0.0000    Z=              0.0000  Tot=              1.7723
 Quadrupole moment (field-independent basis, Debye-Ang):
   XX=             -7.5475   YY=             -6.6393   ZZ=             -6.6393
   XY=              0.0000   XZ=              0.0000   YZ=             -0.0000

  Exact polarizability:      15.504       0.000       2.549      -0.000       0.000       2.549
 Approx polarizability:      19.147       0.000       2.585       0.000       0.000       2.585

 ******    2 imaginary frequencies (negative Signs) ******

                      1                      2                      3
                      A                      A                      A
 Frequencies --  -1033.1186             -1033.1186              1568.8312
 Red. masses --      1.0156                 1.0156                 1.0980
 Frc consts  --      0.6387                 0.6387                 1.5922
 IR Inten    --     34.6314                34.6314                 0.3737

                      4
                      A
 Frequencies --   2371.1791
 Red. masses --      1.0167
 Frc consts  --      3.3679
 IR Inten    --    179.5953

 - Thermochemistry -
 -------------------
 Temperature   298.150 Kelvin.  Pressure   1.00000 Atm.
 Atom     1 has atomic number  1 and mass   1.00783

 Molecular mass:    21.01405 amu.
 Principal axes and moments of inertia in atomic units:
                           1         2         3
     Eigenvalues --     0.00000  15.45822  15.45822
           X            1.00000  -0.00000   0.00000
           Y            0.00000   1.00000   0.00000
           Z            0.00000   0.00000   1.00000
 This molecule is a prolate symmetric top.
 Rotational symmetry number  1.
 Rotational temperature (Kelvin)      5.60310
 Rotational constant (GHZ):         116.749643
    2 imaginary frequencies ignored.
 Zero-point vibrational energy      23566.5 (Joules/Mol)
                                    5.63253 (Kcal/Mol)
 Vibrational temperatures:   2257.20  3411.60
          (Kelvin)

 Zero-point correction=                           0.008976 (Hartree/Particle)
 Thermal correction to Energy=                    0.011340
 Thermal correction to Enthalpy=                  0.012284
 Thermal correction to Gibbs Free Energy=        -0.009733
 Sum of electronic and zero-point Energies=           -100.940751
 Sum of electronic and thermal Energies=              -100.938387
 Sum of electronic and thermal Enthalpies=            -100.937442
 Sum of electronic and thermal Free Energies=         -100.959460

                     E (Thermal)             CV                S
                      KCal/Mol        Cal/Mol-Kelvin    Cal/Mol-Kelvin
 Total                    7.116              5.030             46.339
 Electronic               0.000              0.000              1.377
 Translational            0.889              2.981             35.068
 Rotational               0.592              1.987              9.885
 Vibrational              5.635              0.062              0.009

 Normal termination of Gaussian 16 at Fri Aug 22 16:02:07 2025.
