 Gaussian 16, Revision C.01,
 Gaussian 16:  ES64L-G16RevC.01  3-Jul-2019

 -----------------------------------------
 # sp b3lyp/6-311g** Force nosymm scf=(qc)
 -----------------------------------------

 -------------------
 Title Card Required
 -------------------
 Symbolic Z-matrix:
 Charge =  0 Multiplicity = 2

                          Input orientation:
 ---------------------------------------------------------------------
 Center     Atomic      Atomic             Coordinates (Angstroms)
 Number     Number       Type             X           Y           Z
 ---------------------------------------------------------------------
      1          1           0        0.000000    0.000000    0.000000
      2          1           0       -3.400000    0.000000    0.000000
      3          9           0        3.850000    0.000000    0.000000
 ---------------------------------------------------------------------

 SCF Done:  E(UB3LYP) =  -100.758822914     a.u. after   34 cycles

 Alpha  occ. eigenvalues --  -24.75794  -1.21727  -0.54918  -0.46110  -0.46110
 Alpha  occ. eigenvalues --   -0.32286
 Alpha virt. eigenvalues --   -0.06881   0.24473   0.37410   0.86770   0.91225
 Alpha virt. eigenvalues --    0.91225   1.01207   1.25222   1.25222   1.25434
 Alpha virt. eigenvalues --    1.45281   1.45520   1.45520   2.15228   2.40907

  Beta  occ. eigenvalues --  -24.72654  -1.12699  -0.42962  -0.42962  -0.32530
  Beta virt. eigenvalues --   -0.25689  -0.06616   0.24296   0.37810   0.92722
  Beta virt. eigenvalues --    0.92722   0.96099   1.05314   1.24953   1.24953
  Beta virt. eigenvalues --    1.25149   1.45700   1.45930   1.45930   2.15258

 Mulliken charges and spin densities:
               1          2
     1  H    0.003878  -0.992816
     2  H    0.000116   0.997250
     3  F   -0.003994   0.995566
 Sum of Mulliken charges =   0.00000   1.00000

 Dipole moment (field-independent basis, Debye):
    X=             -0.0814    Y=             -0.0000    Z=              0.0000  Tot=              0.0814
 Quadrupole moment (field-independent basis, Debye-Ang):
   XX=             -6.9911   YY=             -7.6253   ZZ=             -7.6253
   XY=              0.0000   XZ=             -0.0000   YZ=             -0.0000

  Exact polarizability:      14.476       0.000       2.123       0.000      -0.000       2.123
 Approx polarizability:      10.711       0.000       1.936      -0.000       0.000       1.936

 ******    2 imaginary frequencies (negative Signs) ******

                      1                      2                      3
                      A                      A                      A
 Frequencies --   -219.7538               -81.6852                65.4868
 Red. masses --      1.0113                 1.1044                 1.0165
 Frc consts  --      0.0288                 0.0043                 0.0026
 IR Inten    --      1.7483                 0.8843                 0.0027

                      4
                      A
 Frequencies --     65.4932
 Red. masses --      1.0165
 Frc consts  --      0.0026
 IR Inten    --      0.0027

 - Thermochemistry -
 -------------------
 Temperature   298.150 Kelvin.  Pressure   1.00000 Atm.
 Atom     1 has atomic number  1 and mass   1.00783

 Molecular mass:    21.01405 amu.
 Principal axes and moments of inertia in atomic units:
                           1         2         3
     Eigenvalues --     0.00000 221.25229 221.25229
           X            1.00000  -0.00000   0.00000
           Y            0.00000   1.00000   0.00000
           Z            0.00000   0.00000   1.00000
 This molecule is a prolate symmetric top.
 Rotational symmetry number  1.
 Rotational temperature (Kelvin)      0.39147
 Rotational constant (GHZ):           8.156938
    2 imaginary frequencies ignored.
 Zero-point vibrational energy        783.4 (Joules/Mol)
                                    0.18725 (Kcal/Mol)
 Warning -- explicit consideration of   2 degrees of freedom as
           vibrations may cause significant error
 Vibrational temperatures:     94.22    94.23
          (Kelvin)

 Zero-point correction=                           0.000298 (Hartree/Particle)
 Thermal correction to Energy=                    0.004265
 Thermal correction to Enthalpy=                  0.005209
 Thermal correction to Gibbs Free Energy=        -0.023388
 Sum of electronic and zero-point Energies=           -100.758525
 Sum of electronic and thermal Energies=              -100.754558
 Sum of electronic and thermal Enthalpies=            -100.753614
 Sum of electronic and thermal Free Energies=         -100.782211

                     E (Thermal)             CV                S
                      KCal/Mol        Cal/Mol-Kelvin    Cal/Mol-Kelvin
 Total                    2.676              8.910             60.188
 Electronic               0.000              0.000              1.377
 Translational            0.889              2.981             35.068
 Rotational               0.592              1.987             15.173
 Vibrational              1.195              3.941              8.569
 Vibration     1          0.597              1.971              4.285
 Vibration     2          0.597              1.971              4.284

 Normal termination of Gaussian 16 at Sat Aug 23 01:10:45 2025.
