 Gaussian 16, Revision C.01,
 Gaussian 16:  ES64L-G16RevC.01  3-Jul-2019

 -----------------------------------------
 # sp b3lyp/6-311g** Force nosymm scf=(qc)
 -----------------------------------------

 -------------------
 Title Card Required
 -------------------
 Symbolic Z-matrix:
 Charge =  0 Multiplicity = 2

                          Input orientation:
 ---------------------------------------------------------------------
 Center     Atomic      Atomic             Coordinates (Angstroms)
 Number     Number       Type             X           Y           Z
 ---------------------------------------------------------------------
      1          1           0        0.000000    0.000000    0.000000
      2          1           0       -2.100000    0.000000    0.000000
      3          9           0        3.500000    0.000000    0.000000
 ---------------------------------------------------------------------

 SCF Done:  E(UB3LYP) =  -100.770815855     a.u. after   27 cycles

 Alpha  occ. eigenvalues --  -24.75546  -1.21497  -0.54669  -0.45904  -0.45904
 Alpha  occ. eigenvalues --   -0.33006
 Alpha virt. eigenvalues --   -0.10797   0.25889   0.32770   0.87600   0.91371
 Alpha virt. eigenvalues --    0.91371   1.01735   1.20669   1.24919   1.24919
 Alpha virt. eigenvalues --    1.38482   1.38482   1.47710   2.13389   2.35805

  Beta  occ. eigenvalues --  -24.72426  -1.12531  -0.42777  -0.42777  -0.33127
  Beta virt. eigenvalues --   -0.25604  -0.10491   0.25772   0.33267   0.92862
  Beta virt. eigenvalues --    0.92862   0.96775   1.05786   1.20582   1.24763
  Beta virt. eigenvalues --    1.24763   1.38924   1.38924   1.48049   2.13978

 Mulliken charges and spin densities:
               1          2
     1  H    0.004170  -0.886250
     2  H    0.005163   0.896990
     3  F   -0.009333   0.989260
 Sum of Mulliken charges =   0.00000   1.00000

 Dipole moment (field-independent basis, Debye):
    X=             -0.2189    Y=             -0.0000    Z=              0.0000  Tot=              0.2189
 Quadrupole moment (field-independent basis, Debye-Ang):
   XX=             -6.7370   YY=             -7.7116   ZZ=             -7.7116
   XY=              0.0000   XZ=             -0.0000   YZ=              0.0000

  Exact polarizability:      41.835      -0.000       1.982       0.000      -0.000       1.982
 Approx polarizability:      34.325       0.000       1.933      -0.000      -0.000       1.933

 ******    2 imaginary frequencies (negative Signs) ******

                      1                      2                      3
                      A                      A                      A
 Frequencies --  -1181.5416              -136.1186               467.3812
 Red. masses --      1.0079                 1.1085                 1.0129
 Frc consts  --      0.8290                 0.0121                 0.1304
 IR Inten    --      8.1270                 6.8264                 0.0067

                      4
                      A
 Frequencies --    467.3813
 Red. masses --      1.0129
 Frc consts  --      0.1304
 IR Inten    --      0.0067

 - Thermochemistry -
 -------------------
 Temperature   298.150 Kelvin.  Pressure   1.00000 Atm.
 Atom     1 has atomic number  1 and mass   1.00783

 Molecular mass:    21.01405 amu.
 Principal axes and moments of inertia in atomic units:
                           1         2         3
     Eigenvalues --     0.00000 142.65918 142.65918
           X            1.00000  -0.00000   0.00000
           Y            0.00000   1.00000   0.00000
           Z            0.00000   0.00000   1.00000
 This molecule is a prolate symmetric top.
 Rotational symmetry number  1.
 Rotational temperature (Kelvin)      0.60714
 Rotational constant (GHZ):          12.650719
    2 imaginary frequencies ignored.
 Zero-point vibrational energy       5591.1 (Joules/Mol)
                                    1.33631 (Kcal/Mol)
 Warning -- explicit consideration of   2 degrees of freedom as
           vibrations may cause significant error
 Vibrational temperatures:    672.46   672.46
          (Kelvin)

 Zero-point correction=                           0.002130 (Hartree/Particle)
 Thermal correction to Energy=                    0.004989
 Thermal correction to Enthalpy=                  0.005933
 Thermal correction to Gibbs Free Energy=        -0.018886
 Sum of electronic and zero-point Energies=           -100.768686
 Sum of electronic and thermal Energies=              -100.765827
 Sum of electronic and thermal Enthalpies=            -100.764883
 Sum of electronic and thermal Free Energies=         -100.789702

                     E (Thermal)             CV                S
                      KCal/Mol        Cal/Mol-Kelvin    Cal/Mol-Kelvin
 Total                    3.130              7.613             52.236
 Electronic               0.000              0.000              1.377
 Translational            0.889              2.981             35.068
 Rotational               0.592              1.987             14.301
 Vibrational              1.649              2.645              1.490
 Vibration     1          0.825              1.322              0.745
 Vibration     2          0.825              1.322              0.745

 Normal termination of Gaussian 16 at Fri Aug 22 22:09:09 2025.
