 Gaussian 16, Revision C.01,
 Gaussian 16:  ES64L-G16RevC.01  3-Jul-2019

 -----------------------------------------
 # sp b3lyp/6-311g** Force nosymm scf=(qc)
 -----------------------------------------

 -------------------
 Title Card Required
 -------------------
 Symbolic Z-matrix:
 Charge =  0 Multiplicity = 2

                          Input orientation:
 ---------------------------------------------------------------------
 Center     Atomic      Atomic             Coordinates (Angstroms)
 Number     Number       Type             X           Y           Z
 ---------------------------------------------------------------------
      1          1           0        0.000000    0.000000    0.000000
      2          1           0       -3.200000    0.000000    0.000000
      3          9           0        1.000000    0.000000    0.000000
 ---------------------------------------------------------------------

 SCF Done:  E(UB3LYP) =  -100.966204668     a.u. after    6 cycles

 Alpha  occ. eigenvalues --  -24.64170  -1.16046  -0.51645  -0.38791  -0.38791
 Alpha  occ. eigenvalues --   -0.33980
 Alpha virt. eigenvalues --    0.00702   0.24418   0.34416   0.94050   0.94050
 Alpha virt. eigenvalues --    0.98585   1.23265   1.23543   1.23543   1.30497
 Alpha virt. eigenvalues --    1.35940   1.35940   1.90410   2.14346   2.34026

  Beta  occ. eigenvalues --  -24.64167  -1.16036  -0.51633  -0.38787  -0.38787
  Beta virt. eigenvalues --   -0.06836   0.01686   0.33842   0.38891   0.94051
  Beta virt. eigenvalues --    0.94051   0.98585   1.29821   1.35937   1.35937
  Beta virt. eigenvalues --    1.49173   1.49173   1.49490   1.90472   2.33981

 Mulliken charges and spin densities:
               1          2
     1  H    0.319118   0.000926
     2  H    0.001829   0.997741
     3  F   -0.320947   0.001334
 Sum of Mulliken charges =   0.00000   1.00000

 Dipole moment (field-independent basis, Debye):
    X=             -2.0508    Y=              0.0000    Z=              0.0000  Tot=              2.0508
 Quadrupole moment (field-independent basis, Debye-Ang):
   XX=             -8.1701   YY=             -6.9617   ZZ=             -6.9617
   XY=              0.0000   XZ=              0.0000   YZ=              0.0000

  Exact polarizability:       7.127       0.000       2.403       0.000      -0.000       2.403
 Approx polarizability:       8.589      -0.000       2.377      -0.000      -0.000       2.377

 ******    1 imaginary frequencies (negative Signs) ******

                      1                      2                      3
                      A                      A                      A
 Frequencies --    -62.3839               979.8309               979.8309
 Red. masses --      1.0532                 1.0356                 1.0356
 Frc consts  --      0.0024                 0.5858                 0.5858
 IR Inten    --      0.1393               166.2169               166.2169

                      4
                      A
 Frequencies --   3025.4069
 Red. masses --      1.0584
 Frc consts  --      5.7077
 IR Inten    --     94.7964

 - Thermochemistry -
 -------------------
 Temperature   298.150 Kelvin.  Pressure   1.00000 Atm.
 Atom     1 has atomic number  1 and mass   1.00783

 Molecular mass:    21.01405 amu.
 Principal axes and moments of inertia in atomic units:
                           1         2         3
     Eigenvalues --     0.00000  62.41823  62.41823
           X            1.00000  -0.00000   0.00000
           Y            0.00000   1.00000   0.00000
           Z            0.00000   0.00000   1.00000
 This molecule is a prolate symmetric top.
 Rotational symmetry number  1.
 Rotational temperature (Kelvin)      1.38764
 Rotational constant (GHZ):          28.913688
    1 imaginary frequencies ignored.
 Zero-point vibrational energy      29817.3 (Joules/Mol)
                                    7.12651 (Kcal/Mol)
 Vibrational temperatures:   1409.76  1409.76  4352.89
          (Kelvin)

 Zero-point correction=                           0.011357 (Hartree/Particle)
 Thermal correction to Energy=                    0.013797
 Thermal correction to Enthalpy=                  0.014741
 Thermal correction to Gibbs Free Energy=        -0.008686
 Sum of electronic and zero-point Energies=           -100.954848
 Sum of electronic and thermal Energies=              -100.952408
 Sum of electronic and thermal Enthalpies=            -100.951464
 Sum of electronic and thermal Free Energies=         -100.974891

                     E (Thermal)             CV                S
                      KCal/Mol        Cal/Mol-Kelvin    Cal/Mol-Kelvin
 Total                    8.658              5.768             49.307
 Electronic               0.000              0.000              1.377
 Translational            0.889              2.981             35.068
 Rotational               0.592              1.987             12.658
 Vibrational              7.176              0.800              0.203

 Normal termination of Gaussian 16 at Fri Aug 22 16:01:21 2025.
