 Gaussian 16, Revision C.01,
 Gaussian 16:  ES64L-G16RevC.01  3-Jul-2019

 -----------------------------------------
 # sp b3lyp/6-311g** Force nosymm scf=(qc)
 -----------------------------------------

 -------------------
 Title Card Required
 -------------------
 Symbolic Z-matrix:
 Charge =  0 Multiplicity = 2

                          Input orientation:
 ---------------------------------------------------------------------
 Center     Atomic      Atomic             Coordinates (Angstroms)
 Number     Number       Type             X           Y           Z
 ---------------------------------------------------------------------
      1          1           0        0.000000    0.000000    0.000000
      2          1           0       -3.950000    0.000000    0.000000
      3          9           0        1.650000    0.000000    0.000000
 ---------------------------------------------------------------------

 SCF Done:  E(UB3LYP) =  -100.824965419     a.u. after   14 cycles

 Alpha  occ. eigenvalues --  -24.64125  -1.07920  -0.40803  -0.36041  -0.36041
 Alpha  occ. eigenvalues --   -0.33538
 Alpha virt. eigenvalues --   -0.17781   0.19699   0.26373   0.94043   0.94043
 Alpha virt. eigenvalues --    0.98820   1.07308   1.23929   1.23964   1.23964
 Alpha virt. eigenvalues --    1.26318   1.26318   1.70673   2.11042   2.15447

  Beta  occ. eigenvalues --  -24.65317  -1.11146  -0.43836  -0.37191  -0.37191
  Beta virt. eigenvalues --   -0.15496  -0.05465   0.24717   0.38789   0.94370
  Beta virt. eigenvalues --    0.94370   0.98250   1.06367   1.32589   1.32589
  Beta virt. eigenvalues --    1.46595   1.46825   1.46825   1.73770   2.21589

 Mulliken charges and spin densities:
               1          2
     1  H    0.312664   0.376761
     2  H    0.000589   0.999417
     3  F   -0.313253  -0.376178
 Sum of Mulliken charges =   0.00000   1.00000

 Dipole moment (field-independent basis, Debye):
    X=             -2.5314    Y=              0.0000    Z=              0.0000  Tot=              2.5314
 Quadrupole moment (field-independent basis, Debye-Ang):
   XX=            -10.2783   YY=             -7.3857   ZZ=             -7.3857
   XY=              0.0000   XZ=              0.0000   YZ=             -0.0000

  Exact polarizability:      19.711       0.000       2.133      -0.000      -0.000       2.133
 Approx polarizability:      34.437      -0.000       2.038      -0.000       0.000       2.038

 ******    2 imaginary frequencies (negative Signs) ******

                      1                      2                      3
                      A                      A                      A
 Frequencies --  -1827.7470               -28.4245               846.2961
 Red. masses --      1.0584                 1.0531                 1.0310
 Frc consts  --      2.0832                 0.0005                 0.4351
 IR Inten    --     99.5496                 0.0590                93.4723

                      4
                      A
 Frequencies --    846.2961
 Red. masses --      1.0310
 Frc consts  --      0.4351
 IR Inten    --     93.4723

 - Thermochemistry -
 -------------------
 Temperature   298.150 Kelvin.  Pressure   1.00000 Atm.
 Atom     1 has atomic number  1 and mass   1.00783

 Molecular mass:    21.01405 amu.
 Principal axes and moments of inertia in atomic units:
                           1         2         3
     Eigenvalues --     0.00000 113.59056 113.59056
           X            1.00000  -0.00000   0.00000
           Y            0.00000   1.00000   0.00000
           Z            0.00000   0.00000   1.00000
 This molecule is a prolate symmetric top.
 Rotational symmetry number  1.
 Rotational temperature (Kelvin)      0.76251
 Rotational constant (GHZ):          15.888127
    2 imaginary frequencies ignored.
 Zero-point vibrational energy      10123.9 (Joules/Mol)
                                    2.41968 (Kcal/Mol)
 Vibrational temperatures:   1217.63  1217.63
          (Kelvin)

 Zero-point correction=                           0.003856 (Hartree/Particle)
 Thermal correction to Energy=                    0.006349
 Thermal correction to Enthalpy=                  0.007293
 Thermal correction to Gibbs Free Energy=        -0.016768
 Sum of electronic and zero-point Energies=           -100.821109
 Sum of electronic and thermal Energies=              -100.818617
 Sum of electronic and thermal Enthalpies=            -100.817673
 Sum of electronic and thermal Free Energies=         -100.841733

                     E (Thermal)             CV                S
                      KCal/Mol        Cal/Mol-Kelvin    Cal/Mol-Kelvin
 Total                    3.984              6.123             50.639
 Electronic               0.000              0.000              1.377
 Translational            0.889              2.981             35.068
 Rotational               0.592              1.987             13.848
 Vibrational              2.503              1.155              0.346

 Normal termination of Gaussian 16 at Fri Aug 22 16:36:04 2025.
