 Gaussian 16, Revision C.01,
 Gaussian 16:  ES64L-G16RevC.01  3-Jul-2019

 -----------------------------------------
 # sp b3lyp/6-311g** Force nosymm scf=(qc)
 -----------------------------------------

 -------------------
 Title Card Required
 -------------------
 Symbolic Z-matrix:
 Charge =  0 Multiplicity = 2

                          Input orientation:
 ---------------------------------------------------------------------
 Center     Atomic      Atomic             Coordinates (Angstroms)
 Number     Number       Type             X           Y           Z
 ---------------------------------------------------------------------
      1          1           0        0.000000    0.000000    0.000000
      2          1           0       -2.850000    0.000000    0.000000
      3          9           0        2.000000    0.000000    0.000000
 ---------------------------------------------------------------------

 SCF Done:  E(UB3LYP) =  -100.768559272     a.u. after   12 cycles

 Alpha  occ. eigenvalues --  -24.63600  -1.07883  -0.38480  -0.35387  -0.35277
 Alpha  occ. eigenvalues --   -0.35009
 Alpha virt. eigenvalues --   -0.22756   0.20793   0.26977   0.90424   0.97434
 Alpha virt. eigenvalues --    0.97437   1.09372   1.22121   1.22121   1.23074
 Alpha virt. eigenvalues --    1.23501   1.23501   1.54243   2.12916   2.14546

  Beta  occ. eigenvalues --  -24.63616  -1.07928  -0.38212  -0.35294  -0.35228
  Beta virt. eigenvalues --   -0.22853  -0.09126   0.24164   0.35783   0.90689
  Beta virt. eigenvalues --    0.97452   0.97454   1.09501   1.23968   1.23968
  Beta virt. eigenvalues --    1.42684   1.42934   1.42934   1.54892   2.15160

 Mulliken charges and spin densities:
               1          2
     1  H    0.276001   0.026870
     2  H    0.020743   0.978375
     3  F   -0.296744  -0.005246
 Sum of Mulliken charges =   0.00000   1.00000

 Dipole moment (field-independent basis, Debye):
    X=             -3.2808    Y=              0.0001    Z=              0.0001  Tot=              3.2808
 Quadrupole moment (field-independent basis, Debye-Ang):
   XX=            -11.2234   YY=             -7.5320   ZZ=             -7.5343
   XY=             -0.0000   XZ=             -0.0000   YZ=              0.0018

  Exact polarizability:      47.908       0.033       2.042       0.019      -0.057       2.115
 Approx polarizability:     106.488      -0.006       1.918      -0.003       0.001       1.917

 ******    2 imaginary frequencies (negative Signs) ******

                      1                      2                      3
                      A                      A                      A
 Frequencies --  -1325.9538              -235.6673               658.3559
 Red. masses --      1.0536                 1.0579                 1.0228
 Frc consts  --      1.0914                 0.0346                 0.2612
 IR Inten    --      1.5380                17.7559                73.0921

                      4
                      A
 Frequencies --    667.3223
 Red. masses --      1.0228
 Frc consts  --      0.2683
 IR Inten    --     68.9534

 - Thermochemistry -
 -------------------
 Temperature   298.150 Kelvin.  Pressure   1.00000 Atm.
 Atom     1 has atomic number  1 and mass   1.00783

 Molecular mass:    21.01405 amu.
 Principal axes and moments of inertia in atomic units:
                           1         2         3
     Eigenvalues --     0.00000  90.95456  90.95456
           X            1.00000  -0.00000   0.00000
           Y            0.00000   1.00000   0.00000
           Z            0.00000   0.00000   1.00000
 This molecule is a prolate symmetric top.
 Rotational symmetry number  1.
 Rotational temperature (Kelvin)      0.95228
 Rotational constant (GHZ):          19.842228
    2 imaginary frequencies ignored.
 Zero-point vibrational energy       7929.3 (Joules/Mol)
                                    1.89515 (Kcal/Mol)
 Vibrational temperatures:    947.23   960.13
          (Kelvin)

 Zero-point correction=                           0.003020 (Hartree/Particle)
 Thermal correction to Energy=                    0.005638
 Thermal correction to Enthalpy=                  0.006582
 Thermal correction to Gibbs Free Energy=        -0.017440
 Sum of electronic and zero-point Energies=           -100.765539
 Sum of electronic and thermal Energies=              -100.762922
 Sum of electronic and thermal Enthalpies=            -100.761977
 Sum of electronic and thermal Free Energies=         -100.786000

                     E (Thermal)             CV                S
                      KCal/Mol        Cal/Mol-Kelvin    Cal/Mol-Kelvin
 Total                    3.538              6.772             50.559
 Electronic               0.000              0.000              1.377
 Translational            0.889              2.981             35.068
 Rotational               0.592              1.987             13.407
 Vibrational              2.056              1.804              0.707

 Normal termination of Gaussian 16 at Fri Aug 22 16:57:13 2025.
