 Gaussian 16, Revision C.01,
 Gaussian 16:  ES64L-G16RevC.01  3-Jul-2019

 -----------------------------------------
 # sp b3lyp/6-311g** Force nosymm scf=(qc)
 -----------------------------------------

 -------------------
 Title Card Required
 -------------------
 Symbolic Z-matrix:
 Charge =  0 Multiplicity = 2

                          Input orientation:
 ---------------------------------------------------------------------
 Center     Atomic      Atomic             Coordinates (Angstroms)
 Number     Number       Type             X           Y           Z
 ---------------------------------------------------------------------
      1          1           0        0.000000    0.000000    0.000000
      2          1           0       -2.150000    0.000000    0.000000
      3          9           0        2.250000    0.000000    0.000000
 ---------------------------------------------------------------------

 SCF Done:  E(UB3LYP) =  -100.783930400     a.u. after   14 cycles

 Alpha  occ. eigenvalues --  -24.70081  -1.16365  -0.49158  -0.41299  -0.41299
 Alpha  occ. eigenvalues --   -0.35156
 Alpha virt. eigenvalues --   -0.13246   0.24537   0.31984   0.88965   0.94435
 Alpha virt. eigenvalues --    0.94435   1.06042   1.22702   1.22702   1.26923
 Alpha virt. eigenvalues --    1.34976   1.34976   1.49215   2.11587   2.31544

  Beta  occ. eigenvalues --  -24.67407  -1.08806  -0.38645  -0.38645  -0.36212
  Beta virt. eigenvalues --   -0.22413  -0.11259   0.26347   0.32801   0.93654
  Beta virt. eigenvalues --    0.95615   0.95615   1.08857   1.22311   1.22311
  Beta virt. eigenvalues --    1.36158   1.38085   1.38085   1.46021   2.11834

 Mulliken charges and spin densities:
               1          2
     1  H    0.101046  -0.762371
     2  H    0.029281   0.919822
     3  F   -0.130328   0.842548
 Sum of Mulliken charges =   0.00000   1.00000

 Dipole moment (field-independent basis, Debye):
    X=             -1.7784    Y=              0.0000    Z=             -0.0000  Tot=              1.7784
 Quadrupole moment (field-independent basis, Debye-Ang):
   XX=             -8.7293   YY=             -7.6021   ZZ=             -7.6021
   XY=              0.0000   XZ=             -0.0000   YZ=              0.0000

  Exact polarizability:      51.141       0.000       2.025      -0.000      -0.000       2.025
 Approx polarizability:      56.617      -0.000       1.931       0.000      -0.000       1.931

 ******    2 imaginary frequencies (negative Signs) ******

                      1                      2                      3
                      A                      A                      A
 Frequencies --  -1233.9246              -469.4570               503.4884
 Red. masses --      1.0155                 1.0994                 1.0174
 Frc consts  --      0.9109                 0.1428                 0.1520
 IR Inten    --     68.7430                44.8329                 6.9533

                      4
                      A
 Frequencies --    503.4884
 Red. masses --      1.0174
 Frc consts  --      0.1520
 IR Inten    --      6.9533

 - Thermochemistry -
 -------------------
 Temperature   298.150 Kelvin.  Pressure   1.00000 Atm.
 Atom     1 has atomic number  1 and mass   1.00783

 Molecular mass:    21.01405 amu.
 Principal axes and moments of inertia in atomic units:
                           1         2         3
     Eigenvalues --     0.00000  80.26368  80.26368
           X            1.00000  -0.00000   0.00000
           Y            0.00000   1.00000   0.00000
           Z            0.00000   0.00000   1.00000
 This molecule is a prolate symmetric top.
 Rotational symmetry number  1.
 Rotational temperature (Kelvin)      1.07912
 Rotational constant (GHZ):          22.485155
    2 imaginary frequencies ignored.
 Zero-point vibrational energy       6023.1 (Joules/Mol)
                                    1.43955 (Kcal/Mol)
 Warning -- explicit consideration of   2 degrees of freedom as
           vibrations may cause significant error
 Vibrational temperatures:    724.41   724.41
          (Kelvin)

 Zero-point correction=                           0.002294 (Hartree/Particle)
 Thermal correction to Energy=                    0.005098
 Thermal correction to Enthalpy=                  0.006042
 Thermal correction to Gibbs Free Energy=        -0.018144
 Sum of electronic and zero-point Energies=           -100.781636
 Sum of electronic and thermal Energies=              -100.778833
 Sum of electronic and thermal Enthalpies=            -100.777889
 Sum of electronic and thermal Free Energies=         -100.802074

                     E (Thermal)             CV                S
                      KCal/Mol        Cal/Mol-Kelvin    Cal/Mol-Kelvin
 Total                    3.199              7.453             50.903
 Electronic               0.000              0.000              1.377
 Translational            0.889              2.981             35.068
 Rotational               0.592              1.987             13.158
 Vibrational              1.718              2.485              1.299
 Vibration     1          0.859              1.242              0.649
 Vibration     2          0.859              1.242              0.649

 Normal termination of Gaussian 16 at Fri Aug 22 17:16:35 2025.
