 Gaussian 16, Revision C.01,
 Gaussian 16:  ES64L-G16RevC.01  3-Jul-2019

 -----------------------------------------
 # sp b3lyp/6-311g** Force nosymm scf=(qc)
 -----------------------------------------

 -------------------
 Title Card Required
 -------------------
 Symbolic Z-matrix:
 Charge =  0 Multiplicity = 2

                          Input orientation:
 ---------------------------------------------------------------------
 Center     Atomic      Atomic             Coordinates (Angstroms)
 Number     Number       Type             X           Y           Z
 ---------------------------------------------------------------------
      1          1           0        0.000000    0.000000    0.000000
      2          1           0       -2.800000    0.000000    0.000000
      3          9           0        1.550000    0.000000    0.000000
 ---------------------------------------------------------------------

 SCF Done:  E(UB3LYP) =  -100.844749871     a.u. after    7 cycles

 Alpha  occ. eigenvalues --  -24.64373  -1.09851  -0.43047  -0.36382  -0.36382
 Alpha  occ. eigenvalues --   -0.35045
 Alpha virt. eigenvalues --   -0.14782   0.21910   0.27384   0.93997   0.93997
 Alpha virt. eigenvalues --    1.02540   1.08517   1.22471   1.22471   1.23566
 Alpha virt. eigenvalues --    1.31607   1.31607   1.74525   2.13414   2.19975

  Beta  occ. eigenvalues --  -24.63949  -1.08722  -0.42044  -0.35978  -0.35978
  Beta virt. eigenvalues --   -0.16476  -0.08036   0.24001   0.36419   0.93824
  Beta virt. eigenvalues --    0.93824   1.03404   1.08470   1.29453   1.29453
  Beta virt. eigenvalues --    1.43712   1.43712   1.43724   1.73755   2.16698

 Mulliken charges and spin densities:
               1          2
     1  H    0.333935  -0.121817
     2  H    0.010805   0.987819
     3  F   -0.344740   0.133998
 Sum of Mulliken charges =  -0.00000   1.00000

 Dipole moment (field-independent basis, Debye):
    X=             -2.7620    Y=             -0.0000    Z=              0.0000  Tot=              2.7620
 Quadrupole moment (field-independent basis, Debye-Ang):
   XX=             -9.7031   YY=             -7.3528   ZZ=             -7.3528
   XY=             -0.0000   XZ=              0.0000   YZ=             -0.0000

  Exact polarizability:      21.904      -0.000       2.172       0.000       0.000       2.172
 Approx polarizability:      35.975      -0.000       2.094      -0.000       0.000       2.094

 ******    2 imaginary frequencies (negative Signs) ******

                      1                      2                      3
                      A                      A                      A
 Frequencies --  -1657.0876              -200.8261               956.8290
 Red. masses --      1.0534                 1.0582                 1.0264
 Frc consts  --      1.7043                 0.0251                 0.5537
 IR Inten    --      3.2788                 2.4233               100.9631

                      4
                      A
 Frequencies --    956.8290
 Red. masses --      1.0264
 Frc consts  --      0.5537
 IR Inten    --    100.9631

 - Thermochemistry -
 -------------------
 Temperature   298.150 Kelvin.  Pressure   1.00000 Atm.
 Atom     1 has atomic number  1 and mass   1.00783

 Molecular mass:    21.01405 amu.
 Principal axes and moments of inertia in atomic units:
                           1         2         3
     Eigenvalues --     0.00000  70.74041  70.74041
           X            1.00000  -0.00000   0.00000
           Y            0.00000   1.00000   0.00000
           Z            0.00000   0.00000   1.00000
 This molecule is a prolate symmetric top.
 Rotational symmetry number  1.
 Rotational temperature (Kelvin)      1.22439
 Rotational constant (GHZ):          25.512168
    2 imaginary frequencies ignored.
 Zero-point vibrational energy      11446.2 (Joules/Mol)
                                    2.73571 (Kcal/Mol)
 Vibrational temperatures:   1376.66  1376.66
          (Kelvin)

 Zero-point correction=                           0.004360 (Hartree/Particle)
 Thermal correction to Energy=                    0.006807
 Thermal correction to Enthalpy=                  0.007751
 Thermal correction to Gibbs Free Energy=        -0.015803
 Sum of electronic and zero-point Energies=           -100.840390
 Sum of electronic and thermal Energies=              -100.837943
 Sum of electronic and thermal Enthalpies=            -100.836999
 Sum of electronic and thermal Free Energies=         -100.860553

                     E (Thermal)             CV                S
                      KCal/Mol        Cal/Mol-Kelvin    Cal/Mol-Kelvin
 Total                    4.272              5.822             49.575
 Electronic               0.000              0.000              1.377
 Translational            0.889              2.981             35.068
 Rotational               0.592              1.987             12.907
 Vibrational              2.790              0.854              0.223

 Normal termination of Gaussian 16 at Fri Aug 22 16:28:57 2025.
