 Gaussian 16, Revision C.01,
 Gaussian 16:  ES64L-G16RevC.01  3-Jul-2019

 -----------------------------------------
 # sp b3lyp/6-311g** Force nosymm scf=(qc)
 -----------------------------------------

 -------------------
 Title Card Required
 -------------------
 Symbolic Z-matrix:
 Charge =  0 Multiplicity = 2

                          Input orientation:
 ---------------------------------------------------------------------
 Center     Atomic      Atomic             Coordinates (Angstroms)
 Number     Number       Type             X           Y           Z
 ---------------------------------------------------------------------
      1          1           0        0.000000    0.000000    0.000000
      2          1           0       -0.950000    0.000000    0.000000
      3          9           0        3.950000    0.000000    0.000000
 ---------------------------------------------------------------------

 SCF Done:  E(UB3LYP) =  -100.914679543     a.u. after   69 cycles

 Alpha  occ. eigenvalues --  -24.76192  -1.22091  -0.55294  -0.46468  -0.46451
 Alpha  occ. eigenvalues --   -0.39631
 Alpha virt. eigenvalues --    0.01479   0.21091   0.40147   0.86074   0.90951
 Alpha virt. eigenvalues --    0.91498   1.00975   1.08693   1.08695   1.41513
 Alpha virt. eigenvalues --    1.69011   1.69013   2.20544   2.36706   2.64681

  Beta  occ. eigenvalues --  -24.73037  -1.13017  -0.43306  -0.43287  -0.39630
  Beta virt. eigenvalues --   -0.25944   0.01481   0.21094   0.40161   0.92452
  Beta virt. eigenvalues --    0.92990   0.95540   1.05121   1.08693   1.08695
  Beta virt. eigenvalues --    1.41515   1.69011   1.69013   2.20548   2.36706

 Mulliken charges and spin densities:
               1          2
     1  H    0.000716  -0.000100
     2  H   -0.001804  -0.000017
     3  F    0.001088   1.000117
 Sum of Mulliken charges =   0.00000   1.00000

 Dipole moment (field-independent basis, Debye):
    X=              0.0203    Y=             -0.0000    Z=              0.0000  Tot=              0.0203
 Quadrupole moment (field-independent basis, Debye-Ang):
   XX=             -6.3397   YY=             -7.1927   ZZ=             -6.3658
   XY=              0.0000   XZ=             -0.0000   YZ=             -0.1263

  Exact polarizability:      11.066       0.000       2.054      -0.000      -0.068       2.501
 Approx polarizability:      14.216       0.000       2.112      -0.000      -0.085       2.670

 ******    1 imaginary frequencies (negative Signs) ******

                      1                      2                      3
                      A                      A                      A
 Frequencies --    -60.8266              1515.3983              1517.7029
 Red. masses --      1.1085                 1.0090                 1.0090
 Frc consts  --      0.0024                 1.3652                 1.3693
 IR Inten    --      0.0404                 0.0020                 0.0005

                      4
                      A
 Frequencies --   2200.1219
 Red. masses --      1.0078
 Frc consts  --      2.8743
 IR Inten    --      0.0385

 - Thermochemistry -
 -------------------
 Temperature   298.150 Kelvin.  Pressure   1.00000 Atm.
 Atom     1 has atomic number  1 and mass   1.00783

 Molecular mass:    21.01405 amu.
 Principal axes and moments of inertia in atomic units:
                           1         2         3
     Eigenvalues --     0.00000 129.04672 129.04672
           X            1.00000  -0.00000   0.00000
           Y            0.00000   1.00000   0.00000
           Z            0.00000   0.00000   1.00000
 This molecule is a prolate symmetric top.
 Rotational symmetry number  1.
 Rotational temperature (Kelvin)      0.67118
 Rotational constant (GHZ):          13.985177
    1 imaginary frequencies ignored.
 Zero-point vibrational energy      31301.6 (Joules/Mol)
                                    7.48127 (Kcal/Mol)
 Vibrational temperatures:   2180.32  2183.64  3165.48
          (Kelvin)

 Zero-point correction=                           0.011922 (Hartree/Particle)
 Thermal correction to Energy=                    0.014292
 Thermal correction to Enthalpy=                  0.015236
 Thermal correction to Gibbs Free Energy=        -0.008791
 Sum of electronic and zero-point Energies=           -100.902757
 Sum of electronic and thermal Energies=              -100.900388
 Sum of electronic and thermal Enthalpies=            -100.899443
 Sum of electronic and thermal Free Energies=         -100.923471

                     E (Thermal)             CV                S
                      KCal/Mol        Cal/Mol-Kelvin    Cal/Mol-Kelvin
 Total                    8.968              5.115             50.570
 Electronic               0.000              0.000              1.377
 Translational            0.889              2.981             35.068
 Rotational               0.592              1.987             14.102
 Vibrational              7.487              0.147              0.023

 Normal termination of Gaussian 16 at Sat Aug 23 01:30:49 2025.
