 Gaussian 16, Revision C.01,
 Gaussian 16:  ES64L-G16RevC.01  3-Jul-2019

 -----------------------------------------
 # sp b3lyp/6-311g** Force nosymm scf=(qc)
 -----------------------------------------

 -------------------
 Title Card Required
 -------------------
 Symbolic Z-matrix:
 Charge =  0 Multiplicity = 2

                          Input orientation:
 ---------------------------------------------------------------------
 Center     Atomic      Atomic             Coordinates (Angstroms)
 Number     Number       Type             X           Y           Z
 ---------------------------------------------------------------------
      1          1           0        0.000000    0.000000    0.000000
      2          1           0       -1.850000    0.000000    0.000000
      3          9           0        3.050000    0.000000    0.000000
 ---------------------------------------------------------------------

 SCF Done:  E(UB3LYP) =  -100.783975044     a.u. after   30 cycles

 Alpha  occ. eigenvalues --  -24.74677  -1.20690  -0.53798  -0.45173  -0.45173
 Alpha  occ. eigenvalues --   -0.33830
 Alpha virt. eigenvalues --   -0.11699   0.25405   0.31064   0.89417   0.91902
 Alpha virt. eigenvalues --    0.91902   1.03627   1.11094   1.23957   1.23957
 Alpha virt. eigenvalues --    1.36538   1.36538   1.57668   2.13378   2.38761

  Beta  occ. eigenvalues --  -24.71618  -1.11916  -0.42110  -0.42110  -0.33818
  Beta virt. eigenvalues --   -0.25209  -0.11310   0.25832   0.31420   0.93372
  Beta virt. eigenvalues --    0.93372   0.98186   1.07472   1.11349   1.23952
  Beta virt. eigenvalues --    1.23952   1.37054   1.37054   1.58126   2.14412

 Mulliken charges and spin densities:
               1          2
     1  H    0.010380  -0.742333
     2  H    0.016176   0.773007
     3  F   -0.026556   0.969326
 Sum of Mulliken charges =   0.00000   1.00000

 Dipole moment (field-independent basis, Debye):
    X=             -0.5572    Y=             -0.0000    Z=              0.0000  Tot=              0.5572
 Quadrupole moment (field-independent basis, Debye-Ang):
   XX=             -6.9591   YY=             -7.7331   ZZ=             -7.7331
   XY=             -0.0000   XZ=              0.0000   YZ=             -0.0000

  Exact polarizability:      59.283      -0.000       2.008       0.000      -0.000       2.008
 Approx polarizability:      58.840      -0.000       1.947       0.000      -0.000       1.947

 ******    2 imaginary frequencies (negative Signs) ******

                      1                      2                      3
                      A                      A                      A
 Frequencies --  -1644.4339              -220.4886               703.9370
 Red. masses --      1.0079                 1.1084                 1.0130
 Frc consts  --      1.6058                 0.0317                 0.2958
 IR Inten    --     57.8191                25.1498                 0.0125

                      4
                      A
 Frequencies --    703.9370
 Red. masses --      1.0130
 Frc consts  --      0.2958
 IR Inten    --      0.0125

 - Thermochemistry -
 -------------------
 Temperature   298.150 Kelvin.  Pressure   1.00000 Atm.
 Atom     1 has atomic number  1 and mass   1.00783

 Molecular mass:    21.01405 amu.
 Principal axes and moments of inertia in atomic units:
                           1         2         3
     Eigenvalues --     0.00000 108.98278 108.98278
           X            1.00000  -0.00000   0.00000
           Y            0.00000   1.00000   0.00000
           Z            0.00000   0.00000   1.00000
 This molecule is a prolate symmetric top.
 Rotational symmetry number  1.
 Rotational temperature (Kelvin)      0.79475
 Rotational constant (GHZ):          16.559874
    2 imaginary frequencies ignored.
 Zero-point vibrational energy       8421.0 (Joules/Mol)
                                    2.01266 (Kcal/Mol)
 Vibrational temperatures:   1012.81  1012.81
          (Kelvin)

 Zero-point correction=                           0.003207 (Hartree/Particle)
 Thermal correction to Energy=                    0.005790
 Thermal correction to Enthalpy=                  0.006734
 Thermal correction to Gibbs Free Energy=        -0.017409
 Sum of electronic and zero-point Energies=           -100.780768
 Sum of electronic and thermal Energies=              -100.778185
 Sum of electronic and thermal Enthalpies=            -100.777241
 Sum of electronic and thermal Free Energies=         -100.801384

                     E (Thermal)             CV                S
                      KCal/Mol        Cal/Mol-Kelvin    Cal/Mol-Kelvin
 Total                    3.633              6.611             50.814
 Electronic               0.000              0.000              1.377
 Translational            0.889              2.981             35.068
 Rotational               0.592              1.987             13.766
 Vibrational              2.152              1.643              0.603

 Normal termination of Gaussian 16 at Fri Aug 22 19:43:21 2025.
