 Gaussian 16, Revision C.01,
 Gaussian 16:  ES64L-G16RevC.01  3-Jul-2019

 -----------------------------------------
 # sp b3lyp/6-311g** Force nosymm scf=(qc)
 -----------------------------------------

 -------------------
 Title Card Required
 -------------------
 Symbolic Z-matrix:
 Charge =  0 Multiplicity = 2

                          Input orientation:
 ---------------------------------------------------------------------
 Center     Atomic      Atomic             Coordinates (Angstroms)
 Number     Number       Type             X           Y           Z
 ---------------------------------------------------------------------
      1          1           0        0.000000    0.000000    0.000000
      2          1           0       -3.650000    0.000000    0.000000
      3          9           0        3.100000    0.000000    0.000000
 ---------------------------------------------------------------------

 SCF Done:  E(UB3LYP) =  -100.760362321     a.u. after   20 cycles

 Alpha  occ. eigenvalues --  -24.74418  -1.20453  -0.53538  -0.44953  -0.44953
 Alpha  occ. eigenvalues --   -0.32461
 Alpha virt. eigenvalues --   -0.07673   0.23996   0.36352   0.89020   0.92075
 Alpha virt. eigenvalues --    0.92075   1.03349   1.25040   1.25040   1.25128
 Alpha virt. eigenvalues --    1.44552   1.44552   1.44823   2.14681   2.40769

  Beta  occ. eigenvalues --  -24.71367  -1.11705  -0.41899  -0.41899  -0.33496
  Beta virt. eigenvalues --   -0.24961  -0.06313   0.23850   0.38032   0.93544
  Beta virt. eigenvalues --    0.93544   0.97830   1.07150   1.23852   1.23852
  Beta virt. eigenvalues --    1.24079   1.46126   1.46349   1.46349   2.14911

 Mulliken charges and spin densities:
               1          2
     1  H    0.030081  -0.965328
     2  H    0.000259   0.998568
     3  F   -0.030340   0.966760
 Sum of Mulliken charges =  -0.00000   1.00000

 Dipole moment (field-independent basis, Debye):
    X=             -0.4877    Y=              0.0000    Z=              0.0000  Tot=              0.4877
 Quadrupole moment (field-independent basis, Debye-Ang):
   XX=             -8.1208   YY=             -7.6114   ZZ=             -7.6114
   XY=             -0.0000   XZ=             -0.0000   YZ=             -0.0000

  Exact polarizability:      30.658      -0.000       2.028      -0.000      -0.000       2.028
 Approx polarizability:      29.730      -0.000       1.928      -0.000       0.000       1.928

 ******    2 imaginary frequencies (negative Signs) ******

                      1                      2                      3
                      A                      A                      A
 Frequencies --   -335.7254              -100.1129               115.4726
 Red. masses --      1.0476                 1.0640                 1.0200
 Frc consts  --      0.0696                 0.0063                 0.0080
 IR Inten    --     32.6501                 0.4147                 0.8495

                      4
                      A
 Frequencies --    115.4726
 Red. masses --      1.0200
 Frc consts  --      0.0080
 IR Inten    --      0.8495

 - Thermochemistry -
 -------------------
 Temperature   298.150 Kelvin.  Pressure   1.00000 Atm.
 Atom     1 has atomic number  1 and mass   1.00783

 Molecular mass:    21.01405 amu.
 Principal axes and moments of inertia in atomic units:
                           1         2         3
     Eigenvalues --     0.00000 181.81954 181.81954
           X            1.00000  -0.00000   0.00000
           Y            0.00000   1.00000   0.00000
           Z            0.00000   0.00000   1.00000
 This molecule is a prolate symmetric top.
 Rotational symmetry number  1.
 Rotational temperature (Kelvin)      0.47637
 Rotational constant (GHZ):           9.926002
    2 imaginary frequencies ignored.
 Zero-point vibrational energy       1381.4 (Joules/Mol)
                                    0.33015 (Kcal/Mol)
 Warning -- explicit consideration of   2 degrees of freedom as
           vibrations may cause significant error
 Vibrational temperatures:    166.14   166.14
          (Kelvin)

 Zero-point correction=                           0.000526 (Hartree/Particle)
 Thermal correction to Energy=                    0.004297
 Thermal correction to Enthalpy=                  0.005242
 Thermal correction to Gibbs Free Energy=        -0.022116
 Sum of electronic and zero-point Energies=           -100.759836
 Sum of electronic and thermal Energies=              -100.756065
 Sum of electronic and thermal Enthalpies=            -100.755121
 Sum of electronic and thermal Free Energies=         -100.782478

                     E (Thermal)             CV                S
                      KCal/Mol        Cal/Mol-Kelvin    Cal/Mol-Kelvin
 Total                    2.697              8.841             57.578
 Electronic               0.000              0.000              1.377
 Translational            0.889              2.981             35.068
 Rotational               0.592              1.987             14.783
 Vibrational              1.215              3.873              6.350
 Vibration     1          0.608              1.937              3.175
 Vibration     2          0.608              1.937              3.175

 Normal termination of Gaussian 16 at Fri Aug 22 19:56:29 2025.
