 Gaussian 16, Revision C.01,
 Gaussian 16:  ES64L-G16RevC.01  3-Jul-2019

 -----------------------------------------
 # sp b3lyp/6-311g** Force nosymm scf=(qc)
 -----------------------------------------

 -------------------
 Title Card Required
 -------------------
 Symbolic Z-matrix:
 Charge =  0 Multiplicity = 2

                          Input orientation:
 ---------------------------------------------------------------------
 Center     Atomic      Atomic             Coordinates (Angstroms)
 Number     Number       Type             X           Y           Z
 ---------------------------------------------------------------------
      1          1           0        0.000000    0.000000    0.000000
      2          1           0       -1.750000    0.000000    0.000000
      3          9           0        1.100000    0.000000    0.000000
 ---------------------------------------------------------------------

 SCF Done:  E(UB3LYP) =  -100.950829948     a.u. after    6 cycles

 Alpha  occ. eigenvalues --  -24.63562  -1.13416  -0.50052  -0.37529  -0.37529
 Alpha  occ. eigenvalues --   -0.37007
 Alpha virt. eigenvalues --    0.02187   0.22543   0.30682   0.94051   0.94051
 Alpha virt. eigenvalues --    0.99936   1.10621   1.19083   1.19083   1.37183
 Alpha virt. eigenvalues --    1.37183   1.51770   1.81949   2.22800   2.34927

  Beta  occ. eigenvalues --  -24.63353  -1.12893  -0.48790  -0.37342  -0.37342
  Beta virt. eigenvalues --   -0.15291   0.05134   0.28638   0.33723   0.94092
  Beta virt. eigenvalues --    0.94092   1.00530   1.19639   1.31932   1.31932
  Beta virt. eigenvalues --    1.41690   1.41690   1.56196   1.88435   2.32838

 Mulliken charges and spin densities:
               1          2
     1  H    0.314599  -0.005285
     2  H    0.032303   0.945958
     3  F   -0.346902   0.059327
 Sum of Mulliken charges =   0.00000   1.00000

 Dipole moment (field-independent basis, Debye):
    X=             -2.4775    Y=              0.0000    Z=             -0.0000  Tot=              2.4775
 Quadrupole moment (field-independent basis, Debye-Ang):
   XX=             -7.8936   YY=             -6.9685   ZZ=             -6.9685
   XY=              0.0000   XZ=             -0.0000   YZ=             -0.0000

  Exact polarizability:      14.355       0.000       2.448       0.000       0.000       2.448
 Approx polarizability:      16.528       0.000       2.426       0.000       0.000       2.426

 ******    1 imaginary frequencies (negative Signs) ******

                      1                      2                      3
                      A                      A                      A
 Frequencies --   -325.1971              1114.2989              1114.2989
 Red. masses --      1.0407                 1.0244                 1.0244
 Frc consts  --      0.0648                 0.7494                 0.7494
 IR Inten    --     13.9149               104.9681               104.9681

                      4
                      A
 Frequencies --   1715.0677
 Red. masses --      1.0712
 Frc consts  --      1.8565
 IR Inten    --    216.6308

 - Thermochemistry -
 -------------------
 Temperature   298.150 Kelvin.  Pressure   1.00000 Atm.
 Atom     1 has atomic number  1 and mass   1.00783

 Molecular mass:    21.01405 amu.
 Principal axes and moments of inertia in atomic units:
                           1         2         3
     Eigenvalues --     0.00000  30.89465  30.89465
           X            1.00000  -0.00000   0.00000
           Y            0.00000   1.00000   0.00000
           Z            0.00000   0.00000   1.00000
 This molecule is a prolate symmetric top.
 Rotational symmetry number  1.
 Rotational temperature (Kelvin)      2.80353
 Rotational constant (GHZ):          58.415982
    1 imaginary frequencies ignored.
 Zero-point vibrational energy      23588.4 (Joules/Mol)
                                    5.63775 (Kcal/Mol)
 Vibrational temperatures:   1603.23  1603.23  2467.60
          (Kelvin)

 Zero-point correction=                           0.008984 (Hartree/Particle)
 Thermal correction to Energy=                    0.011394
 Thermal correction to Enthalpy=                  0.012338
 Thermal correction to Gibbs Free Energy=        -0.010387
 Sum of electronic and zero-point Energies=           -100.941846
 Sum of electronic and thermal Energies=              -100.939436
 Sum of electronic and thermal Enthalpies=            -100.938492
 Sum of electronic and thermal Free Energies=         -100.961217

                     E (Thermal)             CV                S
                      KCal/Mol        Cal/Mol-Kelvin    Cal/Mol-Kelvin
 Total                    7.150              5.539             47.829
 Electronic               0.000              0.000              1.377
 Translational            0.889              2.981             35.068
 Rotational               0.592              1.987             11.261
 Vibrational              5.669              0.571              0.122

 Normal termination of Gaussian 16 at Fri Aug 22 16:05:09 2025.
