 Gaussian 16, Revision C.01,
 Gaussian 16:  ES64L-G16RevC.01  3-Jul-2019

 -----------------------------------------
 # sp b3lyp/6-311g** Force nosymm scf=(qc)
 -----------------------------------------

 -------------------
 Title Card Required
 -------------------
 Symbolic Z-matrix:
 Charge =  0 Multiplicity = 2

                          Input orientation:
 ---------------------------------------------------------------------
 Center     Atomic      Atomic             Coordinates (Angstroms)
 Number     Number       Type             X           Y           Z
 ---------------------------------------------------------------------
      1          1           0        0.000000    0.000000    0.000000
      2          1           0       -3.550000    0.000000    0.000000
      3          9           0        3.500000    0.000000    0.000000
 ---------------------------------------------------------------------

 SCF Done:  E(UB3LYP) =  -100.759093535     a.u. after   33 cycles

 Alpha  occ. eigenvalues --  -24.75383  -1.21346  -0.54506  -0.45764  -0.45764
 Alpha  occ. eigenvalues --   -0.32334
 Alpha virt. eigenvalues --   -0.06927   0.24249   0.37047   0.87598   0.91483
 Alpha virt. eigenvalues --    0.91483   1.01816   1.25169   1.25169   1.25296
 Alpha virt. eigenvalues --    1.45361   1.45362   1.45362   2.14952   2.41360

  Beta  occ. eigenvalues --  -24.72269  -1.12399  -0.42643  -0.42643  -0.32825
  Beta virt. eigenvalues --   -0.25481  -0.06396   0.24012   0.37984   0.92972
  Beta virt. eigenvalues --    0.92972   0.96733   1.05823   1.24607   1.24607
  Beta virt. eigenvalues --    1.24715   1.45988   1.46215   1.46215   2.15147

 Mulliken charges and spin densities:
               1          2
     1  H    0.011418  -0.985406
     2  H    0.000159   0.998132
     3  F   -0.011577   0.987274
 Sum of Mulliken charges =  -0.00000   1.00000

 Dipole moment (field-independent basis, Debye):
    X=             -0.2111    Y=              0.0000    Z=              0.0000  Tot=              0.2111
 Quadrupole moment (field-independent basis, Debye-Ang):
   XX=             -7.4021   YY=             -7.6210   ZZ=             -7.6210
   XY=              0.0000   XZ=              0.0000   YZ=             -0.0000

  Exact polarizability:      23.519       0.000       2.035       0.000      -0.000       2.035
 Approx polarizability:      18.632       0.000       1.933       0.000       0.000       1.933

 ******    2 imaginary frequencies (negative Signs) ******

                      1                      2                      3
                      A                      A                      A
 Frequencies --   -240.0463               -99.5459                73.1890
 Red. masses --      1.0298                 1.0831                 1.0181
 Frc consts  --      0.0350                 0.0063                 0.0032
 IR Inten    --     10.5395                 1.0575                 0.1153

                      4
                      A
 Frequencies --     73.1890
 Red. masses --      1.0181
 Frc consts  --      0.0032
 IR Inten    --      0.1153

 - Thermochemistry -
 -------------------
 Temperature   298.150 Kelvin.  Pressure   1.00000 Atm.
 Atom     1 has atomic number  1 and mass   1.00783

 Molecular mass:    21.01405 amu.
 Principal axes and moments of inertia in atomic units:
                           1         2         3
     Eigenvalues --     0.00000 203.75600 203.75600
           X            1.00000  -0.00000   0.00000
           Y            0.00000   1.00000   0.00000
           Z            0.00000   0.00000   1.00000
 This molecule is a prolate symmetric top.
 Rotational symmetry number  1.
 Rotational temperature (Kelvin)      0.42509
 Rotational constant (GHZ):           8.857365
    2 imaginary frequencies ignored.
 Zero-point vibrational energy        875.5 (Joules/Mol)
                                    0.20926 (Kcal/Mol)
 Warning -- explicit consideration of   2 degrees of freedom as
           vibrations may cause significant error
 Vibrational temperatures:    105.30   105.30
          (Kelvin)

 Zero-point correction=                           0.000333 (Hartree/Particle)
 Thermal correction to Energy=                    0.004268
 Thermal correction to Enthalpy=                  0.005213
 Thermal correction to Gibbs Free Energy=        -0.023099
 Sum of electronic and zero-point Energies=           -100.758760
 Sum of electronic and thermal Energies=              -100.754825
 Sum of electronic and thermal Enthalpies=            -100.753881
 Sum of electronic and thermal Free Energies=         -100.782192

                     E (Thermal)             CV                S
                      KCal/Mol        Cal/Mol-Kelvin    Cal/Mol-Kelvin
 Total                    2.678              8.901             59.586
 Electronic               0.000              0.000              1.377
 Translational            0.889              2.981             35.068
 Rotational               0.592              1.987             15.009
 Vibrational              1.197              3.933              8.131
 Vibration     1          0.599              1.967              4.066
 Vibration     2          0.599              1.967              4.066

 Normal termination of Gaussian 16 at Fri Aug 22 22:11:24 2025.
