 Gaussian 16, Revision C.01,
 Gaussian 16:  ES64L-G16RevC.01  3-Jul-2019

 -----------------------------------------
 # sp b3lyp/6-311g** Force nosymm scf=(qc)
 -----------------------------------------

 -------------------
 Title Card Required
 -------------------
 Symbolic Z-matrix:
 Charge =  0 Multiplicity = 2

                          Input orientation:
 ---------------------------------------------------------------------
 Center     Atomic      Atomic             Coordinates (Angstroms)
 Number     Number       Type             X           Y           Z
 ---------------------------------------------------------------------
      1          1           0        0.000000    0.000000    0.000000
      2          1           0       -2.400000    0.000000    0.000000
      3          9           0        1.950000    0.000000    0.000000
 ---------------------------------------------------------------------

 SCF Done:  E(UB3LYP) =  -100.795224467     a.u. after   12 cycles

 Alpha  occ. eigenvalues --  -24.67670  -1.13979  -0.46648  -0.39266  -0.39266
 Alpha  occ. eigenvalues --   -0.35268
 Alpha virt. eigenvalues --   -0.14024   0.23967   0.30460   0.90270   0.95021
 Alpha virt. eigenvalues --    0.95021   1.06170   1.22418   1.22418   1.26140
 Alpha virt. eigenvalues --    1.34492   1.34492   1.62564   2.13030   2.28146

  Beta  occ. eigenvalues --  -24.65388  -1.07618  -0.37972  -0.37021  -0.37021
  Beta virt. eigenvalues --   -0.20551  -0.10280   0.24981   0.34153   0.92229
  Beta virt. eigenvalues --    0.95544   0.95544   1.08737   1.22788   1.22788
  Beta virt. eigenvalues --    1.40284   1.40284   1.42493   1.56837   2.13039

 Mulliken charges and spin densities:
               1          2
     1  H    0.183929  -0.678565
     2  H    0.022922   0.961045
     3  F   -0.206851   0.717521
 Sum of Mulliken charges =   0.00000   1.00000

 Dipole moment (field-independent basis, Debye):
    X=             -2.2526    Y=              0.0000    Z=              0.0000  Tot=              2.2526
 Quadrupole moment (field-independent basis, Debye-Ang):
   XX=             -9.3264   YY=             -7.5145   ZZ=             -7.5145
   XY=             -0.0000   XZ=             -0.0000   YZ=              0.0000

  Exact polarizability:      38.882      -0.000       2.067      -0.000       0.000       2.067
 Approx polarizability:      47.097      -0.000       1.961      -0.000      -0.000       1.961

 ******    2 imaginary frequencies (negative Signs) ******

                      1                      2                      3
                      A                      A                      A
 Frequencies --  -1321.5307              -436.3142               554.4808
 Red. masses --      1.0412                 1.0708                 1.0206
 Frc consts  --      1.0714                 0.1201                 0.1849
 IR Inten    --     92.2187                18.7528                26.9442

                      4
                      A
 Frequencies --    554.4808
 Red. masses --      1.0206
 Frc consts  --      0.1849
 IR Inten    --     26.9442

 - Thermochemistry -
 -------------------
 Temperature   298.150 Kelvin.  Pressure   1.00000 Atm.
 Atom     1 has atomic number  1 and mass   1.00783

 Molecular mass:    21.01405 amu.
 Principal axes and moments of inertia in atomic units:
                           1         2         3
     Eigenvalues --     0.00000  74.93670  74.93670
           X            1.00000  -0.00000   0.00000
           Y            0.00000   1.00000   0.00000
           Z            0.00000   0.00000   1.00000
 This molecule is a prolate symmetric top.
 Rotational symmetry number  1.
 Rotational temperature (Kelvin)      1.15583
 Rotational constant (GHZ):          24.083542
    2 imaginary frequencies ignored.
 Zero-point vibrational energy       6633.1 (Joules/Mol)
                                    1.58534 (Kcal/Mol)
 Warning -- explicit consideration of   2 degrees of freedom as
           vibrations may cause significant error
 Vibrational temperatures:    797.77   797.77
          (Kelvin)

 Zero-point correction=                           0.002526 (Hartree/Particle)
 Thermal correction to Energy=                    0.005261
 Thermal correction to Enthalpy=                  0.006205
 Thermal correction to Gibbs Free Energy=        -0.017807
 Sum of electronic and zero-point Energies=           -100.792698
 Sum of electronic and thermal Energies=              -100.789964
 Sum of electronic and thermal Enthalpies=            -100.789020
 Sum of electronic and thermal Free Energies=         -100.813032

                     E (Thermal)             CV                S
                      KCal/Mol        Cal/Mol-Kelvin    Cal/Mol-Kelvin
 Total                    3.301              7.228             50.537
 Electronic               0.000              0.000              1.377
 Translational            0.889              2.981             35.068
 Rotational               0.592              1.987             13.022
 Vibrational              1.820              2.260              1.070
 Vibration     1          0.910              1.130              0.535
 Vibration     2          0.910              1.130              0.535

 Normal termination of Gaussian 16 at Fri Aug 22 16:53:39 2025.
