 Gaussian 16, Revision C.01,
 Gaussian 16:  ES64L-G16RevC.01  3-Jul-2019

 -----------------------------------------
 # sp b3lyp/6-311g** Force nosymm scf=(qc)
 -----------------------------------------

 -------------------
 Title Card Required
 -------------------
 Symbolic Z-matrix:
 Charge =  0 Multiplicity = 2

                          Input orientation:
 ---------------------------------------------------------------------
 Center     Atomic      Atomic             Coordinates (Angstroms)
 Number     Number       Type             X           Y           Z
 ---------------------------------------------------------------------
      1          1           0        0.000000    0.000000    0.000000
      2          1           0       -3.150000    0.000000    0.000000
      3          9           0        3.500000    0.000000    0.000000
 ---------------------------------------------------------------------

 SCF Done:  E(UB3LYP) =  -100.759624214     a.u. after   29 cycles

 Alpha  occ. eigenvalues --  -24.75395  -1.21358  -0.54518  -0.45774  -0.45774
 Alpha  occ. eigenvalues --   -0.32406
 Alpha virt. eigenvalues --   -0.07696   0.24715   0.36344   0.87609   0.91475
 Alpha virt. eigenvalues --    0.91475   1.01814   1.25117   1.25117   1.25592
 Alpha virt. eigenvalues --    1.44252   1.44376   1.44376   2.15520   2.40054

  Beta  occ. eigenvalues --  -24.72281  -1.12409  -0.42653  -0.42653  -0.32856
  Beta virt. eigenvalues --   -0.25490  -0.07151   0.24493   0.37217   0.92964
  Beta virt. eigenvalues --    0.92964   0.96752   1.05830   1.24597   1.24597
  Beta virt. eigenvalues --    1.25041   1.45080   1.45250   1.45250   2.15794

 Mulliken charges and spin densities:
               1          2
     1  H    0.010946  -0.982314
     2  H    0.000451   0.994893
     3  F   -0.011397   0.987421
 Sum of Mulliken charges =  -0.00000   1.00000

 Dipole moment (field-independent basis, Debye):
    X=             -0.2120    Y=             -0.0000    Z=              0.0000  Tot=              0.2120
 Quadrupole moment (field-independent basis, Debye-Ang):
   XX=             -7.3463   YY=             -7.6293   ZZ=             -7.6293
   XY=             -0.0000   XZ=              0.0000   YZ=              0.0000

  Exact polarizability:      25.177      -0.000       2.032       0.000       0.000       2.032
 Approx polarizability:      19.713      -0.000       1.932       0.000      -0.000       1.932

 ******    2 imaginary frequencies (negative Signs) ******

                      1                      2                      3
                      A                      A                      A
 Frequencies --   -311.4761              -124.7522               104.7138
 Red. masses --      1.0140                 1.1012                 1.0167
 Frc consts  --      0.0580                 0.0101                 0.0066
 IR Inten    --      8.3979                 3.2479                 0.1012

                      4
                      A
 Frequencies --    104.7138
 Red. masses --      1.0167
 Frc consts  --      0.0066
 IR Inten    --      0.1012

 - Thermochemistry -
 -------------------
 Temperature   298.150 Kelvin.  Pressure   1.00000 Atm.
 Atom     1 has atomic number  1 and mass   1.00783

 Molecular mass:    21.01405 amu.
 Principal axes and moments of inertia in atomic units:
                           1         2         3
     Eigenvalues --     0.00000 185.46261 185.46261
           X            1.00000  -0.00000   0.00000
           Y            0.00000   1.00000   0.00000
           Z            0.00000   0.00000   1.00000
 This molecule is a prolate symmetric top.
 Rotational symmetry number  1.
 Rotational temperature (Kelvin)      0.46702
 Rotational constant (GHZ):           9.731024
    2 imaginary frequencies ignored.
 Zero-point vibrational energy       1252.7 (Joules/Mol)
                                    0.29939 (Kcal/Mol)
 Warning -- explicit consideration of   2 degrees of freedom as
           vibrations may cause significant error
 Vibrational temperatures:    150.66   150.66
          (Kelvin)

 Zero-point correction=                           0.000477 (Hartree/Particle)
 Thermal correction to Energy=                    0.004289
 Thermal correction to Enthalpy=                  0.005233
 Thermal correction to Gibbs Free Energy=        -0.022323
 Sum of electronic and zero-point Energies=           -100.759147
 Sum of electronic and thermal Energies=              -100.755335
 Sum of electronic and thermal Enthalpies=            -100.754391
 Sum of electronic and thermal Free Energies=         -100.781948

                     E (Thermal)             CV                S
                      KCal/Mol        Cal/Mol-Kelvin    Cal/Mol-Kelvin
 Total                    2.691              8.859             57.997
 Electronic               0.000              0.000              1.377
 Translational            0.889              2.981             35.068
 Rotational               0.592              1.987             14.823
 Vibrational              1.210              3.891              6.729
 Vibration     1          0.605              1.945              3.365
 Vibration     2          0.605              1.945              3.365

 Normal termination of Gaussian 16 at Fri Aug 22 22:10:48 2025.
