 Gaussian 16, Revision C.01,
 Gaussian 16:  ES64L-G16RevC.01  3-Jul-2019

 -----------------------------------------
 # sp b3lyp/6-311g** Force nosymm scf=(qc)
 -----------------------------------------

 -------------------
 Title Card Required
 -------------------
 Symbolic Z-matrix:
 Charge =  0 Multiplicity = 2

                          Input orientation:
 ---------------------------------------------------------------------
 Center     Atomic      Atomic             Coordinates (Angstroms)
 Number     Number       Type             X           Y           Z
 ---------------------------------------------------------------------
      1          1           0        0.000000    0.000000    0.000000
      2          1           0       -2.050000    0.000000    0.000000
      3          9           0        3.750000    0.000000    0.000000
 ---------------------------------------------------------------------

 SCF Done:  E(UB3LYP) =  -100.772292485     a.u. after  207 cycles

 Alpha  occ. eigenvalues --  -24.75837  -1.21769  -0.54962  -0.46152  -0.46152
 Alpha  occ. eigenvalues --   -0.32915
 Alpha virt. eigenvalues --   -0.10723   0.25979   0.32751   0.86915   0.91184
 Alpha virt. eigenvalues --    0.91184   1.01245   1.19088   1.25046   1.25046
 Alpha virt. eigenvalues --    1.38406   1.38406   1.49485   2.13339   2.35983

  Beta  occ. eigenvalues --  -24.72698  -1.12745  -0.43005  -0.43005  -0.32985
  Beta virt. eigenvalues --   -0.25750  -0.10554   0.25839   0.33051   0.92681
  Beta virt. eigenvalues --    0.92681   0.96221   1.05350   1.19062   1.24965
  Beta virt. eigenvalues --    1.24965   1.38632   1.38632   1.49644   2.13632

 Mulliken charges and spin densities:
               1          2
     1  H    0.000728  -0.873315
     2  H    0.003372   0.878144
     3  F   -0.004101   0.995171
 Sum of Mulliken charges =   0.00000   1.00000

 Dipole moment (field-independent basis, Debye):
    X=             -0.1113    Y=              0.0000    Z=              0.0000  Tot=              0.1113
 Quadrupole moment (field-independent basis, Debye-Ang):
   XX=             -6.4469   YY=             -7.7209   ZZ=             -7.7206
   XY=              0.0045   XZ=              0.0155   YZ=              0.0001

  Exact polarizability:      33.678       0.001       2.009       0.005       0.000       2.009
 Approx polarizability:      30.041       0.003       1.936       0.010       0.000       1.936

 ******    2 imaginary frequencies (negative Signs) ******

                      1                      2                      3
                      A                      A                      A
 Frequencies --  -1263.3942               -96.6743               508.8392
 Red. masses --      1.0078                 1.1085                 1.0123
 Frc consts  --      0.9478                 0.0061                 0.1544
 IR Inten    --      2.7302                 2.1626                 0.0003

                      4
                      A
 Frequencies --    508.8401
 Red. masses --      1.0123
 Frc consts  --      0.1544
 IR Inten    --      0.0003

 - Thermochemistry -
 -------------------
 Temperature   298.150 Kelvin.  Pressure   1.00000 Atm.
 Atom     1 has atomic number  1 and mass   1.00783

 Molecular mass:    21.01405 amu.
 Principal axes and moments of inertia in atomic units:
                           1         2         3
     Eigenvalues --     0.00000 155.93952 155.93952
           X            1.00000  -0.00000   0.00000
           Y            0.00000   1.00000   0.00000
           Z            0.00000   0.00000   1.00000
 This molecule is a prolate symmetric top.
 Rotational symmetry number  1.
 Rotational temperature (Kelvin)      0.55543
 Rotational constant (GHZ):          11.573341
    2 imaginary frequencies ignored.
 Zero-point vibrational energy       6087.1 (Joules/Mol)
                                    1.45485 (Kcal/Mol)
 Warning -- explicit consideration of   2 degrees of freedom as
           vibrations may cause significant error
 Vibrational temperatures:    732.11   732.11
          (Kelvin)

 Zero-point correction=                           0.002318 (Hartree/Particle)
 Thermal correction to Energy=                    0.005114
 Thermal correction to Enthalpy=                  0.006058
 Thermal correction to Gibbs Free Energy=        -0.018742
 Sum of electronic and zero-point Energies=           -100.769974
 Sum of electronic and thermal Energies=              -100.767178
 Sum of electronic and thermal Enthalpies=            -100.766234
 Sum of electronic and thermal Free Energies=         -100.791034

                     E (Thermal)             CV                S
                      KCal/Mol        Cal/Mol-Kelvin    Cal/Mol-Kelvin
 Total                    3.209              7.429             52.196
 Electronic               0.000              0.000              1.377
 Translational            0.889              2.981             35.068
 Rotational               0.592              1.987             14.478
 Vibrational              1.728              2.461              1.273
 Vibration     1          0.864              1.230              0.636
 Vibration     2          0.864              1.230              0.636

 Normal termination of Gaussian 16 at Sat Aug 23 00:25:03 2025.
