 Gaussian 16, Revision C.01,
 Gaussian 16:  ES64L-G16RevC.01  3-Jul-2019

 -----------------------------------------
 # sp b3lyp/6-311g** Force nosymm scf=(qc)
 -----------------------------------------

 -------------------
 Title Card Required
 -------------------
 Symbolic Z-matrix:
 Charge =  0 Multiplicity = 2

                          Input orientation:
 ---------------------------------------------------------------------
 Center     Atomic      Atomic             Coordinates (Angstroms)
 Number     Number       Type             X           Y           Z
 ---------------------------------------------------------------------
      1          1           0        0.000000    0.000000    0.000000
      2          1           0       -2.050000    0.000000    0.000000
      3          9           0        3.100000    0.000000    0.000000
 ---------------------------------------------------------------------

 SCF Done:  E(UB3LYP) =  -100.773743327     a.u. after   28 cycles

 Alpha  occ. eigenvalues --  -24.74652  -1.20667  -0.53771  -0.45149  -0.45149
 Alpha  occ. eigenvalues --   -0.33485
 Alpha virt. eigenvalues --   -0.11467   0.25605   0.32130   0.89208   0.91928
 Alpha virt. eigenvalues --    0.91928   1.03373   1.18723   1.24464   1.24464
 Alpha virt. eigenvalues --    1.37358   1.37358   1.48658   2.12719   2.36241

  Beta  occ. eigenvalues --  -24.71591  -1.11885  -0.42084  -0.42084  -0.33662
  Beta virt. eigenvalues --   -0.25146  -0.10891   0.25857   0.32759   0.93399
  Beta virt. eigenvalues --    0.93399   0.98071   1.07326   1.18605   1.24213
  Beta virt. eigenvalues --    1.24213   1.38240   1.38240   1.49351   2.13835

 Mulliken charges and spin densities:
               1          2
     1  H    0.014518  -0.851335
     2  H    0.011766   0.881202
     3  F   -0.026284   0.970133
 Sum of Mulliken charges =   0.00000   1.00000

 Dipole moment (field-independent basis, Debye):
    X=             -0.5328    Y=              0.0000    Z=              0.0000  Tot=              0.5328
 Quadrupole moment (field-independent basis, Debye-Ang):
   XX=             -7.2427   YY=             -7.7083   ZZ=             -7.7083
   XY=             -0.0000   XZ=             -0.0000   YZ=              0.0000

  Exact polarizability:      55.493      -0.000       2.007      -0.000       0.000       2.007
 Approx polarizability:      48.839      -0.000       1.930      -0.000       0.000       1.930

 ******    2 imaginary frequencies (negative Signs) ******

                      1                      2                      3
                      A                      A                      A
 Frequencies --  -1275.5711              -216.2313               508.4173
 Red. masses --      1.0080                 1.1083                 1.0137
 Frc consts  --      0.9663                 0.0305                 0.1544
 IR Inten    --     28.6155                22.8605                 0.0821

                      4
                      A
 Frequencies --    508.4173
 Red. masses --      1.0137
 Frc consts  --      0.1544
 IR Inten    --      0.0821

 - Thermochemistry -
 -------------------
 Temperature   298.150 Kelvin.  Pressure   1.00000 Atm.
 Atom     1 has atomic number  1 and mass   1.00783

 Molecular mass:    21.01405 amu.
 Principal axes and moments of inertia in atomic units:
                           1         2         3
     Eigenvalues --     0.00000 118.29312 118.29312
           X            1.00000  -0.00000   0.00000
           Y            0.00000   1.00000   0.00000
           Z            0.00000   0.00000   1.00000
 This molecule is a prolate symmetric top.
 Rotational symmetry number  1.
 Rotational temperature (Kelvin)      0.73220
 Rotational constant (GHZ):          15.256519
    2 imaginary frequencies ignored.
 Zero-point vibrational energy       6082.0 (Joules/Mol)
                                    1.45364 (Kcal/Mol)
 Warning -- explicit consideration of   2 degrees of freedom as
           vibrations may cause significant error
 Vibrational temperatures:    731.50   731.50
          (Kelvin)

 Zero-point correction=                           0.002317 (Hartree/Particle)
 Thermal correction to Energy=                    0.005113
 Thermal correction to Enthalpy=                  0.006057
 Thermal correction to Gibbs Free Energy=        -0.018483
 Sum of electronic and zero-point Energies=           -100.771427
 Sum of electronic and thermal Energies=              -100.768630
 Sum of electronic and thermal Enthalpies=            -100.767686
 Sum of electronic and thermal Free Energies=         -100.792226

                     E (Thermal)             CV                S
                      KCal/Mol        Cal/Mol-Kelvin    Cal/Mol-Kelvin
 Total                    3.208              7.431             51.649
 Electronic               0.000              0.000              1.377
 Translational            0.889              2.981             35.068
 Rotational               0.592              1.987             13.929
 Vibrational              1.727              2.463              1.275
 Vibration     1          0.864              1.231              0.637
 Vibration     2          0.864              1.231              0.637

 Normal termination of Gaussian 16 at Fri Aug 22 19:54:35 2025.
