 Gaussian 16, Revision C.01,
 Gaussian 16:  ES64L-G16RevC.01  3-Jul-2019

 -----------------------------------------
 # sp b3lyp/6-311g** Force nosymm scf=(qc)
 -----------------------------------------

 -------------------
 Title Card Required
 -------------------
 Symbolic Z-matrix:
 Charge =  0 Multiplicity = 2

                          Input orientation:
 ---------------------------------------------------------------------
 Center     Atomic      Atomic             Coordinates (Angstroms)
 Number     Number       Type             X           Y           Z
 ---------------------------------------------------------------------
      1          1           0        0.000000    0.000000    0.000000
      2          1           0       -3.200000    0.000000    0.000000
      3          9           0        2.350000    0.000000    0.000000
 ---------------------------------------------------------------------

 SCF Done:  E(UB3LYP) =  -100.771672587     a.u. after   17 cycles

 Alpha  occ. eigenvalues --  -24.70807  -1.17072  -0.49892  -0.41930  -0.41930
 Alpha  occ. eigenvalues --   -0.33229
 Alpha virt. eigenvalues --   -0.11373   0.23518   0.34329   0.89146   0.94078
 Alpha virt. eigenvalues --    0.94078   1.06398   1.24298   1.24298   1.24773
 Alpha virt. eigenvalues --    1.39059   1.39059   1.47166   2.14690   2.34120

  Beta  occ. eigenvalues --  -24.68058  -1.09276  -0.39195  -0.39195  -0.36014
  Beta virt. eigenvalues --   -0.22715  -0.07446   0.24110   0.37327   0.93989
  Beta virt. eigenvalues --    0.95344   0.95344   1.08506   1.21726   1.21726
  Beta virt. eigenvalues --    1.34897   1.45067   1.45170   1.45170   2.12748

 Mulliken charges and spin densities:
               1          2
     1  H    0.112182  -0.862826
     2  H    0.002300   0.995449
     3  F   -0.114482   0.867377
 Sum of Mulliken charges =   0.00000   1.00000

 Dipole moment (field-independent basis, Debye):
    X=             -1.3949    Y=              0.0000    Z=              0.0000  Tot=              1.3949
 Quadrupole moment (field-independent basis, Debye-Ang):
   XX=             -9.4827   YY=             -7.5577   ZZ=             -7.5577
   XY=              0.0000   XZ=              0.0000   YZ=              0.0000

  Exact polarizability:      31.302       0.000       2.029       0.000       0.000       2.029
 Approx polarizability:      40.155       0.000       1.922       0.000      -0.000       1.922

 ******    2 imaginary frequencies (negative Signs) ******

                      1                      2                      3
                      A                      A                      A
 Frequencies --   -738.9824              -171.5748               298.2768
 Red. masses --      1.0523                 1.0593                 1.0221
 Frc consts  --      0.3386                 0.0184                 0.0536
 IR Inten    --     91.4004                 1.0389                11.7222

                      4
                      A
 Frequencies --    298.2768
 Red. masses --      1.0221
 Frc consts  --      0.0536
 IR Inten    --     11.7222

 - Thermochemistry -
 -------------------
 Temperature   298.150 Kelvin.  Pressure   1.00000 Atm.
 Atom     1 has atomic number  1 and mass   1.00783

 Molecular mass:    21.01405 amu.
 Principal axes and moments of inertia in atomic units:
                           1         2         3
     Eigenvalues --     0.00000 119.96159 119.96159
           X            1.00000  -0.00000   0.00000
           Y            0.00000   1.00000   0.00000
           Z            0.00000   0.00000   1.00000
 This molecule is a prolate symmetric top.
 Rotational symmetry number  1.
 Rotational temperature (Kelvin)      0.72201
 Rotational constant (GHZ):          15.044326
    2 imaginary frequencies ignored.
 Zero-point vibrational energy       3568.2 (Joules/Mol)
                                    0.85282 (Kcal/Mol)
 Warning -- explicit consideration of   2 degrees of freedom as
           vibrations may cause significant error
 Vibrational temperatures:    429.15   429.15
          (Kelvin)

 Zero-point correction=                           0.001359 (Hartree/Particle)
 Thermal correction to Energy=                    0.004564
 Thermal correction to Enthalpy=                  0.005508
 Thermal correction to Gibbs Free Energy=        -0.019795
 Sum of electronic and zero-point Energies=           -100.770314
 Sum of electronic and thermal Energies=              -100.767108
 Sum of electronic and thermal Enthalpies=            -100.766164
 Sum of electronic and thermal Free Energies=         -100.791468

                     E (Thermal)             CV                S
                      KCal/Mol        Cal/Mol-Kelvin    Cal/Mol-Kelvin
 Total                    2.864              8.322             53.255
 Electronic               0.000              0.000              1.377
 Translational            0.889              2.981             35.068
 Rotational               0.592              1.987             13.957
 Vibrational              1.383              3.354              2.853
 Vibration     1          0.691              1.677              1.427
 Vibration     2          0.691              1.677              1.427

 Normal termination of Gaussian 16 at Fri Aug 22 17:27:29 2025.
