 Gaussian 16, Revision C.01,
 Gaussian 16:  ES64L-G16RevC.01  3-Jul-2019

 -----------------------------------------
 # sp b3lyp/6-311g** Force nosymm scf=(qc)
 -----------------------------------------

 -------------------
 Title Card Required
 -------------------
 Symbolic Z-matrix:
 Charge =  0 Multiplicity = 2

                          Input orientation:
 ---------------------------------------------------------------------
 Center     Atomic      Atomic             Coordinates (Angstroms)
 Number     Number       Type             X           Y           Z
 ---------------------------------------------------------------------
      1          1           0        0.000000    0.000000    0.000000
      2          1           0       -1.950000    0.000000    0.000000
      3          9           0        1.000000    0.000000    0.000000
 ---------------------------------------------------------------------

 SCF Done:  E(UB3LYP) =  -100.967106187     a.u. after    6 cycles

 Alpha  occ. eigenvalues --  -24.63760  -1.15758  -0.51731  -0.38459  -0.38459
 Alpha  occ. eigenvalues --   -0.36251
 Alpha virt. eigenvalues --    0.04151   0.23859   0.33793   0.94342   0.94342
 Alpha virt. eigenvalues --    0.98561   1.13970   1.20932   1.20932   1.36572
 Alpha virt. eigenvalues --    1.36572   1.50179   1.86898   2.19743   2.34785

  Beta  occ. eigenvalues --  -24.63669  -1.15531  -0.51214  -0.38380  -0.38380
  Beta virt. eigenvalues --   -0.12890   0.06538   0.32782   0.35127   0.94356
  Beta virt. eigenvalues --    0.94356   0.99001   1.23418   1.35205   1.35205
  Beta virt. eigenvalues --    1.41478   1.41478   1.57853   1.90551   2.34509

 Mulliken charges and spin densities:
               1          2
     1  H    0.304185   0.004572
     2  H    0.018833   0.970544
     3  F   -0.323018   0.024884
 Sum of Mulliken charges =   0.00000   1.00000

 Dipole moment (field-independent basis, Debye):
    X=             -2.2290    Y=             -0.0000    Z=              0.0000  Tot=              2.2290
 Quadrupole moment (field-independent basis, Debye-Ang):
   XX=             -7.7574   YY=             -6.9157   ZZ=             -6.9157
   XY=             -0.0000   XZ=              0.0000   YZ=              0.0000

  Exact polarizability:      10.917       0.000       2.463      -0.000       0.000       2.463
 Approx polarizability:      11.970      -0.000       2.445       0.000       0.000       2.445

                      1                      2                      3
                      A                      A                      A
 Frequencies --    111.3692               933.7546               933.7546
 Red. masses --      1.0517                 1.0276                 1.0276
 Frc consts  --      0.0077                 0.5279                 0.5279
 IR Inten    --      3.3745               131.6659               131.6659

                      4
                      A
 Frequencies --   2964.4883
 Red. masses --      1.0599
 Frc consts  --      5.4881
 IR Inten    --    193.5793

 - Thermochemistry -
 -------------------
 Temperature   298.150 Kelvin.  Pressure   1.00000 Atm.
 Atom     1 has atomic number  1 and mass   1.00783

 Molecular mass:    21.01405 amu.
 Principal axes and moments of inertia in atomic units:
                           1         2         3
     Eigenvalues --     0.00000  32.22628  32.22628
           X            1.00000  -0.00000   0.00000
           Y            0.00000   1.00000   0.00000
           Z            0.00000   0.00000   1.00000
 This molecule is a prolate symmetric top.
 Rotational symmetry number  1.
 Rotational temperature (Kelvin)      2.68768
 Rotational constant (GHZ):          56.002156
 Zero-point vibrational energy      29567.9 (Joules/Mol)
                                    7.06690 (Kcal/Mol)
 Warning -- explicit consideration of   1 degrees of freedom as
           vibrations may cause significant error
 Vibrational temperatures:    160.24  1343.46  1343.46  4265.24
          (Kelvin)

 Zero-point correction=                           0.011262 (Hartree/Particle)
 Thermal correction to Energy=                    0.014430
 Thermal correction to Enthalpy=                  0.015375
 Thermal correction to Gibbs Free Energy=        -0.008990
 Sum of electronic and zero-point Energies=           -100.955844
 Sum of electronic and thermal Energies=              -100.952676
 Sum of electronic and thermal Enthalpies=            -100.951732
 Sum of electronic and thermal Free Energies=         -100.976096

                     E (Thermal)             CV                S
                      KCal/Mol        Cal/Mol-Kelvin    Cal/Mol-Kelvin
 Total                    9.055              7.819             51.279
 Electronic               0.000              0.000              1.377
 Translational            0.889              2.981             35.068
 Rotational               0.592              1.987             11.345
 Vibrational              7.574              2.851              3.489
 Vibration     1          0.607              1.940              3.245

 Normal termination of Gaussian 16 at Fri Aug 22 16:00:31 2025.
