 Gaussian 16, Revision C.01,
 Gaussian 16:  ES64L-G16RevC.01  3-Jul-2019

 -----------------------------------------
 # sp b3lyp/6-311g** Force nosymm scf=(qc)
 -----------------------------------------

 -------------------
 Title Card Required
 -------------------
 Symbolic Z-matrix:
 Charge =  0 Multiplicity = 2

                          Input orientation:
 ---------------------------------------------------------------------
 Center     Atomic      Atomic             Coordinates (Angstroms)
 Number     Number       Type             X           Y           Z
 ---------------------------------------------------------------------
      1          1           0        0.000000    0.000000    0.000000
      2          1           0       -0.600000    0.000000    0.000000
      3          9           0        3.950000    0.000000    0.000000
 ---------------------------------------------------------------------

 SCF Done:  E(UB3LYP) =  -100.914412962     a.u. after   74 cycles

 Alpha  occ. eigenvalues --  -24.76171  -1.22062  -0.55267  -0.46642  -0.46422
 Alpha  occ. eigenvalues --   -0.46411
 Alpha virt. eigenvalues --    0.08407   0.18880   0.51908   0.86107   0.90984
 Alpha virt. eigenvalues --    0.91882   1.01169   1.10185   1.10187   1.60400
 Alpha virt. eigenvalues --    1.81262   1.92727   1.92729   2.36905   3.64956

  Beta  occ. eigenvalues --  -24.73016  -1.12988  -0.46616  -0.43272  -0.43259
  Beta virt. eigenvalues --   -0.25915   0.08414   0.18883   0.51940   0.92484
  Beta virt. eigenvalues --    0.93369   0.95573   1.05296   1.10185   1.10187
  Beta virt. eigenvalues --    1.60402   1.81272   1.92727   1.92729   2.36905

 Mulliken charges and spin densities:
               1          2
     1  H   -0.000183  -0.000206
     2  H   -0.001384   0.000039
     3  F    0.001566   1.000167
 Sum of Mulliken charges =   0.00000   1.00000

 Dipole moment (field-independent basis, Debye):
    X=              0.0220    Y=              0.0000    Z=             -0.0000  Tot=              0.0220
 Quadrupole moment (field-independent basis, Debye-Ang):
   XX=             -6.2461   YY=             -5.8864   ZZ=             -6.7209
   XY=             -0.0000   XZ=             -0.0000   YZ=              0.1130

  Exact polarizability:       6.243      -0.000       2.325      -0.000       0.061       1.875
 Approx polarizability:       6.834      -0.000       2.521      -0.000       0.076       1.959

 ******    3 imaginary frequencies (negative Signs) ******

                      1                      2                      3
                      A                      A                      A
 Frequencies --  -2768.6642             -2767.7921               -59.0317
 Red. masses --      1.0083                 1.0083                 1.1085
 Frc consts  --      4.5540                 4.5511                 0.0023
 IR Inten    --      0.0000                 0.0001                 0.0496

                      4
                      A
 Frequencies --   7042.4679
 Red. masses --      1.0078
 Frc consts  --     29.4500
 IR Inten    --      0.0179

 - Thermochemistry -
 -------------------
 Temperature   298.150 Kelvin.  Pressure   1.00000 Atm.
 Atom     1 has atomic number  1 and mass   1.00783

 Molecular mass:    21.01405 amu.
 Principal axes and moments of inertia in atomic units:
                           1         2         3
     Eigenvalues --     0.00000 118.19116 118.19116
           X            1.00000  -0.00000   0.00000
           Y            0.00000   1.00000   0.00000
           Z            0.00000   0.00000   1.00000
 This molecule is a prolate symmetric top.
 Rotational symmetry number  1.
 Rotational temperature (Kelvin)      0.73283
 Rotational constant (GHZ):          15.269681
    3 imaginary frequencies ignored.
 Zero-point vibrational energy      42123.3 (Joules/Mol)
                                   10.06771 (Kcal/Mol)
 Vibrational temperatures:  10132.54
          (Kelvin)

 Zero-point correction=                           0.016044 (Hartree/Particle)
 Thermal correction to Energy=                    0.018404
 Thermal correction to Enthalpy=                  0.019349
 Thermal correction to Gibbs Free Energy=        -0.004585
 Sum of electronic and zero-point Energies=           -100.898369
 Sum of electronic and thermal Energies=              -100.896009
 Sum of electronic and thermal Enthalpies=            -100.895064
 Sum of electronic and thermal Free Energies=         -100.918998

                     E (Thermal)             CV                S
                      KCal/Mol        Cal/Mol-Kelvin    Cal/Mol-Kelvin
 Total                   11.549              4.968             50.373
 Electronic               0.000              0.000              1.377
 Translational            0.889              2.981             35.068
 Rotational               0.592              1.987             13.927
 Vibrational             10.068              0.000              0.000

 Normal termination of Gaussian 16 at Sat Aug 23 01:28:59 2025.
