 Gaussian 16, Revision C.01,
 Gaussian 16:  ES64L-G16RevC.01  3-Jul-2019

 -----------------------------------------
 # sp b3lyp/6-311g** Force nosymm scf=(qc)
 -----------------------------------------

 -------------------
 Title Card Required
 -------------------
 Symbolic Z-matrix:
 Charge =  0 Multiplicity = 2

                          Input orientation:
 ---------------------------------------------------------------------
 Center     Atomic      Atomic             Coordinates (Angstroms)
 Number     Number       Type             X           Y           Z
 ---------------------------------------------------------------------
      1          1           0        0.000000    0.000000    0.000000
      2          1           0       -2.050000    0.000000    0.000000
      3          9           0        2.800000    0.000000    0.000000
 ---------------------------------------------------------------------

 SCF Done:  E(UB3LYP) =  -100.775856062     a.u. after   20 cycles

 Alpha  occ. eigenvalues --  -24.73481  -1.19577  -0.52596  -0.44161  -0.44161
 Alpha  occ. eigenvalues --   -0.34009
 Alpha virt. eigenvalues --   -0.12059   0.25284   0.32078   0.90221   0.92642
 Alpha virt. eigenvalues --    0.92642   1.05178   1.19246   1.23930   1.23930
 Alpha virt. eigenvalues --    1.36453   1.36453   1.47822   2.12127   2.35746

  Beta  occ. eigenvalues --  -24.70502  -1.11051  -0.41182  -0.41182  -0.34291
  Beta virt. eigenvalues --   -0.24500  -0.11164   0.26176   0.32532   0.94084
  Beta virt. eigenvalues --    0.94084   0.98595   1.08910   1.19512   1.23570
  Beta virt. eigenvalues --    1.23570   1.37892   1.37892   1.48863   2.13270

 Mulliken charges and spin densities:
               1          2
     1  H    0.031117  -0.827264
     2  H    0.018634   0.883808
     3  F   -0.049751   0.943456
 Sum of Mulliken charges =   0.00000   1.00000

 Dipole moment (field-independent basis, Debye):
    X=             -0.8959    Y=             -0.0000    Z=             -0.0000  Tot=              0.8959
 Quadrupole moment (field-independent basis, Debye-Ang):
   XX=             -7.7581   YY=             -7.6892   ZZ=             -7.6892
   XY=              0.0000   XZ=              0.0000   YZ=             -0.0000

  Exact polarizability:      59.118       0.000       2.004       0.000      -0.000       2.004
 Approx polarizability:      56.974       0.000       1.927       0.000       0.000       1.927

 ******    2 imaginary frequencies (negative Signs) ******

                      1                      2                      3
                      A                      A                      A
 Frequencies --  -1288.2290              -296.2180               512.7638
 Red. masses --      1.0083                 1.1079                 1.0146
 Frc consts  --      0.9859                 0.0573                 0.1572
 IR Inten    --     46.2810                37.9568                 0.4838

                      4
                      A
 Frequencies --    512.7638
 Red. masses --      1.0146
 Frc consts  --      0.1572
 IR Inten    --      0.4838

 - Thermochemistry -
 -------------------
 Temperature   298.150 Kelvin.  Pressure   1.00000 Atm.
 Atom     1 has atomic number  1 and mass   1.00783

 Molecular mass:    21.01405 amu.
 Principal axes and moments of inertia in atomic units:
                           1         2         3
     Eigenvalues --     0.00000 102.77252 102.77252
           X            1.00000  -0.00000   0.00000
           Y            0.00000   1.00000   0.00000
           Z            0.00000   0.00000   1.00000
 This molecule is a prolate symmetric top.
 Rotational symmetry number  1.
 Rotational temperature (Kelvin)      0.84277
 Rotational constant (GHZ):          17.560543
    2 imaginary frequencies ignored.
 Zero-point vibrational energy       6134.0 (Joules/Mol)
                                    1.46607 (Kcal/Mol)
 Warning -- explicit consideration of   2 degrees of freedom as
           vibrations may cause significant error
 Vibrational temperatures:    737.75   737.75
          (Kelvin)

 Zero-point correction=                           0.002336 (Hartree/Particle)
 Thermal correction to Energy=                    0.005126
 Thermal correction to Enthalpy=                  0.006071
 Thermal correction to Gibbs Free Energy=        -0.018327
 Sum of electronic and zero-point Energies=           -100.773520
 Sum of electronic and thermal Energies=              -100.770730
 Sum of electronic and thermal Enthalpies=            -100.769785
 Sum of electronic and thermal Free Energies=         -100.794183

                     E (Thermal)             CV                S
                      KCal/Mol        Cal/Mol-Kelvin    Cal/Mol-Kelvin
 Total                    3.217              7.411             51.349
 Electronic               0.000              0.000              1.377
 Translational            0.889              2.981             35.068
 Rotational               0.592              1.987             13.649
 Vibrational              1.736              2.443              1.254
 Vibration     1          0.868              1.222              0.627
 Vibration     2          0.868              1.222              0.627

 Normal termination of Gaussian 16 at Fri Aug 22 18:43:04 2025.
