 Gaussian 16, Revision C.01,
 Gaussian 16:  ES64L-G16RevC.01  3-Jul-2019

 -----------------------------------------
 # sp b3lyp/6-311g** Force nosymm scf=(qc)
 -----------------------------------------

 -------------------
 Title Card Required
 -------------------
 Symbolic Z-matrix:
 Charge =  0 Multiplicity = 2

                          Input orientation:
 ---------------------------------------------------------------------
 Center     Atomic      Atomic             Coordinates (Angstroms)
 Number     Number       Type             X           Y           Z
 ---------------------------------------------------------------------
      1          1           0        0.000000    0.000000    0.000000
      2          1           0       -2.950000    0.000000    0.000000
      3          9           0        2.100000    0.000000    0.000000
 ---------------------------------------------------------------------

 SCF Done:  E(UB3LYP) =  -100.780518965     a.u. after   21 cycles

 Alpha  occ. eigenvalues --  -24.66209  -1.08045  -0.37698  -0.37698  -0.37524
 Alpha  occ. eigenvalues --   -0.33469
 Alpha virt. eigenvalues --   -0.21201   0.21304   0.27526   0.91058   0.95797
 Alpha virt. eigenvalues --    0.95797   1.08509   1.21618   1.21618   1.23747
 Alpha virt. eigenvalues --    1.23747   1.24427   1.47741   2.12620   2.14566

  Beta  occ. eigenvalues --  -24.68701  -1.15043  -0.47718  -0.40161  -0.40161
  Beta virt. eigenvalues --   -0.13695  -0.04941   0.31201   0.39195   0.89007
  Beta virt. eigenvalues --    0.94920   0.94920   1.06441   1.36481   1.36481
  Beta virt. eigenvalues --    1.47036   1.47036   1.47526   1.56293   2.31688

 Mulliken charges and spin densities:
               1          2
     1  H    0.167661   0.789077
     2  H    0.005256   0.994882
     3  F   -0.172917  -0.783960
 Sum of Mulliken charges =   0.00000   1.00000

 Dipole moment (field-independent basis, Debye):
    X=             -1.8820    Y=             -0.0000    Z=              0.0000  Tot=              1.8820
 Quadrupole moment (field-independent basis, Debye-Ang):
   XX=             -9.9569   YY=             -7.4944   ZZ=             -7.4944
   XY=             -0.0000   XZ=              0.0000   YZ=             -0.0000

  Exact polarizability:      32.593      -0.000       2.049       0.000      -0.000       2.049
 Approx polarizability:      45.014      -0.000       1.939       0.000       0.000       1.939

 ******    1 imaginary frequencies (negative Signs) ******

                      1                      2                      3
                      A                      A                      A
 Frequencies --   -961.5547               138.2224               404.5255
 Red. masses --      1.0616                 1.0500                 1.0225
 Frc consts  --      0.5783                 0.0118                 0.0986
 IR Inten    --     82.3322                 2.9938                25.2834

                      4
                      A
 Frequencies --    404.5255
 Red. masses --      1.0225
 Frc consts  --      0.0986
 IR Inten    --     25.2834

 - Thermochemistry -
 -------------------
 Temperature   298.150 Kelvin.  Pressure   1.00000 Atm.
 Atom     1 has atomic number  1 and mass   1.00783

 Molecular mass:    21.01405 amu.
 Principal axes and moments of inertia in atomic units:
                           1         2         3
     Eigenvalues --     0.00000  98.83125  98.83125
           X            1.00000  -0.00000   0.00000
           Y            0.00000   1.00000   0.00000
           Z            0.00000   0.00000   1.00000
 This molecule is a prolate symmetric top.
 Rotational symmetry number  1.
 Rotational temperature (Kelvin)      0.87638
 Rotational constant (GHZ):          18.260836
    1 imaginary frequencies ignored.
 Zero-point vibrational energy       5666.0 (Joules/Mol)
                                    1.35420 (Kcal/Mol)
 Warning -- explicit consideration of   3 degrees of freedom as
           vibrations may cause significant error
 Vibrational temperatures:    198.87   582.02   582.02
          (Kelvin)

 Zero-point correction=                           0.002158 (Hartree/Particle)
 Thermal correction to Energy=                    0.005793
 Thermal correction to Enthalpy=                  0.006737
 Thermal correction to Gibbs Free Energy=        -0.019271
 Sum of electronic and zero-point Energies=           -100.778361
 Sum of electronic and thermal Energies=              -100.774726
 Sum of electronic and thermal Enthalpies=            -100.773782
 Sum of electronic and thermal Free Energies=         -100.799790

                     E (Thermal)             CV                S
                      KCal/Mol        Cal/Mol-Kelvin    Cal/Mol-Kelvin
 Total                    3.635              9.804             54.738
 Electronic               0.000              0.000              1.377
 Translational            0.889              2.981             35.068
 Rotational               0.592              1.987             13.572
 Vibrational              2.154              4.836              4.721
 Vibration     1          0.614              1.915              2.828
 Vibration     2          0.770              1.460              0.946
 Vibration     3          0.770              1.460              0.946

 Normal termination of Gaussian 16 at Fri Aug 22 17:04:46 2025.
