 Gaussian 16, Revision C.01,
 Gaussian 16:  ES64L-G16RevC.01  3-Jul-2019

 -----------------------------------------
 # sp b3lyp/6-311g** Force nosymm scf=(qc)
 -----------------------------------------

 -------------------
 Title Card Required
 -------------------
 Symbolic Z-matrix:
 Charge =  0 Multiplicity = 2

                          Input orientation:
 ---------------------------------------------------------------------
 Center     Atomic      Atomic             Coordinates (Angstroms)
 Number     Number       Type             X           Y           Z
 ---------------------------------------------------------------------
      1          1           0        0.000000    0.000000    0.000000
      2          1           0       -3.950000    0.000000    0.000000
      3          9           0        2.600000    0.000000    0.000000
 ---------------------------------------------------------------------

 SCF Done:  E(UB3LYP) =  -100.765337392     a.u. after   21 cycles

 Alpha  occ. eigenvalues --  -24.72291  -1.18475  -0.51400  -0.43173  -0.43173
 Alpha  occ. eigenvalues --   -0.32676
 Alpha virt. eigenvalues --   -0.09565   0.23563   0.35491   0.89827   0.93316
 Alpha virt. eigenvalues --    0.93316   1.05931   1.24823   1.24823   1.24839
 Alpha virt. eigenvalues --    1.41313   1.41313   1.44408   2.14142   2.38381

  Beta  occ. eigenvalues --  -24.69400  -1.10232  -0.40289  -0.40289  -0.34961
  Beta virt. eigenvalues --   -0.23693  -0.06051   0.23764   0.38114   0.94715
  Beta virt. eigenvalues --    0.94715   0.96961   1.08589   1.22400   1.22400
  Beta virt. eigenvalues --    1.27228   1.46529   1.46678   1.46678   2.12794

 Mulliken charges and spin densities:
               1          2
     1  H    0.076732  -0.913414
     2  H    0.000246   0.999321
     3  F   -0.076978   0.914093
 Sum of Mulliken charges =  -0.00000   1.00000

 Dipole moment (field-independent basis, Debye):
    X=             -1.0257    Y=              0.0000    Z=             -0.0000  Tot=              1.0257
 Quadrupole moment (field-independent basis, Debye-Ang):
   XX=             -9.1653   YY=             -7.5774   ZZ=             -7.5774
   XY=              0.0000   XZ=             -0.0000   YZ=              0.0000

  Exact polarizability:      30.510       0.000       2.026      -0.000       0.000       2.026
 Approx polarizability:      37.713       0.000       1.921      -0.000      -0.000       1.921

 ******    2 imaginary frequencies (negative Signs) ******

                      1                      2                      3
                      A                      A                      A
 Frequencies --   -549.8797               -72.6464               210.7883
 Red. masses --      1.0565                 1.0551                 1.0237
 Frc consts  --      0.1882                 0.0033                 0.0268
 IR Inten    --     71.8869                 0.0435                 5.7605

                      4
                      A
 Frequencies --    210.7883
 Red. masses --      1.0237
 Frc consts  --      0.0268
 IR Inten    --      5.7605

 - Thermochemistry -
 -------------------
 Temperature   298.150 Kelvin.  Pressure   1.00000 Atm.
 Atom     1 has atomic number  1 and mass   1.00783

 Molecular mass:    21.01405 amu.
 Principal axes and moments of inertia in atomic units:
                           1         2         3
     Eigenvalues --     0.00000 164.28468 164.28468
           X            1.00000  -0.00000   0.00000
           Y            0.00000   1.00000   0.00000
           Z            0.00000   0.00000   1.00000
 This molecule is a prolate symmetric top.
 Rotational symmetry number  1.
 Rotational temperature (Kelvin)      0.52722
 Rotational constant (GHZ):          10.985450
    2 imaginary frequencies ignored.
 Zero-point vibrational energy       2521.6 (Joules/Mol)
                                    0.60267 (Kcal/Mol)
 Warning -- explicit consideration of   2 degrees of freedom as
           vibrations may cause significant error
 Vibrational temperatures:    303.28   303.28
          (Kelvin)

 Zero-point correction=                           0.000960 (Hartree/Particle)
 Thermal correction to Energy=                    0.004409
 Thermal correction to Enthalpy=                  0.005353
 Thermal correction to Gibbs Free Energy=        -0.020827
 Sum of electronic and zero-point Energies=           -100.764377
 Sum of electronic and thermal Energies=              -100.760928
 Sum of electronic and thermal Enthalpies=            -100.759984
 Sum of electronic and thermal Free Energies=         -100.786164

                     E (Thermal)             CV                S
                      KCal/Mol        Cal/Mol-Kelvin    Cal/Mol-Kelvin
 Total                    2.767              8.617             55.101
 Electronic               0.000              0.000              1.377
 Translational            0.889              2.981             35.068
 Rotational               0.592              1.987             14.582
 Vibrational              1.285              3.649              4.074
 Vibration     1          0.643              1.824              2.037
 Vibration     2          0.643              1.824              2.037

 Normal termination of Gaussian 16 at Fri Aug 22 18:05:37 2025.
