 Gaussian 16, Revision C.01,
 Gaussian 16:  ES64L-G16RevC.01  3-Jul-2019

 -----------------------------------------
 # sp b3lyp/6-311g** Force nosymm scf=(qc)
 -----------------------------------------

 -------------------
 Title Card Required
 -------------------
 Symbolic Z-matrix:
 Charge =  0 Multiplicity = 2

                          Input orientation:
 ---------------------------------------------------------------------
 Center     Atomic      Atomic             Coordinates (Angstroms)
 Number     Number       Type             X           Y           Z
 ---------------------------------------------------------------------
      1          1           0        0.000000    0.000000    0.000000
      2          1           0       -3.300000    0.000000    0.000000
      3          9           0        3.150000    0.000000    0.000000
 ---------------------------------------------------------------------

 SCF Done:  E(UB3LYP) =  -100.760451450     a.u. after   22 cycles

 Alpha  occ. eigenvalues --  -24.74582  -1.20605  -0.53703  -0.45091  -0.45091
 Alpha  occ. eigenvalues --   -0.32515
 Alpha virt. eigenvalues --   -0.08028   0.24335   0.36050   0.88869   0.91975
 Alpha virt. eigenvalues --    0.91975   1.03116   1.25000   1.25000   1.25314
 Alpha virt. eigenvalues --    1.43955   1.43955   1.44136   2.15173   2.40214

  Beta  occ. eigenvalues --  -24.71521  -1.11823  -0.42025  -0.42025  -0.33405
  Beta virt. eigenvalues --   -0.25054  -0.06903   0.24193   0.37542   0.93447
  Beta virt. eigenvalues --    0.93447   0.97739   1.06967   1.23967   1.23967
  Beta virt. eigenvalues --    1.24329   1.45402   1.45645   1.45645   2.15546

 Mulliken charges and spin densities:
               1          2
     1  H    0.026481  -0.966853
     2  H    0.000587   0.996574
     3  F   -0.027069   0.970279
 Sum of Mulliken charges =  -0.00000   1.00000

 Dipole moment (field-independent basis, Debye):
    X=             -0.4474    Y=              0.0000    Z=              0.0000  Tot=              0.4474
 Quadrupole moment (field-independent basis, Debye-Ang):
   XX=             -7.9750   YY=             -7.6187   ZZ=             -7.6187
   XY=             -0.0000   XZ=              0.0000   YZ=              0.0000

  Exact polarizability:      31.412      -0.000       2.027       0.000       0.000       2.027
 Approx polarizability:      29.200      -0.000       1.928       0.000      -0.000       1.928

 ******    2 imaginary frequencies (negative Signs) ******

                      1                      2                      3
                      A                      A                      A
 Frequencies --   -346.3703              -138.3158               121.9424
 Red. masses --      1.0336                 1.0789                 1.0185
 Frc consts  --      0.0731                 0.0122                 0.0089
 IR Inten    --     27.8016                 2.1282                 0.6372

                      4
                      A
 Frequencies --    121.9424
 Red. masses --      1.0185
 Frc consts  --      0.0089
 IR Inten    --      0.6372

 - Thermochemistry -
 -------------------
 Temperature   298.150 Kelvin.  Pressure   1.00000 Atm.
 Atom     1 has atomic number  1 and mass   1.00783

 Molecular mass:    21.01405 amu.
 Principal axes and moments of inertia in atomic units:
                           1         2         3
     Eigenvalues --     0.00000 169.53146 169.53146
           X            1.00000  -0.00000   0.00000
           Y            0.00000   1.00000   0.00000
           Z            0.00000   0.00000   1.00000
 This molecule is a prolate symmetric top.
 Rotational symmetry number  1.
 Rotational temperature (Kelvin)      0.51090
 Rotational constant (GHZ):          10.645465
    2 imaginary frequencies ignored.
 Zero-point vibrational energy       1458.8 (Joules/Mol)
                                    0.34865 (Kcal/Mol)
 Warning -- explicit consideration of   2 degrees of freedom as
           vibrations may cause significant error
 Vibrational temperatures:    175.45   175.45
          (Kelvin)

 Zero-point correction=                           0.000556 (Hartree/Particle)
 Thermal correction to Energy=                    0.004303
 Thermal correction to Enthalpy=                  0.005247
 Thermal correction to Gibbs Free Energy=        -0.021944
 Sum of electronic and zero-point Energies=           -100.759896
 Sum of electronic and thermal Energies=              -100.756148
 Sum of electronic and thermal Enthalpies=            -100.755204
 Sum of electronic and thermal Free Energies=         -100.782395

                     E (Thermal)             CV                S
                      KCal/Mol        Cal/Mol-Kelvin    Cal/Mol-Kelvin
 Total                    2.700              8.830             57.228
 Electronic               0.000              0.000              1.377
 Translational            0.889              2.981             35.068
 Rotational               0.592              1.987             14.644
 Vibrational              1.219              3.862              6.139
 Vibration     1          0.609              1.931              3.069
 Vibration     2          0.609              1.931              3.069

 Normal termination of Gaussian 16 at Fri Aug 22 20:11:33 2025.
