 Gaussian 16, Revision C.01,
 Gaussian 16:  ES64L-G16RevC.01  3-Jul-2019

 -----------------------------------------
 # sp b3lyp/6-311g** Force nosymm scf=(qc)
 -----------------------------------------

 -------------------
 Title Card Required
 -------------------
 Symbolic Z-matrix:
 Charge =  0 Multiplicity = 2

                          Input orientation:
 ---------------------------------------------------------------------
 Center     Atomic      Atomic             Coordinates (Angstroms)
 Number     Number       Type             X           Y           Z
 ---------------------------------------------------------------------
      1          1           0        0.000000    0.000000    0.000000
      2          1           0       -2.850000    0.000000    0.000000
      3          9           0        1.100000    0.000000    0.000000
 ---------------------------------------------------------------------

 SCF Done:  E(UB3LYP) =  -100.948663043     a.u. after    6 cycles

 Alpha  occ. eigenvalues --  -24.64225  -1.13810  -0.49577  -0.38040  -0.38040
 Alpha  occ. eigenvalues --   -0.34536
 Alpha virt. eigenvalues --   -0.02071   0.24502   0.30690   0.93630   0.93630
 Alpha virt. eigenvalues --    0.99644   1.22451   1.23001   1.23001   1.31476
 Alpha virt. eigenvalues --    1.35286   1.35286   1.80218   2.14205   2.32356

  Beta  occ. eigenvalues --  -24.64211  -1.13777  -0.49528  -0.38028  -0.38028
  Beta virt. eigenvalues --   -0.08980  -0.00455   0.30373   0.37647   0.93630
  Beta virt. eigenvalues --    0.93630   0.99666   1.29608   1.35265   1.35265
  Beta virt. eigenvalues --    1.45795   1.45795   1.47186   1.80441   2.32306

 Mulliken charges and spin densities:
               1          2
     1  H    0.337617   0.001143
     2  H    0.004330   0.994581
     3  F   -0.341947   0.004276
 Sum of Mulliken charges =   0.00000   1.00000

 Dipole moment (field-independent basis, Debye):
    X=             -2.2181    Y=              0.0000    Z=             -0.0000  Tot=              2.2181
 Quadrupole moment (field-independent basis, Debye-Ang):
   XX=             -8.3864   YY=             -7.0472   ZZ=             -7.0472
   XY=              0.0000   XZ=             -0.0000   YZ=              0.0000

  Exact polarizability:       9.394       0.000       2.377      -0.000      -0.000       2.377
 Approx polarizability:      11.696      -0.000       2.343      -0.000      -0.000       2.343

 ******    1 imaginary frequencies (negative Signs) ******

                      1                      2                      3
                      A                      A                      A
 Frequencies --   -101.2389              1172.1024              1172.1024
 Red. masses --      1.0527                 1.0323                 1.0323
 Frc consts  --      0.0064                 0.8355                 0.8355
 IR Inten    --      0.6554               149.8376               149.8376

                      4
                      A
 Frequencies --   1930.1291
 Red. masses --      1.0589
 Frc consts  --      2.3243
 IR Inten    --     97.5339

 - Thermochemistry -
 -------------------
 Temperature   298.150 Kelvin.  Pressure   1.00000 Atm.
 Atom     1 has atomic number  1 and mass   1.00783

 Molecular mass:    21.01405 amu.
 Principal axes and moments of inertia in atomic units:
                           1         2         3
     Eigenvalues --     0.00000  56.10642  56.10642
           X            1.00000  -0.00000   0.00000
           Y            0.00000   1.00000   0.00000
           Z            0.00000   0.00000   1.00000
 This molecule is a prolate symmetric top.
 Rotational symmetry number  1.
 Rotational temperature (Kelvin)      1.54374
 Rotational constant (GHZ):          32.166392
    1 imaginary frequencies ignored.
 Zero-point vibrational energy      25566.2 (Joules/Mol)
                                    6.11047 (Kcal/Mol)
 Vibrational temperatures:   1686.39  1686.39  2777.03
          (Kelvin)

 Zero-point correction=                           0.009738 (Hartree/Particle)
 Thermal correction to Energy=                    0.012136
 Thermal correction to Enthalpy=                  0.013081
 Thermal correction to Gibbs Free Energy=        -0.010195
 Sum of electronic and zero-point Energies=           -100.938925
 Sum of electronic and thermal Energies=              -100.936527
 Sum of electronic and thermal Enthalpies=            -100.935582
 Sum of electronic and thermal Free Energies=         -100.958858

                     E (Thermal)             CV                S
                      KCal/Mol        Cal/Mol-Kelvin    Cal/Mol-Kelvin
 Total                    7.616              5.431             48.987
 Electronic               0.000              0.000              1.377
 Translational            0.889              2.981             35.068
 Rotational               0.592              1.987             12.447
 Vibrational              6.134              0.463              0.095

 Normal termination of Gaussian 16 at Fri Aug 22 16:05:53 2025.
