 Gaussian 16, Revision C.01,
 Gaussian 16:  ES64L-G16RevC.01  3-Jul-2019

 -----------------------------------------
 # sp b3lyp/6-311g** Force nosymm scf=(qc)
 -----------------------------------------

 -------------------
 Title Card Required
 -------------------
 Symbolic Z-matrix:
 Charge =  0 Multiplicity = 2

                          Input orientation:
 ---------------------------------------------------------------------
 Center     Atomic      Atomic             Coordinates (Angstroms)
 Number     Number       Type             X           Y           Z
 ---------------------------------------------------------------------
      1          1           0        0.000000    0.000000    0.000000
      2          1           0       -3.100000    0.000000    0.000000
      3          9           0        2.550000    0.000000    0.000000
 ---------------------------------------------------------------------

 SCF Done:  E(UB3LYP) =  -100.767048707     a.u. after   19 cycles

 Alpha  occ. eigenvalues --  -24.72032  -1.18229  -0.51137  -0.42954  -0.42954
 Alpha  occ. eigenvalues --   -0.33070
 Alpha virt. eigenvalues --   -0.10474   0.24006   0.34789   0.89921   0.93460
 Alpha virt. eigenvalues --    0.93460   1.06289   1.24462   1.24462   1.25144
 Alpha virt. eigenvalues --    1.40702   1.40702   1.43774   2.15008   2.35749

  Beta  occ. eigenvalues --  -24.69164  -1.10060  -0.40094  -0.40094  -0.35161
  Beta virt. eigenvalues --   -0.23535  -0.07580   0.24533   0.37016   0.94843
  Beta virt. eigenvalues --    0.94843   0.96859   1.08908   1.22274   1.22274
  Beta virt. eigenvalues --    1.28429   1.44807   1.44905   1.44905   2.13914

 Mulliken charges and spin densities:
               1          2
     1  H    0.080710  -0.900716
     2  H    0.002329   0.994265
     3  F   -0.083040   0.906451
 Sum of Mulliken charges =  -0.00000   1.00000

 Dipole moment (field-independent basis, Debye):
    X=             -1.1137    Y=              0.0000    Z=             -0.0000  Tot=              1.1137
 Quadrupole moment (field-independent basis, Debye-Ang):
   XX=             -9.1062   YY=             -7.5855   ZZ=             -7.5855
   XY=              0.0000   XZ=             -0.0000   YZ=              0.0000

  Exact polarizability:      33.699       0.000       2.022      -0.000       0.000       2.022
 Approx polarizability:      40.242       0.000       1.920      -0.000      -0.000       1.920

 ******    2 imaginary frequencies (negative Signs) ******

                      1                      2                      3
                      A                      A                      A
 Frequencies --   -612.7202              -190.2947               237.7074
 Red. masses --      1.0463                 1.0654                 1.0205
 Frc consts  --      0.2314                 0.0227                 0.0340
 IR Inten    --     73.2538                 2.1034                 6.0097

                      4
                      A
 Frequencies --    237.7074
 Red. masses --      1.0205
 Frc consts  --      0.0340
 IR Inten    --      6.0097

 - Thermochemistry -
 -------------------
 Temperature   298.150 Kelvin.  Pressure   1.00000 Atm.
 Atom     1 has atomic number  1 and mass   1.00783

 Molecular mass:    21.01405 amu.
 Principal axes and moments of inertia in atomic units:
                           1         2         3
     Eigenvalues --     0.00000 126.68581 126.68581
           X            1.00000  -0.00000   0.00000
           Y            0.00000   1.00000   0.00000
           Z            0.00000   0.00000   1.00000
 This molecule is a prolate symmetric top.
 Rotational symmetry number  1.
 Rotational temperature (Kelvin)      0.68369
 Rotational constant (GHZ):          14.245803
    2 imaginary frequencies ignored.
 Zero-point vibrational energy       2843.6 (Joules/Mol)
                                    0.67964 (Kcal/Mol)
 Warning -- explicit consideration of   2 degrees of freedom as
           vibrations may cause significant error
 Vibrational temperatures:    342.01   342.01
          (Kelvin)

 Zero-point correction=                           0.001083 (Hartree/Particle)
 Thermal correction to Energy=                    0.004451
 Thermal correction to Enthalpy=                  0.005396
 Thermal correction to Gibbs Free Energy=        -0.020333
 Sum of electronic and zero-point Energies=           -100.765966
 Sum of electronic and thermal Energies=              -100.762597
 Sum of electronic and thermal Enthalpies=            -100.761653
 Sum of electronic and thermal Free Energies=         -100.787382

                     E (Thermal)             CV                S
                      KCal/Mol        Cal/Mol-Kelvin    Cal/Mol-Kelvin
 Total                    2.793              8.534             54.151
 Electronic               0.000              0.000              1.377
 Translational            0.889              2.981             35.068
 Rotational               0.592              1.987             14.065
 Vibrational              1.312              3.566              3.640
 Vibration     1          0.656              1.783              1.820
 Vibration     2          0.656              1.783              1.820

 Normal termination of Gaussian 16 at Fri Aug 22 17:54:54 2025.
