 Gaussian 16, Revision C.01,
 Gaussian 16:  ES64L-G16RevC.01  3-Jul-2019

 -----------------------------------------
 # sp b3lyp/6-311g** Force nosymm scf=(qc)
 -----------------------------------------

 -------------------
 Title Card Required
 -------------------
 Symbolic Z-matrix:
 Charge =  0 Multiplicity = 2

                          Input orientation:
 ---------------------------------------------------------------------
 Center     Atomic      Atomic             Coordinates (Angstroms)
 Number     Number       Type             X           Y           Z
 ---------------------------------------------------------------------
      1          1           0        0.000000    0.000000    0.000000
      2          1           0       -3.850000    0.000000    0.000000
      3          9           0        2.050000    0.000000    0.000000
 ---------------------------------------------------------------------

 SCF Done:  E(UB3LYP) =  -100.783945391     a.u. after   18 cycles

 Alpha  occ. eigenvalues --  -24.68643  -1.14966  -0.47647  -0.40114  -0.40114
 Alpha  occ. eigenvalues --   -0.33171
 Alpha virt. eigenvalues --   -0.13387   0.22552   0.32009   0.88469   0.94787
 Alpha virt. eigenvalues --    0.94787   1.05664   1.24334   1.24334   1.24338
 Alpha virt. eigenvalues --    1.35972   1.35972   1.58110   2.13726   2.30318

  Beta  occ. eigenvalues --  -24.66194  -1.08104  -0.37697  -0.37697  -0.37635
  Beta virt. eigenvalues --   -0.21073  -0.06392   0.22585   0.38051   0.90111
  Beta virt. eigenvalues --    0.95557   0.95557   1.08090   1.21729   1.21729
  Beta virt. eigenvalues --    1.46151   1.46460   1.46460   1.50400   2.11444

 Mulliken charges and spin densities:
               1          2
     1  H    0.179570  -0.769270
     2  H    0.000626   0.999049
     3  F   -0.180195   0.770221
 Sum of Mulliken charges =   0.00000   1.00000

 Dipole moment (field-independent basis, Debye):
    X=             -1.8428    Y=             -0.0000    Z=             -0.0000  Tot=              1.8428
 Quadrupole moment (field-independent basis, Debye-Ang):
   XX=            -10.0364   YY=             -7.4967   ZZ=             -7.4967
   XY=             -0.0000   XZ=             -0.0000   YZ=              0.0000

  Exact polarizability:      25.552      -0.000       2.055      -0.000       0.000       2.055
 Approx polarizability:      37.009      -0.000       1.941      -0.000       0.000       1.941

 ******    2 imaginary frequencies (negative Signs) ******

                      1                      2                      3
                      A                      A                      A
 Frequencies --  -1050.8621               -79.1661               447.3423
 Red. masses --      1.0577                 1.0539                 1.0270
 Frc consts  --      0.6882                 0.0039                 0.1211
 IR Inten    --    118.5265                 0.0563                30.8277

                      4
                      A
 Frequencies --    447.3423
 Red. masses --      1.0270
 Frc consts  --      0.1211
 IR Inten    --     30.8277

 - Thermochemistry -
 -------------------
 Temperature   298.150 Kelvin.  Pressure   1.00000 Atm.
 Atom     1 has atomic number  1 and mass   1.00783

 Molecular mass:    21.01405 amu.
 Principal axes and moments of inertia in atomic units:
                           1         2         3
     Eigenvalues --     0.00000 129.49713 129.49713
           X            1.00000  -0.00000   0.00000
           Y            0.00000   1.00000   0.00000
           Z            0.00000   0.00000   1.00000
 This molecule is a prolate symmetric top.
 Rotational symmetry number  1.
 Rotational temperature (Kelvin)      0.66885
 Rotational constant (GHZ):          13.936534
    2 imaginary frequencies ignored.
 Zero-point vibrational energy       5351.4 (Joules/Mol)
                                    1.27902 (Kcal/Mol)
 Warning -- explicit consideration of   2 degrees of freedom as
           vibrations may cause significant error
 Vibrational temperatures:    643.63   643.63
          (Kelvin)

 Zero-point correction=                           0.002038 (Hartree/Particle)
 Thermal correction to Energy=                    0.004931
 Thermal correction to Enthalpy=                  0.005875
 Thermal correction to Gibbs Free Energy=        -0.018909
 Sum of electronic and zero-point Energies=           -100.781907
 Sum of electronic and thermal Energies=              -100.779015
 Sum of electronic and thermal Enthalpies=            -100.778070
 Sum of electronic and thermal Free Energies=         -100.802854

                     E (Thermal)             CV                S
                      KCal/Mol        Cal/Mol-Kelvin    Cal/Mol-Kelvin
 Total                    3.094              7.702             52.162
 Electronic               0.000              0.000              1.377
 Translational            0.889              2.981             35.068
 Rotational               0.592              1.987             14.109
 Vibrational              1.613              2.734              1.608
 Vibration     1          0.806              1.367              0.804
 Vibration     2          0.806              1.367              0.804

 Normal termination of Gaussian 16 at Fri Aug 22 17:01:56 2025.
