 Gaussian 16, Revision C.01,
 Gaussian 16:  ES64L-G16RevC.01  3-Jul-2019

 -----------------------------------------
 # sp b3lyp/6-311g** Force nosymm scf=(qc)
 -----------------------------------------

 -------------------
 Title Card Required
 -------------------
 Symbolic Z-matrix:
 Charge =  0 Multiplicity = 2

                          Input orientation:
 ---------------------------------------------------------------------
 Center     Atomic      Atomic             Coordinates (Angstroms)
 Number     Number       Type             X           Y           Z
 ---------------------------------------------------------------------
      1          1           0        0.000000    0.000000    0.000000
      2          1           0       -3.900000    0.000000    0.000000
      3          9           0        2.500000    0.000000    0.000000
 ---------------------------------------------------------------------

 SCF Done:  E(UB3LYP) =  -100.767277216     a.u. after   18 cycles

 Alpha  occ. eigenvalues --  -24.71731  -1.17949  -0.50834  -0.42705  -0.42705
 Alpha  occ. eigenvalues --   -0.32759
 Alpha virt. eigenvalues --   -0.10186   0.23429   0.35131   0.89580   0.93617
 Alpha virt. eigenvalues --    0.93617   1.06167   1.24741   1.24741   1.24762
 Alpha virt. eigenvalues --    1.40445   1.40445   1.44838   2.14098   2.37073

  Beta  occ. eigenvalues --  -24.68890  -1.09863  -0.39873  -0.39873  -0.35356
  Beta virt. eigenvalues --   -0.23332  -0.06146   0.23700   0.38108   0.94980
  Beta virt. eigenvalues --    0.94980   0.95848   1.08484   1.22090   1.22090
  Beta virt. eigenvalues --    1.29711   1.46429   1.46604   1.46604   2.12320

 Mulliken charges and spin densities:
               1          2
     1  H    0.090349  -0.896960
     2  H    0.000320   0.999228
     3  F   -0.090669   0.897732
 Sum of Mulliken charges =  -0.00000   1.00000

 Dipole moment (field-independent basis, Debye):
    X=             -1.1586    Y=             -0.0000    Z=              0.0000  Tot=              1.1586
 Quadrupole moment (field-independent basis, Debye-Ang):
   XX=             -9.3524   YY=             -7.5671   ZZ=             -7.5671
   XY=             -0.0000   XZ=              0.0000   YZ=             -0.0000

  Exact polarizability:      29.926      -0.000       2.027       0.000       0.000       2.027
 Approx polarizability:      38.282      -0.000       1.921       0.000      -0.000       1.921

 ******    2 imaginary frequencies (negative Signs) ******

                      1                      2                      3
                      A                      A                      A
 Frequencies --   -611.8723               -76.4801               240.5257
 Red. masses --      1.0566                 1.0549                 1.0241
 Frc consts  --      0.2331                 0.0036                 0.0349
 IR Inten    --     80.7575                 0.0484                 7.9703

                      4
                      A
 Frequencies --    240.5257
 Red. masses --      1.0241
 Frc consts  --      0.0349
 IR Inten    --      7.9703

 - Thermochemistry -
 -------------------
 Temperature   298.150 Kelvin.  Pressure   1.00000 Atm.
 Atom     1 has atomic number  1 and mass   1.00783

 Molecular mass:    21.01405 amu.
 Principal axes and moments of inertia in atomic units:
                           1         2         3
     Eigenvalues --     0.00000 156.23700 156.23700
           X            1.00000  -0.00000   0.00000
           Y            0.00000   1.00000   0.00000
           Z            0.00000   0.00000   1.00000
 This molecule is a prolate symmetric top.
 Rotational symmetry number  1.
 Rotational temperature (Kelvin)      0.55438
 Rotational constant (GHZ):          11.551305
    2 imaginary frequencies ignored.
 Zero-point vibrational energy       2877.3 (Joules/Mol)
                                    0.68770 (Kcal/Mol)
 Warning -- explicit consideration of   2 degrees of freedom as
           vibrations may cause significant error
 Vibrational temperatures:    346.06   346.06
          (Kelvin)

 Zero-point correction=                           0.001096 (Hartree/Particle)
 Thermal correction to Energy=                    0.004456
 Thermal correction to Enthalpy=                  0.005400
 Thermal correction to Gibbs Free Energy=        -0.020506
 Sum of electronic and zero-point Energies=           -100.766181
 Sum of electronic and thermal Energies=              -100.762821
 Sum of electronic and thermal Enthalpies=            -100.761877
 Sum of electronic and thermal Free Energies=         -100.787783

                     E (Thermal)             CV                S
                      KCal/Mol        Cal/Mol-Kelvin    Cal/Mol-Kelvin
 Total                    2.796              8.525             54.525
 Electronic               0.000              0.000              1.377
 Translational            0.889              2.981             35.068
 Rotational               0.592              1.987             14.482
 Vibrational              1.315              3.557              3.598
 Vibration     1          0.658              1.778              1.799
 Vibration     2          0.658              1.778              1.799

 Normal termination of Gaussian 16 at Fri Aug 22 17:46:36 2025.
