 Gaussian 16, Revision C.01,
 Gaussian 16:  ES64L-G16RevC.01  3-Jul-2019

 -----------------------------------------
 # sp b3lyp/6-311g** Force nosymm scf=(qc)
 -----------------------------------------

 -------------------
 Title Card Required
 -------------------
 Symbolic Z-matrix:
 Charge =  0 Multiplicity = 2

                          Input orientation:
 ---------------------------------------------------------------------
 Center     Atomic      Atomic             Coordinates (Angstroms)
 Number     Number       Type             X           Y           Z
 ---------------------------------------------------------------------
      1          1           0        0.000000    0.000000    0.000000
      2          1           0       -3.950000    0.000000    0.000000
      3          9           0        1.750000    0.000000    0.000000
 ---------------------------------------------------------------------

 SCF Done:  E(UB3LYP) =  -100.805516691     a.u. after   10 cycles

 Alpha  occ. eigenvalues --  -24.64238  -1.08753  -0.40511  -0.35954  -0.35954
 Alpha  occ. eigenvalues --   -0.33667
 Alpha virt. eigenvalues --   -0.19690   0.20022   0.26664   0.94473   0.95247
 Alpha virt. eigenvalues --    0.95247   1.07528   1.23799   1.23837   1.23837
 Alpha virt. eigenvalues --    1.26774   1.26774   1.68006   2.11994   2.16652

  Beta  occ. eigenvalues --  -24.64242  -1.08765  -0.40517  -0.35958  -0.35958
  Beta virt. eigenvalues --   -0.19714  -0.06325   0.22429   0.38079   0.94487
  Beta virt. eigenvalues --    0.95249   0.95249   1.07529   1.26814   1.26814
  Beta virt. eigenvalues --    1.46215   1.46521   1.46521   1.68041   2.14965

 Mulliken charges and spin densities:
               1          2
     1  H    0.320860   0.002222
     2  H    0.000838   0.999122
     3  F   -0.321698  -0.001344
 Sum of Mulliken charges =  -0.00000   1.00000

 Dipole moment (field-independent basis, Debye):
    X=             -2.7994    Y=             -0.0000    Z=             -0.0000  Tot=              2.7994
 Quadrupole moment (field-independent basis, Debye-Ang):
   XX=            -10.9081   YY=             -7.4387   ZZ=             -7.4387
   XY=             -0.0000   XZ=             -0.0000   YZ=              0.0000

  Exact polarizability:      20.305      -0.000       2.085       0.000      -0.000       2.085
 Approx polarizability:      51.641       0.000       1.994      -0.000      -0.000       1.994

 ******    2 imaginary frequencies (negative Signs) ******

                      1                      2                      3
                      A                      A                      A
 Frequencies --  -1170.5606               -55.8929               837.3103
 Red. masses --      1.0580                 1.0536                 1.0300
 Frc consts  --      0.8541                 0.0019                 0.4255
 IR Inten    --     28.8906                 0.0830               100.4712

                      4
                      A
 Frequencies --    837.3103
 Red. masses --      1.0300
 Frc consts  --      0.4255
 IR Inten    --    100.4712

 - Thermochemistry -
 -------------------
 Temperature   298.150 Kelvin.  Pressure   1.00000 Atm.
 Atom     1 has atomic number  1 and mass   1.00783

 Molecular mass:    21.01405 amu.
 Principal axes and moments of inertia in atomic units:
                           1         2         3
     Eigenvalues --     0.00000 118.37364 118.37364
           X            1.00000  -0.00000   0.00000
           Y            0.00000   1.00000   0.00000
           Z            0.00000   0.00000   1.00000
 This molecule is a prolate symmetric top.
 Rotational symmetry number  1.
 Rotational temperature (Kelvin)      0.73170
 Rotational constant (GHZ):          15.246142
    2 imaginary frequencies ignored.
 Zero-point vibrational energy      10016.5 (Joules/Mol)
                                    2.39399 (Kcal/Mol)
 Vibrational temperatures:   1204.70  1204.70
          (Kelvin)

 Zero-point correction=                           0.003815 (Hartree/Particle)
 Thermal correction to Energy=                    0.006312
 Thermal correction to Enthalpy=                  0.007256
 Thermal correction to Gibbs Free Energy=        -0.016849
 Sum of electronic and zero-point Energies=           -100.801702
 Sum of electronic and thermal Energies=              -100.799205
 Sum of electronic and thermal Enthalpies=            -100.798260
 Sum of electronic and thermal Free Energies=         -100.822366

                     E (Thermal)             CV                S
                      KCal/Mol        Cal/Mol-Kelvin    Cal/Mol-Kelvin
 Total                    3.961              6.150             50.734
 Electronic               0.000              0.000              1.377
 Translational            0.889              2.981             35.068
 Rotational               0.592              1.987             13.930
 Vibrational              2.480              1.182              0.358

 Normal termination of Gaussian 16 at Fri Aug 22 16:42:07 2025.
