 Gaussian 16, Revision C.01,
 Gaussian 16:  ES64L-G16RevC.01  3-Jul-2019

 -----------------------------------------
 # sp b3lyp/6-311g** Force nosymm scf=(qc)
 -----------------------------------------

 -------------------
 Title Card Required
 -------------------
 Symbolic Z-matrix:
 Charge =  0 Multiplicity = 2

                          Input orientation:
 ---------------------------------------------------------------------
 Center     Atomic      Atomic             Coordinates (Angstroms)
 Number     Number       Type             X           Y           Z
 ---------------------------------------------------------------------
      1          1           0        0.000000    0.000000    0.000000
      2          1           0       -1.000000    0.000000    0.000000
      3          9           0        2.850000    0.000000    0.000000
 ---------------------------------------------------------------------

 SCF Done:  E(UB3LYP) =  -100.906847330     a.u. after    7 cycles

 Alpha  occ. eigenvalues --  -24.76084  -1.21988  -0.55226  -0.46363  -0.46363
 Alpha  occ. eigenvalues --   -0.39387
 Alpha virt. eigenvalues --    0.00110   0.21240   0.38719   0.89830   0.90994
 Alpha virt. eigenvalues --    0.90994   1.06225   1.08698   1.08698   1.37051
 Alpha virt. eigenvalues --    1.65349   1.65349   2.23028   2.36512   2.58620

  Beta  occ. eigenvalues --  -24.72952  -1.12984  -0.43224  -0.43224  -0.39339
  Beta virt. eigenvalues --   -0.26159   0.00348   0.21410   0.39128   0.92480
  Beta virt. eigenvalues --    0.92480   0.98445   1.08776   1.08776   1.10588
  Beta virt. eigenvalues --    1.37137   1.65410   1.65410   2.23180   2.36603

 Mulliken charges and spin densities:
               1          2
     1  H   -0.010388  -0.007263
     2  H    0.012432   0.015255
     3  F   -0.002044   0.992008
 Sum of Mulliken charges =   0.00000   1.00000

 Dipole moment (field-independent basis, Debye):
    X=             -0.0974    Y=              0.0000    Z=             -0.0000  Tot=              0.0974
 Quadrupole moment (field-independent basis, Debye-Ang):
   XX=             -5.5881   YY=             -7.2691   ZZ=             -7.2691
   XY=              0.0000   XZ=             -0.0000   YZ=              0.0000

  Exact polarizability:      17.330      -0.000       2.063       0.000      -0.000       2.063
 Approx polarizability:      20.607      -0.000       2.116       0.000      -0.000       2.116

 ******    1 imaginary frequencies (negative Signs) ******

                      1                      2                      3
                      A                      A                      A
 Frequencies --   -109.6345              1529.7087              1529.7087
 Red. masses --      1.1085                 1.0100                 1.0100
 Frc consts  --      0.0079                 1.3925                 1.3925
 IR Inten    --      1.9348                 0.1329                 0.1329

                      4
                      A
 Frequencies --   1770.6164
 Red. masses --      1.0078
 Frc consts  --      1.8616
 IR Inten    --     20.7187

 - Thermochemistry -
 -------------------
 Temperature   298.150 Kelvin.  Pressure   1.00000 Atm.
 Atom     1 has atomic number  1 and mass   1.00783

 Molecular mass:    21.01405 amu.
 Principal axes and moments of inertia in atomic units:
                           1         2         3
     Eigenvalues --     0.00000  74.83093  74.83093
           X            1.00000  -0.00000   0.00000
           Y            0.00000   1.00000   0.00000
           Z            0.00000   0.00000   1.00000
 This molecule is a prolate symmetric top.
 Rotational symmetry number  1.
 Rotational temperature (Kelvin)      1.15746
 Rotational constant (GHZ):          24.117585
    1 imaginary frequencies ignored.
 Zero-point vibrational energy      28890.0 (Joules/Mol)
                                    6.90488 (Kcal/Mol)
 Vibrational temperatures:   2200.91  2200.91  2547.52
          (Kelvin)

 Zero-point correction=                           0.011004 (Hartree/Particle)
 Thermal correction to Energy=                    0.013374
 Thermal correction to Enthalpy=                  0.014319
 Thermal correction to Gibbs Free Energy=        -0.009195
 Sum of electronic and zero-point Energies=           -100.895844
 Sum of electronic and thermal Energies=              -100.893473
 Sum of electronic and thermal Enthalpies=            -100.892529
 Sum of electronic and thermal Free Energies=         -100.916043

                     E (Thermal)             CV                S
                      KCal/Mol        Cal/Mol-Kelvin    Cal/Mol-Kelvin
 Total                    8.393              5.131             49.489
 Electronic               0.000              0.000              1.377
 Translational            0.889              2.981             35.068
 Rotational               0.592              1.987             13.019
 Vibrational              6.911              0.163              0.024

 Normal termination of Gaussian 16 at Fri Aug 22 18:47:43 2025.
