 Gaussian 16, Revision C.01,
 Gaussian 16:  ES64L-G16RevC.01  3-Jul-2019

 -----------------------------------------
 # sp b3lyp/6-311g** Force nosymm scf=(qc)
 -----------------------------------------

 -------------------
 Title Card Required
 -------------------
 Symbolic Z-matrix:
 Charge =  0 Multiplicity = 2

                          Input orientation:
 ---------------------------------------------------------------------
 Center     Atomic      Atomic             Coordinates (Angstroms)
 Number     Number       Type             X           Y           Z
 ---------------------------------------------------------------------
      1          1           0        0.000000    0.000000    0.000000
      2          1           0       -1.400000    0.000000    0.000000
      3          9           0        3.250000    0.000000    0.000000
 ---------------------------------------------------------------------

 SCF Done:  E(UB3LYP) =  -100.836836348     a.u. after  226 cycles

 Alpha  occ. eigenvalues --  -24.76529  -1.22381  -0.55576  -0.46792  -0.46728
 Alpha  occ. eigenvalues --   -0.34298
 Alpha virt. eigenvalues --   -0.08025   0.24316   0.31428   0.85847   0.90722
 Alpha virt. eigenvalues --    0.92666   1.02026   1.10799   1.17985   1.17989
 Alpha virt. eigenvalues --    1.45183   1.45187   1.90468   2.25832   2.50418

  Beta  occ. eigenvalues --  -24.73370  -1.13301  -0.43628  -0.43562  -0.34293
  Beta virt. eigenvalues --   -0.26211  -0.08018   0.24330   0.31476   0.92221
  Beta virt. eigenvalues --    0.94215   0.95309   1.06053   1.10815   1.17984
  Beta virt. eigenvalues --    1.17988   1.45182   1.45186   1.90476   2.25834

 Mulliken charges and spin densities:
               1          2
     1  H   -0.000117   0.000614
     2  H   -0.004651  -0.001215
     3  F    0.004768   1.000602
 Sum of Mulliken charges =   0.00000   1.00000

 Dipole moment (field-independent basis, Debye):
    X=              0.0756    Y=              0.0000    Z=             -0.0000  Tot=              0.0756
 Quadrupole moment (field-independent basis, Debye-Ang):
   XX=             -6.1986   YY=             -7.6592   ZZ=             -6.8499
   XY=              0.0000   XZ=             -0.0000   YZ=             -0.1513

  Exact polarizability:      20.721      -0.000       2.073      -0.000      -0.081       2.508
 Approx polarizability:      36.275       0.000       2.083      -0.000      -0.102       2.628

 ******    2 imaginary frequencies (negative Signs) ******

                      1                      2                      3
                      A                      A                      A
 Frequencies --  -1167.0394               -23.8640              1308.4120
 Red. masses --      1.0078                 1.1085                 1.0109
 Frc consts  --      0.8087                 0.0004                 1.0196
 IR Inten    --      0.4974                 0.3531                 0.0034

                      4
                      A
 Frequencies --   1309.8093
 Red. masses --      1.0109
 Frc consts  --      1.0218
 IR Inten    --      0.0030

 - Thermochemistry -
 -------------------
 Temperature   298.150 Kelvin.  Pressure   1.00000 Atm.
 Atom     1 has atomic number  1 and mass   1.00783

 Molecular mass:    21.01405 amu.
 Principal axes and moments of inertia in atomic units:
                           1         2         3
     Eigenvalues --     0.00000 105.06169 105.06169
           X            1.00000  -0.00000   0.00000
           Y            0.00000   1.00000   0.00000
           Z            0.00000   0.00000   1.00000
 This molecule is a prolate symmetric top.
 Rotational symmetry number  1.
 Rotational temperature (Kelvin)      0.82441
 Rotational constant (GHZ):          17.177919
    2 imaginary frequencies ignored.
 Zero-point vibrational energy      15660.4 (Joules/Mol)
                                    3.74294 (Kcal/Mol)
 Vibrational temperatures:   1882.51  1884.52
          (Kelvin)

 Zero-point correction=                           0.005965 (Hartree/Particle)
 Thermal correction to Energy=                    0.008347
 Thermal correction to Enthalpy=                  0.009291
 Thermal correction to Gibbs Free Energy=        -0.014556
 Sum of electronic and zero-point Energies=           -100.830872
 Sum of electronic and thermal Energies=              -100.828490
 Sum of electronic and thermal Enthalpies=            -100.827545
 Sum of electronic and thermal Free Energies=         -100.851393

                     E (Thermal)             CV                S
                      KCal/Mol        Cal/Mol-Kelvin    Cal/Mol-Kelvin
 Total                    5.238              5.255             50.191
 Electronic               0.000              0.000              1.377
 Translational            0.889              2.981             35.068
 Rotational               0.592              1.987             13.693
 Vibrational              3.756              0.287              0.053

 Normal termination of Gaussian 16 at Fri Aug 22 20:31:38 2025.
