 Gaussian 16, Revision C.01,
 Gaussian 16:  ES64L-G16RevC.01  3-Jul-2019

 -----------------------------------------
 # sp b3lyp/6-311g** Force nosymm scf=(qc)
 -----------------------------------------

 -------------------
 Title Card Required
 -------------------
 Symbolic Z-matrix:
 Charge =  0 Multiplicity = 2

                          Input orientation:
 ---------------------------------------------------------------------
 Center     Atomic      Atomic             Coordinates (Angstroms)
 Number     Number       Type             X           Y           Z
 ---------------------------------------------------------------------
      1          1           0        0.000000    0.000000    0.000000
      2          1           0       -1.250000    0.000000    0.000000
      3          9           0        1.450000    0.000000    0.000000
 ---------------------------------------------------------------------

 SCF Done:  E(UB3LYP) =  -100.902716220     a.u. after   10 cycles

 Alpha  occ. eigenvalues --  -24.66186  -1.13314  -0.50051  -0.39117  -0.38508
 Alpha  occ. eigenvalues --   -0.38508
 Alpha virt. eigenvalues --   -0.01657   0.20071   0.30695   0.91858   0.91858
 Alpha virt. eigenvalues --    1.00311   1.08422   1.10603   1.10603   1.49636
 Alpha virt. eigenvalues --    1.49636   1.56164   2.02497   2.24223   2.48017

  Beta  occ. eigenvalues --  -24.64456  -1.08670  -0.42932  -0.36850  -0.36850
  Beta virt. eigenvalues --   -0.22573   0.01555   0.22615   0.32394   0.92354
  Beta virt. eigenvalues --    0.92354   1.04850   1.12343   1.15528   1.15528
  Beta virt. eigenvalues --    1.51848   1.51848   1.60093   2.07199   2.28559

 Mulliken charges and spin densities:
               1          2
     1  H    0.217432  -0.156247
     2  H    0.067614   0.627572
     3  F   -0.285046   0.528675
 Sum of Mulliken charges =  -0.00000   1.00000

 Dipole moment (field-independent basis, Debye):
    X=             -2.4455    Y=              0.0000    Z=             -0.0000  Tot=              2.4455
 Quadrupole moment (field-independent basis, Debye-Ang):
   XX=             -7.8320   YY=             -7.1208   ZZ=             -7.1208
   XY=             -0.0000   XZ=              0.0000   YZ=              0.0000

  Exact polarizability:      31.907      -0.000       2.376       0.000       0.000       2.376
 Approx polarizability:      47.720      -0.000       2.338       0.000      -0.000       2.338

 ******    1 imaginary frequencies (negative Signs) ******

                      1                      2                      3
                      A                      A                      A
 Frequencies --  -2677.1659               328.8559              1180.3506
 Red. masses --      1.0232                 1.0905                 1.0162
 Frc consts  --      4.3209                 0.0695                 0.8342
 IR Inten    --    688.3427                23.6301                17.0593

                      4
                      A
 Frequencies --   1180.3506
 Red. masses --      1.0162
 Frc consts  --      0.8342
 IR Inten    --     17.0593

 - Thermochemistry -
 -------------------
 Temperature   298.150 Kelvin.  Pressure   1.00000 Atm.
 Atom     1 has atomic number  1 and mass   1.00783

 Molecular mass:    21.01405 amu.
 Principal axes and moments of inertia in atomic units:
                           1         2         3
     Eigenvalues --     0.00000  30.83097  30.83097
           X            1.00000  -0.00000   0.00000
           Y            0.00000   1.00000   0.00000
           Z            0.00000   0.00000   1.00000
 This molecule is a prolate symmetric top.
 Rotational symmetry number  1.
 Rotational temperature (Kelvin)      2.80932
 Rotational constant (GHZ):          58.536643
    1 imaginary frequencies ignored.
 Zero-point vibrational energy      16087.1 (Joules/Mol)
                                    3.84491 (Kcal/Mol)
 Warning -- explicit consideration of   1 degrees of freedom as
           vibrations may cause significant error
 Vibrational temperatures:    473.15  1698.26  1698.26
          (Kelvin)

 Zero-point correction=                           0.006127 (Hartree/Particle)
 Thermal correction to Energy=                    0.008909
 Thermal correction to Enthalpy=                  0.009853
 Thermal correction to Gibbs Free Energy=        -0.013455
 Sum of electronic and zero-point Energies=           -100.896589
 Sum of electronic and thermal Energies=              -100.893807
 Sum of electronic and thermal Enthalpies=            -100.892863
 Sum of electronic and thermal Free Energies=         -100.916172

                     E (Thermal)             CV                S
                      KCal/Mol        Cal/Mol-Kelvin    Cal/Mol-Kelvin
 Total                    5.591              7.022             49.058
 Electronic               0.000              0.000              1.377
 Translational            0.889              2.981             35.068
 Rotational               0.592              1.987             11.257
 Vibrational              4.109              2.054              1.355
 Vibration     1          0.712              1.618              1.266

 Normal termination of Gaussian 16 at Fri Aug 22 16:22:08 2025.
