 Gaussian 16, Revision C.01,
 Gaussian 16:  ES64L-G16RevC.01  3-Jul-2019

 -----------------------------------------
 # sp b3lyp/6-311g** Force nosymm scf=(qc)
 -----------------------------------------

 -------------------
 Title Card Required
 -------------------
 Symbolic Z-matrix:
 Charge =  0 Multiplicity = 2

                          Input orientation:
 ---------------------------------------------------------------------
 Center     Atomic      Atomic             Coordinates (Angstroms)
 Number     Number       Type             X           Y           Z
 ---------------------------------------------------------------------
      1          1           0        0.000000    0.000000    0.000000
      2          1           0       -1.950000    0.000000    0.000000
      3          9           0        3.050000    0.000000    0.000000
 ---------------------------------------------------------------------

 SCF Done:  E(UB3LYP) =  -100.778291332     a.u. after   24 cycles

 Alpha  occ. eigenvalues --  -24.74566  -1.20587  -0.53686  -0.45078  -0.45078
 Alpha  occ. eigenvalues --   -0.33695
 Alpha virt. eigenvalues --   -0.11685   0.25506   0.31602   0.89422   0.91977
 Alpha virt. eigenvalues --    0.91977   1.03652   1.14897   1.24259   1.24259
 Alpha virt. eigenvalues --    1.36740   1.36740   1.52601   2.12638   2.37263

  Beta  occ. eigenvalues --  -24.71513  -1.11829  -0.42021  -0.42021  -0.33777
  Beta virt. eigenvalues --   -0.25122  -0.11188   0.25894   0.32077   0.93445
  Beta virt. eigenvalues --    0.93445   0.98212   1.07573   1.14959   1.24125
  Beta virt. eigenvalues --    1.24125   1.37470   1.37470   1.53177   2.13744

 Mulliken charges and spin densities:
               1          2
     1  H    0.013633  -0.803897
     2  H    0.014616   0.836204
     3  F   -0.028249   0.967692
 Sum of Mulliken charges =   0.00000   1.00000

 Dipole moment (field-independent basis, Debye):
    X=             -0.5773    Y=              0.0000    Z=             -0.0000  Tot=              0.5773
 Quadrupole moment (field-independent basis, Debye-Ang):
   XX=             -7.1564   YY=             -7.7199   ZZ=             -7.7199
   XY=              0.0000   XZ=             -0.0000   YZ=              0.0000

  Exact polarizability:      58.455       0.000       2.006      -0.000       0.000       2.006
 Approx polarizability:      54.543       0.000       1.936      -0.000      -0.000       1.936

 ******    2 imaginary frequencies (negative Signs) ******

                      1                      2                      3
                      A                      A                      A
 Frequencies --  -1456.7561              -226.0883               598.4137
 Red. masses --      1.0079                 1.1084                 1.0134
 Frc consts  --      1.2603                 0.0334                 0.2138
 IR Inten    --     41.8949                25.6838                 0.0507

                      4
                      A
 Frequencies --    598.4137
 Red. masses --      1.0134
 Frc consts  --      0.2138
 IR Inten    --      0.0507

 - Thermochemistry -
 -------------------
 Temperature   298.150 Kelvin.  Pressure   1.00000 Atm.
 Atom     1 has atomic number  1 and mass   1.00783

 Molecular mass:    21.01405 amu.
 Principal axes and moments of inertia in atomic units:
                           1         2         3
     Eigenvalues --     0.00000 112.26963 112.26963
           X            1.00000  -0.00000   0.00000
           Y            0.00000   1.00000   0.00000
           Z            0.00000   0.00000   1.00000
 This molecule is a prolate symmetric top.
 Rotational symmetry number  1.
 Rotational temperature (Kelvin)      0.77148
 Rotational constant (GHZ):          16.075061
    2 imaginary frequencies ignored.
 Zero-point vibrational energy       7158.6 (Joules/Mol)
                                    1.71095 (Kcal/Mol)
 Warning -- explicit consideration of   2 degrees of freedom as
           vibrations may cause significant error
 Vibrational temperatures:    860.98   860.98
          (Kelvin)

 Zero-point correction=                           0.002727 (Hartree/Particle)
 Thermal correction to Energy=                    0.005409
 Thermal correction to Enthalpy=                  0.006353
 Thermal correction to Gibbs Free Energy=        -0.017962
 Sum of electronic and zero-point Energies=           -100.775565
 Sum of electronic and thermal Energies=              -100.772883
 Sum of electronic and thermal Enthalpies=            -100.771938
 Sum of electronic and thermal Free Energies=         -100.796253

                     E (Thermal)             CV                S
                      KCal/Mol        Cal/Mol-Kelvin    Cal/Mol-Kelvin
 Total                    3.394              7.038             51.175
 Electronic               0.000              0.000              1.377
 Translational            0.889              2.981             35.068
 Rotational               0.592              1.987             13.825
 Vibrational              1.913              2.070              0.905
 Vibration     1          0.956              1.035              0.452
 Vibration     2          0.956              1.035              0.452

 Normal termination of Gaussian 16 at Fri Aug 22 19:43:30 2025.
