 Gaussian 16, Revision C.01,
 Gaussian 16:  ES64L-G16RevC.01  3-Jul-2019

 -----------------------------------------
 # sp b3lyp/6-311g** Force nosymm scf=(qc)
 -----------------------------------------

 -------------------
 Title Card Required
 -------------------
 Symbolic Z-matrix:
 Charge =  0 Multiplicity = 2

                          Input orientation:
 ---------------------------------------------------------------------
 Center     Atomic      Atomic             Coordinates (Angstroms)
 Number     Number       Type             X           Y           Z
 ---------------------------------------------------------------------
      1          1           0        0.000000    0.000000    0.000000
      2          1           0       -0.600000    0.000000    0.000000
      3          9           0        3.050000    0.000000    0.000000
 ---------------------------------------------------------------------

 SCF Done:  E(UB3LYP) =  -100.915151978     a.u. after   22 cycles

 Alpha  occ. eigenvalues --  -24.76558  -1.22363  -0.55558  -0.47045  -0.46707
 Alpha  occ. eigenvalues --   -0.46183
 Alpha virt. eigenvalues --    0.08770   0.19042   0.52214   0.85904   0.90776
 Alpha virt. eigenvalues --    0.93965   1.06259   1.10330   1.10337   1.61194
 Alpha virt. eigenvalues --    1.83519   1.92879   1.92887   2.37657   3.64698

  Beta  occ. eigenvalues --  -24.73396  -1.13276  -0.46525  -0.43538  -0.43530
  Beta virt. eigenvalues --   -0.26181   0.08823   0.19073   0.52328   0.92275
  Beta virt. eigenvalues --    0.95362   0.95809   1.09869   1.10330   1.10336
  Beta virt. eigenvalues --    1.61213   1.83561   1.92878   1.92886   2.37662

 Mulliken charges and spin densities:
               1          2
     1  H   -0.007234  -0.001464
     2  H   -0.002181   0.000209
     3  F    0.009415   1.001256
 Sum of Mulliken charges =   0.00000   1.00000

 Dipole moment (field-independent basis, Debye):
    X=              0.0868    Y=              0.0000    Z=             -0.0000  Tot=              0.0868
 Quadrupole moment (field-independent basis, Debye-Ang):
   XX=             -6.0218   YY=             -6.3137   ZZ=             -6.3132
   XY=              0.0000   XZ=             -0.0000   YZ=             -0.4318

  Exact polarizability:       6.791      -0.000       2.103       0.000      -0.230       2.104
 Approx polarizability:       7.318       0.000       2.245      -0.000      -0.289       2.245

 ******    2 imaginary frequencies (negative Signs) ******

                      1                      2                      3
                      A                      A                      A
 Frequencies --  -2755.6398             -2755.4195                64.8635
 Red. masses --      1.0086                 1.0086                 1.1085
 Frc consts  --      4.5126                 4.5119                 0.0027
 IR Inten    --      0.0314                 0.0292                 0.1737

                      4
                      A
 Frequencies --   7042.3582
 Red. masses --      1.0078
 Frc consts  --     29.4491
 IR Inten    --      0.2735

 - Thermochemistry -
 -------------------
 Temperature   298.150 Kelvin.  Pressure   1.00000 Atm.
 Atom     1 has atomic number  1 and mass   1.00783

 Molecular mass:    21.01405 amu.
 Principal axes and moments of inertia in atomic units:
                           1         2         3
     Eigenvalues --     0.00000  73.67924  73.67924
           X            1.00000  -0.00000   0.00000
           Y            0.00000   1.00000   0.00000
           Z            0.00000   0.00000   1.00000
 This molecule is a prolate symmetric top.
 Rotational symmetry number  1.
 Rotational temperature (Kelvin)      1.17555
 Rotational constant (GHZ):          24.494567
    2 imaginary frequencies ignored.
 Zero-point vibrational energy      42510.6 (Joules/Mol)
                                   10.16028 (Kcal/Mol)
 Warning -- explicit consideration of   1 degrees of freedom as
           vibrations may cause significant error
 Vibrational temperatures:     93.32 10132.38
          (Kelvin)

 Zero-point correction=                           0.016191 (Hartree/Particle)
 Thermal correction to Energy=                    0.019356
 Thermal correction to Enthalpy=                  0.020300
 Thermal correction to Gibbs Free Energy=        -0.005232
 Sum of electronic and zero-point Energies=           -100.898961
 Sum of electronic and thermal Energies=              -100.895796
 Sum of electronic and thermal Enthalpies=            -100.894852
 Sum of electronic and thermal Free Energies=         -100.920384

                     E (Thermal)             CV                S
                      KCal/Mol        Cal/Mol-Kelvin    Cal/Mol-Kelvin
 Total                   12.146              6.939             53.737
 Electronic               0.000              0.000              1.377
 Translational            0.889              2.981             35.068
 Rotational               0.592              1.987             12.988
 Vibrational             10.665              1.971              4.303
 Vibration     1          0.597              1.971              4.303

 Normal termination of Gaussian 16 at Fri Aug 22 19:36:00 2025.
