 Gaussian 16, Revision C.01,
 Gaussian 16:  ES64L-G16RevC.01  3-Jul-2019

 -----------------------------------------
 # sp b3lyp/6-311g** Force nosymm scf=(qc)
 -----------------------------------------

 -------------------
 Title Card Required
 -------------------
 Symbolic Z-matrix:
 Charge =  0 Multiplicity = 2

                          Input orientation:
 ---------------------------------------------------------------------
 Center     Atomic      Atomic             Coordinates (Angstroms)
 Number     Number       Type             X           Y           Z
 ---------------------------------------------------------------------
      1          1           0        0.000000    0.000000    0.000000
      2          1           0       -1.150000    0.000000    0.000000
      3          9           0        3.650000    0.000000    0.000000
 ---------------------------------------------------------------------

 SCF Done:  E(UB3LYP) =  -100.880750875     a.u. after  474 cycles

 Alpha  occ. eigenvalues --  -24.76307  -1.22190  -0.55391  -0.46577  -0.46546
 Alpha  occ. eigenvalues --   -0.36890
 Alpha virt. eigenvalues --   -0.02975   0.22492   0.35188   0.85996   0.90873
 Alpha virt. eigenvalues --    0.91890   1.01179   1.11805   1.11808   1.25860
 Alpha virt. eigenvalues --    1.57104   1.57107   2.12023   2.33025   2.54930

  Beta  occ. eigenvalues --  -24.73151  -1.13114  -0.43413  -0.43381  -0.36889
  Beta virt. eigenvalues --   -0.26035  -0.02971   0.22499   0.35213   0.92373
  Beta virt. eigenvalues --    0.93386   0.95461   1.05304   1.11805   1.11808
  Beta virt. eigenvalues --    1.25865   1.57104   1.57107   2.12028   2.33027

 Mulliken charges and spin densities:
               1          2
     1  H    0.000419  -0.000148
     2  H   -0.002592  -0.000099
     3  F    0.002174   1.000247
 Sum of Mulliken charges =   0.00000   1.00000

 Dipole moment (field-independent basis, Debye):
    X=              0.0366    Y=              0.0000    Z=             -0.0000  Tot=              0.0366
 Quadrupole moment (field-independent basis, Debye-Ang):
   XX=             -6.2911   YY=             -6.5786   ZZ=             -7.4429
   XY=             -0.0000   XZ=             -0.0000   YZ=              0.0044

  Exact polarizability:      14.933      -0.000       2.543       0.000       0.002       2.078
 Approx polarizability:      21.696      -0.000       2.692      -0.000       0.003       2.110

 ******    1 imaginary frequencies (negative Signs) ******

                      1                      2                      3
                      A                      A                      A
 Frequencies --    -56.9523               582.3951              1503.6023
 Red. masses --      1.1085                 1.0078                 1.0097
 Frc consts  --      0.0021                 0.2014                 1.3449
 IR Inten    --      0.1040                 0.1033                 0.0010

                      4
                      A
 Frequencies --   1504.3526
 Red. masses --      1.0097
 Frc consts  --      1.3463
 IR Inten    --      0.0008

 - Thermochemistry -
 -------------------
 Temperature   298.150 Kelvin.  Pressure   1.00000 Atm.
 Atom     1 has atomic number  1 and mass   1.00783

 Molecular mass:    21.01405 amu.
 Principal axes and moments of inertia in atomic units:
                           1         2         3
     Eigenvalues --     0.00000 118.54438 118.54438
           X            1.00000  -0.00000   0.00000
           Y            0.00000   1.00000   0.00000
           Z            0.00000   0.00000   1.00000
 This molecule is a prolate symmetric top.
 Rotational symmetry number  1.
 Rotational temperature (Kelvin)      0.73065
 Rotational constant (GHZ):          15.224182
    1 imaginary frequencies ignored.
 Zero-point vibrational energy      21475.1 (Joules/Mol)
                                    5.13266 (Kcal/Mol)
 Warning -- explicit consideration of   1 degrees of freedom as
           vibrations may cause significant error
 Vibrational temperatures:    837.94  2163.35  2164.43
          (Kelvin)

 Zero-point correction=                           0.008179 (Hartree/Particle)
 Thermal correction to Energy=                    0.010719
 Thermal correction to Enthalpy=                  0.011664
 Thermal correction to Gibbs Free Energy=        -0.012512
 Sum of electronic and zero-point Energies=           -100.872571
 Sum of electronic and thermal Energies=              -100.870031
 Sum of electronic and thermal Enthalpies=            -100.869087
 Sum of electronic and thermal Free Energies=         -100.893263

                     E (Thermal)             CV                S
                      KCal/Mol        Cal/Mol-Kelvin    Cal/Mol-Kelvin
 Total                    6.727              6.185             50.883
 Electronic               0.000              0.000              1.377
 Translational            0.889              2.981             35.068
 Rotational               0.592              1.987             13.933
 Vibrational              5.245              1.217              0.504
 Vibration     1          0.939              1.069              0.481

 Normal termination of Gaussian 16 at Fri Aug 22 23:22:14 2025.
