 Gaussian 16, Revision C.01,
 Gaussian 16:  ES64L-G16RevC.01  3-Jul-2019

 -----------------------------------------
 # sp b3lyp/6-311g** Force nosymm scf=(qc)
 -----------------------------------------

 -------------------
 Title Card Required
 -------------------
 Symbolic Z-matrix:
 Charge =  0 Multiplicity = 2

                          Input orientation:
 ---------------------------------------------------------------------
 Center     Atomic      Atomic             Coordinates (Angstroms)
 Number     Number       Type             X           Y           Z
 ---------------------------------------------------------------------
      1          1           0        0.000000    0.000000    0.000000
      2          1           0       -2.100000    0.000000    0.000000
      3          9           0        2.900000    0.000000    0.000000
 ---------------------------------------------------------------------

 SCF Done:  E(UB3LYP) =  -100.773257098     a.u. after   22 cycles

 Alpha  occ. eigenvalues --  -24.73889  -1.19957  -0.53005  -0.44505  -0.44505
 Alpha  occ. eigenvalues --   -0.33737
 Alpha virt. eigenvalues --   -0.11764   0.25418   0.32275   0.89962   0.92397
 Alpha virt. eigenvalues --    0.92397   1.04596   1.20620   1.24176   1.24176
 Alpha virt. eigenvalues --    1.37064   1.37064   1.46472   2.12576   2.35637

  Beta  occ. eigenvalues --  -24.70879  -1.11337  -0.41494  -0.41494  -0.34051
  Beta virt. eigenvalues --   -0.24718  -0.10900   0.26026   0.32917   0.93851
  Beta virt. eigenvalues --    0.93851   0.98567   1.08480   1.20476   1.23762
  Beta virt. eigenvalues --    1.23762   1.38449   1.38449   1.47557   2.13779

 Mulliken charges and spin densities:
               1          2
     1  H    0.026342  -0.853439
     2  H    0.014933   0.900149
     3  F   -0.041276   0.953290
 Sum of Mulliken charges =   0.00000   1.00000

 Dipole moment (field-independent basis, Debye):
    X=             -0.7633    Y=              0.0000    Z=              0.0000  Tot=              0.7633
 Quadrupole moment (field-independent basis, Debye-Ang):
   XX=             -7.6637   YY=             -7.6903   ZZ=             -7.6903
   XY=              0.0000   XZ=              0.0000   YZ=              0.0000

  Exact polarizability:      57.143       0.000       2.005       0.000      -0.000       2.005
 Approx polarizability:      52.634       0.000       1.926       0.000       0.000       1.926

 ******    2 imaginary frequencies (negative Signs) ******

                      1                      2                      3
                      A                      A                      A
 Frequencies --  -1200.5368              -268.1315               472.2391
 Red. masses --      1.0082                 1.1080                 1.0145
 Frc consts  --      0.8562                 0.0469                 0.1333
 IR Inten    --     35.2280                32.2549                 0.3615

                      4
                      A
 Frequencies --    472.2391
 Red. masses --      1.0145
 Frc consts  --      0.1333
 IR Inten    --      0.3615

 - Thermochemistry -
 -------------------
 Temperature   298.150 Kelvin.  Pressure   1.00000 Atm.
 Atom     1 has atomic number  1 and mass   1.00783

 Molecular mass:    21.01405 amu.
 Principal axes and moments of inertia in atomic units:
                           1         2         3
     Eigenvalues --     0.00000 109.47048 109.47048
           X            1.00000  -0.00000   0.00000
           Y            0.00000   1.00000   0.00000
           Z            0.00000   0.00000   1.00000
 This molecule is a prolate symmetric top.
 Rotational symmetry number  1.
 Rotational temperature (Kelvin)      0.79121
 Rotational constant (GHZ):          16.486100
    2 imaginary frequencies ignored.
 Zero-point vibrational energy       5649.2 (Joules/Mol)
                                    1.35020 (Kcal/Mol)
 Warning -- explicit consideration of   2 degrees of freedom as
           vibrations may cause significant error
 Vibrational temperatures:    679.45   679.45
          (Kelvin)

 Zero-point correction=                           0.002152 (Hartree/Particle)
 Thermal correction to Energy=                    0.005003
 Thermal correction to Enthalpy=                  0.005947
 Thermal correction to Gibbs Free Energy=        -0.018609
 Sum of electronic and zero-point Energies=           -100.771105
 Sum of electronic and thermal Energies=              -100.768254
 Sum of electronic and thermal Enthalpies=            -100.767310
 Sum of electronic and thermal Free Energies=         -100.791866

                     E (Thermal)             CV                S
                      KCal/Mol        Cal/Mol-Kelvin    Cal/Mol-Kelvin
 Total                    3.139              7.591             51.683
 Electronic               0.000              0.000              1.377
 Translational            0.889              2.981             35.068
 Rotational               0.592              1.987             13.775
 Vibrational              1.658              2.623              1.463
 Vibration     1          0.829              1.312              0.731
 Vibration     2          0.829              1.312              0.731

 Normal termination of Gaussian 16 at Fri Aug 22 19:03:15 2025.
