 Gaussian 16, Revision C.01,
 Gaussian 16:  ES64L-G16RevC.01  3-Jul-2019

 -----------------------------------------
 # sp b3lyp/6-311g** Force nosymm scf=(qc)
 -----------------------------------------

 -------------------
 Title Card Required
 -------------------
 Symbolic Z-matrix:
 Charge =  0 Multiplicity = 2

                          Input orientation:
 ---------------------------------------------------------------------
 Center     Atomic      Atomic             Coordinates (Angstroms)
 Number     Number       Type             X           Y           Z
 ---------------------------------------------------------------------
      1          1           0        0.000000    0.000000    0.000000
      2          1           0       -1.700000    0.000000    0.000000
      3          9           0        2.700000    0.000000    0.000000
 ---------------------------------------------------------------------

 SCF Done:  E(UB3LYP) =  -100.798295326     a.u. after   20 cycles

 Alpha  occ. eigenvalues --  -24.73561  -1.19655  -0.52693  -0.44238  -0.44238
 Alpha  occ. eigenvalues --   -0.34850
 Alpha virt. eigenvalues --   -0.11910   0.24629   0.30733   0.90041   0.92560
 Alpha virt. eigenvalues --    0.92560   1.03931   1.10077   1.21990   1.21990
 Alpha virt. eigenvalues --    1.36410   1.36410   1.65929   2.15075   2.41365

  Beta  occ. eigenvalues --  -24.70587  -1.11148  -0.41265  -0.41265  -0.34617
  Beta virt. eigenvalues --   -0.24725  -0.11405   0.25879   0.30574   0.93994
  Beta virt. eigenvalues --    0.93994   0.97628   1.06075   1.13112   1.22316
  Beta virt. eigenvalues --    1.22316   1.36936   1.36936   1.66514   2.16120

 Mulliken charges and spin densities:
               1          2
     1  H    0.020288  -0.588166
     2  H    0.029929   0.646840
     3  F   -0.050216   0.941326
 Sum of Mulliken charges =  -0.00000   1.00000

 Dipole moment (field-independent basis, Debye):
    X=             -0.9348    Y=              0.0000    Z=             -0.0000  Tot=              0.9348
 Quadrupole moment (field-independent basis, Debye-Ang):
   XX=             -7.1766   YY=             -7.7152   ZZ=             -7.7152
   XY=              0.0000   XZ=             -0.0000   YZ=              0.0000

  Exact polarizability:      63.111       0.000       2.017      -0.000       0.000       2.017
 Approx polarizability:      75.257       0.000       1.971      -0.000      -0.000       1.971

 ******    2 imaginary frequencies (negative Signs) ******

                      1                      2                      3
                      A                      A                      A
 Frequencies --  -1916.8453              -299.8730               881.4568
 Red. masses --      1.0081                 1.1082                 1.0133
 Frc consts  --      2.1823                 0.0587                 0.4639
 IR Inten    --    194.6044                40.2636                 0.0475

                      4
                      A
 Frequencies --    881.4568
 Red. masses --      1.0133
 Frc consts  --      0.4639
 IR Inten    --      0.0475

 - Thermochemistry -
 -------------------
 Temperature   298.150 Kelvin.  Pressure   1.00000 Atm.
 Atom     1 has atomic number  1 and mass   1.00783

 Molecular mass:    21.01405 amu.
 Principal axes and moments of inertia in atomic units:
                           1         2         3
     Eigenvalues --     0.00000  87.21246  87.21246
           X            1.00000  -0.00000   0.00000
           Y            0.00000   1.00000   0.00000
           Z            0.00000   0.00000   1.00000
 This molecule is a prolate symmetric top.
 Rotational symmetry number  1.
 Rotational temperature (Kelvin)      0.99314
 Rotational constant (GHZ):          20.693616
    2 imaginary frequencies ignored.
 Zero-point vibrational energy      10544.6 (Joules/Mol)
                                    2.52021 (Kcal/Mol)
 Vibrational temperatures:   1268.22  1268.22
          (Kelvin)

 Zero-point correction=                           0.004016 (Hartree/Particle)
 Thermal correction to Energy=                    0.006492
 Thermal correction to Enthalpy=                  0.007437
 Thermal correction to Gibbs Free Energy=        -0.016353
 Sum of electronic and zero-point Energies=           -100.794279
 Sum of electronic and thermal Energies=              -100.791803
 Sum of electronic and thermal Enthalpies=            -100.790859
 Sum of electronic and thermal Free Energies=         -100.814648

                     E (Thermal)             CV                S
                      KCal/Mol        Cal/Mol-Kelvin    Cal/Mol-Kelvin
 Total                    4.074              6.020             50.069
 Electronic               0.000              0.000              1.377
 Translational            0.889              2.981             35.068
 Rotational               0.592              1.987             13.323
 Vibrational              2.593              1.052              0.301

 Normal termination of Gaussian 16 at Fri Aug 22 18:25:02 2025.
