 Gaussian 16, Revision C.01,
 Gaussian 16:  ES64L-G16RevC.01  3-Jul-2019

 -----------------------------------------
 # sp b3lyp/6-311g** Force nosymm scf=(qc)
 -----------------------------------------

 -------------------
 Title Card Required
 -------------------
 Symbolic Z-matrix:
 Charge =  0 Multiplicity = 2

                          Input orientation:
 ---------------------------------------------------------------------
 Center     Atomic      Atomic             Coordinates (Angstroms)
 Number     Number       Type             X           Y           Z
 ---------------------------------------------------------------------
      1          1           0        0.000000    0.000000    0.000000
      2          1           0       -2.850000    0.000000    0.000000
      3          9           0        1.550000    0.000000    0.000000
 ---------------------------------------------------------------------

 SCF Done:  E(UB3LYP) =  -100.844639190     a.u. after    7 cycles

 Alpha  occ. eigenvalues --  -24.64382  -1.09837  -0.43023  -0.36387  -0.36387
 Alpha  occ. eigenvalues --   -0.34944
 Alpha virt. eigenvalues --   -0.14862   0.21730   0.27463   0.93978   0.93978
 Alpha virt. eigenvalues --    1.02537   1.08442   1.22572   1.22572   1.23503
 Alpha virt. eigenvalues --    1.31526   1.31526   1.74429   2.13457   2.19827

  Beta  occ. eigenvalues --  -24.63981  -1.08768  -0.42082  -0.36004  -0.36004
  Beta virt. eigenvalues --   -0.16425  -0.07945   0.23888   0.36599   0.93811
  Beta virt. eigenvalues --    0.93811   1.03348   1.08385   1.29472   1.29472
  Beta virt. eigenvalues --    1.43872   1.43967   1.43967   1.73677   2.16699

 Mulliken charges and spin densities:
               1          2
     1  H    0.335136  -0.116096
     2  H    0.009675   0.989168
     3  F   -0.344811   0.126928
 Sum of Mulliken charges =  -0.00000   1.00000

 Dipole moment (field-independent basis, Debye):
    X=             -2.7500    Y=             -0.0000    Z=             -0.0000  Tot=              2.7500
 Quadrupole moment (field-independent basis, Debye-Ang):
   XX=             -9.7396   YY=             -7.3524   ZZ=             -7.3524
   XY=             -0.0000   XZ=             -0.0000   YZ=             -0.0000

  Exact polarizability:      21.431       0.000       2.171      -0.000       0.000       2.171
 Approx polarizability:      35.640      -0.000       2.093       0.000       0.000       2.093

 ******    2 imaginary frequencies (negative Signs) ******

                      1                      2                      3
                      A                      A                      A
 Frequencies --  -1643.2818              -189.7481               958.5106
 Red. masses --      1.0538                 1.0577                 1.0267
 Frc consts  --      1.6767                 0.0224                 0.5558
 IR Inten    --      3.2662                 2.0979               102.2965

                      4
                      A
 Frequencies --    958.5106
 Red. masses --      1.0267
 Frc consts  --      0.5558
 IR Inten    --    102.2965

 - Thermochemistry -
 -------------------
 Temperature   298.150 Kelvin.  Pressure   1.00000 Atm.
 Atom     1 has atomic number  1 and mass   1.00783

 Molecular mass:    21.01405 amu.
 Principal axes and moments of inertia in atomic units:
                           1         2         3
     Eigenvalues --     0.00000  72.21271  72.21271
           X            1.00000  -0.00000   0.00000
           Y            0.00000   1.00000   0.00000
           Z            0.00000   0.00000   1.00000
 This molecule is a prolate symmetric top.
 Rotational symmetry number  1.
 Rotational temperature (Kelvin)      1.19943
 Rotational constant (GHZ):          24.992017
    2 imaginary frequencies ignored.
 Zero-point vibrational energy      11466.3 (Joules/Mol)
                                    2.74052 (Kcal/Mol)
 Vibrational temperatures:   1379.08  1379.08
          (Kelvin)

 Zero-point correction=                           0.004367 (Hartree/Particle)
 Thermal correction to Energy=                    0.006814
 Thermal correction to Enthalpy=                  0.007758
 Thermal correction to Gibbs Free Energy=        -0.015815
 Sum of electronic and zero-point Energies=           -100.840272
 Sum of electronic and thermal Energies=              -100.837825
 Sum of electronic and thermal Enthalpies=            -100.836881
 Sum of electronic and thermal Free Energies=         -100.860454

                     E (Thermal)             CV                S
                      KCal/Mol        Cal/Mol-Kelvin    Cal/Mol-Kelvin
 Total                    4.276              5.818             49.615
 Electronic               0.000              0.000              1.377
 Translational            0.889              2.981             35.068
 Rotational               0.592              1.987             12.948
 Vibrational              2.795              0.850              0.221

 Normal termination of Gaussian 16 at Fri Aug 22 16:29:00 2025.
