 Gaussian 16, Revision C.01,
 Gaussian 16:  ES64L-G16RevC.01  3-Jul-2019

 -----------------------------------------
 # sp b3lyp/6-311g** Force nosymm scf=(qc)
 -----------------------------------------

 -------------------
 Title Card Required
 -------------------
 Symbolic Z-matrix:
 Charge =  0 Multiplicity = 2

                          Input orientation:
 ---------------------------------------------------------------------
 Center     Atomic      Atomic             Coordinates (Angstroms)
 Number     Number       Type             X           Y           Z
 ---------------------------------------------------------------------
      1          1           0        0.000000    0.000000    0.000000
      2          1           0       -2.850000    0.000000    0.000000
      3          9           0        1.200000    0.000000    0.000000
 ---------------------------------------------------------------------

 SCF Done:  E(UB3LYP) =  -100.925855667     a.u. after    6 cycles

 Alpha  occ. eigenvalues --  -24.64264  -1.12205  -0.47707  -0.37454  -0.37454
 Alpha  occ. eigenvalues --   -0.34645
 Alpha virt. eigenvalues --   -0.05380   0.23761   0.28738   0.93249   0.93249
 Alpha virt. eigenvalues --    1.00855   1.22503   1.22889   1.22889   1.28542
 Alpha virt. eigenvalues --    1.34712   1.34712   1.73551   2.14031   2.29115

  Beta  occ. eigenvalues --  -24.64244  -1.12155  -0.47636  -0.37436  -0.37436
  Beta virt. eigenvalues --   -0.09916  -0.03265   0.27805   0.37366   0.93248
  Beta virt. eigenvalues --    0.93248   1.00899   1.27240   1.34671   1.34671
  Beta virt. eigenvalues --    1.45202   1.45202   1.45334   1.73793   2.29051

 Mulliken charges and spin densities:
               1          2
     1  H    0.349887   0.000017
     2  H    0.005170   0.993804
     3  F   -0.355057   0.006178
 Sum of Mulliken charges =  -0.00000   1.00000

 Dipole moment (field-independent basis, Debye):
    X=             -2.3523    Y=             -0.0000    Z=              0.0000  Tot=              2.3523
 Quadrupole moment (field-independent basis, Debye-Ang):
   XX=             -8.6881   YY=             -7.1271   ZZ=             -7.1271
   XY=             -0.0000   XZ=              0.0000   YZ=             -0.0000

  Exact polarizability:      11.229       0.000       2.335       0.000      -0.000       2.335
 Approx polarizability:      14.986       0.000       2.292       0.000      -0.000       2.292

 ******    1 imaginary frequencies (negative Signs) ******

                      1                      2                      3
                      A                      A                      A
 Frequencies --   -123.2278               980.7449              1191.1846
 Red. masses --      1.0503                 1.0614                 1.0308
 Frc consts  --      0.0094                 0.6015                 0.8618
 IR Inten    --      1.4673                90.6837               138.6921

                      4
                      A
 Frequencies --   1191.1846
 Red. masses --      1.0308
 Frc consts  --      0.8618
 IR Inten    --    138.6921

 - Thermochemistry -
 -------------------
 Temperature   298.150 Kelvin.  Pressure   1.00000 Atm.
 Atom     1 has atomic number  1 and mass   1.00783

 Molecular mass:    21.01405 amu.
 Principal axes and moments of inertia in atomic units:
                           1         2         3
     Eigenvalues --     0.00000  59.45783  59.45783
           X            1.00000  -0.00000   0.00000
           Y            0.00000   1.00000   0.00000
           Z            0.00000   0.00000   1.00000
 This molecule is a prolate symmetric top.
 Rotational symmetry number  1.
 Rotational temperature (Kelvin)      1.45673
 Rotational constant (GHZ):          30.353297
    1 imaginary frequencies ignored.
 Zero-point vibrational energy      20115.9 (Joules/Mol)
                                    4.80781 (Kcal/Mol)
 Vibrational temperatures:   1411.07  1713.85  1713.85
          (Kelvin)

 Zero-point correction=                           0.007662 (Hartree/Particle)
 Thermal correction to Energy=                    0.010097
 Thermal correction to Enthalpy=                  0.011041
 Thermal correction to Gibbs Free Energy=        -0.012333
 Sum of electronic and zero-point Energies=           -100.918194
 Sum of electronic and thermal Energies=              -100.915759
 Sum of electronic and thermal Enthalpies=            -100.914815
 Sum of electronic and thermal Free Energies=         -100.938189

                     E (Thermal)             CV                S
                      KCal/Mol        Cal/Mol-Kelvin    Cal/Mol-Kelvin
 Total                    6.336              5.788             49.194
 Electronic               0.000              0.000              1.377
 Translational            0.889              2.981             35.068
 Rotational               0.592              1.987             12.562
 Vibrational              4.855              0.820              0.187

 Normal termination of Gaussian 16 at Fri Aug 22 16:10:44 2025.
