 Gaussian 16, Revision C.01,
 Gaussian 16:  ES64L-G16RevC.01  3-Jul-2019

 -----------------------------------------
 # sp b3lyp/6-311g** Force nosymm scf=(qc)
 -----------------------------------------

 -------------------
 Title Card Required
 -------------------
 Symbolic Z-matrix:
 Charge =  0 Multiplicity = 2

                          Input orientation:
 ---------------------------------------------------------------------
 Center     Atomic      Atomic             Coordinates (Angstroms)
 Number     Number       Type             X           Y           Z
 ---------------------------------------------------------------------
      1          1           0        0.000000    0.000000    0.000000
      2          1           0       -1.950000    0.000000    0.000000
      3          9           0        3.100000    0.000000    0.000000
 ---------------------------------------------------------------------

 SCF Done:  E(UB3LYP) =  -100.778050330     a.u. after   28 cycles

 Alpha  occ. eigenvalues --  -24.74728  -1.20738  -0.53849  -0.45215  -0.45215
 Alpha  occ. eigenvalues --   -0.33615
 Alpha virt. eigenvalues --   -0.11603   0.25555   0.31618   0.89213   0.91876
 Alpha virt. eigenvalues --    0.91876   1.03364   1.14889   1.24341   1.24341
 Alpha virt. eigenvalues --    1.36862   1.36862   1.52713   2.12728   2.37278

  Beta  occ. eigenvalues --  -24.71664  -1.11945  -0.42146  -0.42146  -0.33693
  Beta virt. eigenvalues --   -0.25207  -0.11144   0.25853   0.32114   0.93349
  Beta virt. eigenvalues --    0.93349   0.98063   1.07307   1.14924   1.24215
  Beta virt. eigenvalues --    1.24215   1.37529   1.37529   1.53240   2.13790

 Mulliken charges and spin densities:
               1          2
     1  H    0.011679  -0.806857
     2  H    0.013442   0.835628
     3  F   -0.025121   0.971229
 Sum of Mulliken charges =   0.00000   1.00000

 Dipole moment (field-independent basis, Debye):
    X=             -0.5239    Y=             -0.0000    Z=             -0.0000  Tot=              0.5239
 Quadrupole moment (field-independent basis, Debye-Ang):
   XX=             -7.0739   YY=             -7.7224   ZZ=             -7.7224
   XY=             -0.0000   XZ=             -0.0000   YZ=             -0.0000

  Exact polarizability:      57.343      -0.000       2.007      -0.000      -0.000       2.007
 Approx polarizability:      52.904      -0.000       1.937      -0.000       0.000       1.937

 ******    2 imaginary frequencies (negative Signs) ******

                      1                      2                      3
                      A                      A                      A
 Frequencies --  -1455.5693              -213.0503               598.4468
 Red. masses --      1.0079                 1.1084                 1.0133
 Frc consts  --      1.2582                 0.0296                 0.2138
 IR Inten    --     37.5534                23.0968                 0.0331

                      4
                      A
 Frequencies --    598.4468
 Red. masses --      1.0133
 Frc consts  --      0.2138
 IR Inten    --      0.0331

 - Thermochemistry -
 -------------------
 Temperature   298.150 Kelvin.  Pressure   1.00000 Atm.
 Atom     1 has atomic number  1 and mass   1.00783

 Molecular mass:    21.01405 amu.
 Principal axes and moments of inertia in atomic units:
                           1         2         3
     Eigenvalues --     0.00000 114.90520 114.90520
           X            1.00000  -0.00000   0.00000
           Y            0.00000   1.00000   0.00000
           Z            0.00000   0.00000   1.00000
 This molecule is a prolate symmetric top.
 Rotational symmetry number  1.
 Rotational temperature (Kelvin)      0.75379
 Rotational constant (GHZ):          15.706349
    2 imaginary frequencies ignored.
 Zero-point vibrational energy       7159.0 (Joules/Mol)
                                    1.71105 (Kcal/Mol)
 Warning -- explicit consideration of   2 degrees of freedom as
           vibrations may cause significant error
 Vibrational temperatures:    861.03   861.03
          (Kelvin)

 Zero-point correction=                           0.002727 (Hartree/Particle)
 Thermal correction to Energy=                    0.005409
 Thermal correction to Enthalpy=                  0.006353
 Thermal correction to Gibbs Free Energy=        -0.017984
 Sum of electronic and zero-point Energies=           -100.775324
 Sum of electronic and thermal Energies=              -100.772642
 Sum of electronic and thermal Enthalpies=            -100.771697
 Sum of electronic and thermal Free Energies=         -100.796034

                     E (Thermal)             CV                S
                      KCal/Mol        Cal/Mol-Kelvin    Cal/Mol-Kelvin
 Total                    3.394              7.038             51.221
 Electronic               0.000              0.000              1.377
 Translational            0.889              2.981             35.068
 Rotational               0.592              1.987             13.871
 Vibrational              1.913              2.070              0.905
 Vibration     1          0.956              1.035              0.452
 Vibration     2          0.956              1.035              0.452

 Normal termination of Gaussian 16 at Fri Aug 22 19:54:26 2025.
