 Gaussian 16, Revision C.01,
 Gaussian 16:  ES64L-G16RevC.01  3-Jul-2019

 -----------------------------------------
 # sp b3lyp/6-311g** Force nosymm scf=(qc)
 -----------------------------------------

 -------------------
 Title Card Required
 -------------------
 Symbolic Z-matrix:
 Charge =  0 Multiplicity = 2

                          Input orientation:
 ---------------------------------------------------------------------
 Center     Atomic      Atomic             Coordinates (Angstroms)
 Number     Number       Type             X           Y           Z
 ---------------------------------------------------------------------
      1          1           0        0.000000    0.000000    0.000000
      2          1           0       -1.550000    0.000000    0.000000
      3          9           0        2.900000    0.000000    0.000000
 ---------------------------------------------------------------------

 SCF Done:  E(UB3LYP) =  -100.813891427     a.u. after   29 cycles

 Alpha  occ. eigenvalues --  -24.74887  -1.20891  -0.54025  -0.45362  -0.45362
 Alpha  occ. eigenvalues --   -0.34615
 Alpha virt. eigenvalues --   -0.10809   0.24487   0.30216   0.89767   0.91738
 Alpha virt. eigenvalues --    0.91738   1.04354   1.06511   1.20243   1.20243
 Alpha virt. eigenvalues --    1.39370   1.39370   1.77411   2.19779   2.45531

  Beta  occ. eigenvalues --  -24.71826  -1.12109  -0.42297  -0.42297  -0.34376
  Beta virt. eigenvalues --   -0.25484  -0.10476   0.25023   0.30461   0.93203
  Beta virt. eigenvalues --    0.93203   0.98256   1.06018   1.09371   1.20511
  Beta virt. eigenvalues --    1.20511   1.39617   1.39617   1.77828   2.20535

 Mulliken charges and spin densities:
               1          2
     1  H    0.002729  -0.366104
     2  H    0.022042   0.396330
     3  F   -0.024771   0.969774
 Sum of Mulliken charges =   0.00000   1.00000

 Dipole moment (field-independent basis, Debye):
    X=             -0.5281    Y=             -0.0000    Z=             -0.0000  Tot=              0.5281
 Quadrupole moment (field-independent basis, Debye-Ang):
   XX=             -6.3790   YY=             -7.7317   ZZ=             -7.7317
   XY=             -0.0000   XZ=             -0.0000   YZ=             -0.0000

  Exact polarizability:      55.393      -0.000       2.046      -0.000      -0.000       2.046
 Approx polarizability:      70.261      -0.000       2.014      -0.000       0.000       2.014

 ******    2 imaginary frequencies (negative Signs) ******

                      1                      2                      3
                      A                      A                      A
 Frequencies --  -2093.5963              -211.8089              1104.9451
 Red. masses --      1.0079                 1.1084                 1.0121
 Frc consts  --      2.6030                 0.0293                 0.7281
 IR Inten    --    274.5864                21.5519                 0.0172

                      4
                      A
 Frequencies --   1104.9451
 Red. masses --      1.0121
 Frc consts  --      0.7281
 IR Inten    --      0.0172

 - Thermochemistry -
 -------------------
 Temperature   298.150 Kelvin.  Pressure   1.00000 Atm.
 Atom     1 has atomic number  1 and mass   1.00783

 Molecular mass:    21.01405 amu.
 Principal axes and moments of inertia in atomic units:
                           1         2         3
     Eigenvalues --     0.00000  92.21237  92.21237
           X            1.00000  -0.00000   0.00000
           Y            0.00000   1.00000   0.00000
           Z            0.00000   0.00000   1.00000
 This molecule is a prolate symmetric top.
 Rotational symmetry number  1.
 Rotational temperature (Kelvin)      0.93929
 Rotational constant (GHZ):          19.571573
    2 imaginary frequencies ignored.
 Zero-point vibrational energy      13218.1 (Joules/Mol)
                                    3.15920 (Kcal/Mol)
 Vibrational temperatures:   1589.77  1589.77
          (Kelvin)

 Zero-point correction=                           0.005035 (Hartree/Particle)
 Thermal correction to Energy=                    0.007444
 Thermal correction to Enthalpy=                  0.008388
 Thermal correction to Gibbs Free Energy=        -0.015369
 Sum of electronic and zero-point Energies=           -100.808857
 Sum of electronic and thermal Energies=              -100.806448
 Sum of electronic and thermal Enthalpies=            -100.805503
 Sum of electronic and thermal Free Energies=         -100.829261

                     E (Thermal)             CV                S
                      KCal/Mol        Cal/Mol-Kelvin    Cal/Mol-Kelvin
 Total                    4.671              5.520             50.002
 Electronic               0.000              0.000              1.377
 Translational            0.889              2.981             35.068
 Rotational               0.592              1.987             13.434
 Vibrational              3.190              0.552              0.122

 Normal termination of Gaussian 16 at Fri Aug 22 19:02:18 2025.
