 Gaussian 16, Revision C.01,
 Gaussian 16:  ES64L-G16RevC.01  3-Jul-2019

 -----------------------------------------
 # sp b3lyp/6-311g** Force nosymm scf=(qc)
 -----------------------------------------

 -------------------
 Title Card Required
 -------------------
 Symbolic Z-matrix:
 Charge =  0 Multiplicity = 2

                          Input orientation:
 ---------------------------------------------------------------------
 Center     Atomic      Atomic             Coordinates (Angstroms)
 Number     Number       Type             X           Y           Z
 ---------------------------------------------------------------------
      1          1           0        0.000000    0.000000    0.000000
      2          1           0       -3.200000    0.000000    0.000000
      3          9           0        1.600000    0.000000    0.000000
 ---------------------------------------------------------------------

 SCF Done:  E(UB3LYP) =  -100.834252087     a.u. after   12 cycles

 Alpha  occ. eigenvalues --  -24.64859  -1.10511  -0.43358  -0.36783  -0.36783
 Alpha  occ. eigenvalues --   -0.34331
 Alpha virt. eigenvalues --   -0.15236   0.21065   0.28381   0.94193   0.94193
 Alpha virt. eigenvalues --    1.00487   1.07135   1.23191   1.23191   1.23465
 Alpha virt. eigenvalues --    1.32117   1.32117   1.74403   2.13676   2.20889

  Beta  occ. eigenvalues --  -24.64021  -1.08261  -0.41382  -0.35979  -0.35979
  Beta virt. eigenvalues --   -0.17200  -0.07531   0.22609   0.37442   0.93886
  Beta virt. eigenvalues --    0.93886   1.01362   1.07403   1.27682   1.27682
  Beta virt. eigenvalues --    1.44716   1.45158   1.45158   1.72365   2.14387

 Mulliken charges and spin densities:
               1          2
     1  H    0.326030  -0.259890
     2  H    0.004398   0.995007
     3  F   -0.330428   0.264884
 Sum of Mulliken charges =  -0.00000   1.00000

 Dipole moment (field-independent basis, Debye):
    X=             -2.6505    Y=             -0.0000    Z=              0.0000  Tot=              2.6505
 Quadrupole moment (field-independent basis, Debye-Ang):
   XX=            -10.0147   YY=             -7.3731   ZZ=             -7.3731
   XY=             -0.0000   XZ=              0.0000   YZ=              0.0000

  Exact polarizability:      21.178      -0.000       2.149      -0.000       0.000       2.149
 Approx polarizability:      35.422      -0.000       2.063       0.000       0.000       2.063

 ******    2 imaginary frequencies (negative Signs) ******

                      1                      2                      3
                      A                      A                      A
 Frequencies --  -1893.6806              -141.6424               903.2676
 Red. masses --      1.0570                 1.0546                 1.0281
 Frc consts  --      2.2332                 0.0125                 0.4942
 IR Inten    --     52.4994                 0.9755                98.7303

                      4
                      A
 Frequencies --    903.2676
 Red. masses --      1.0281
 Frc consts  --      0.4942
 IR Inten    --     98.7303

 - Thermochemistry -
 -------------------
 Temperature   298.150 Kelvin.  Pressure   1.00000 Atm.
 Atom     1 has atomic number  1 and mass   1.00783

 Molecular mass:    21.01405 amu.
 Principal axes and moments of inertia in atomic units:
                           1         2         3
     Eigenvalues --     0.00000  85.06464  85.06464
           X            1.00000  -0.00000   0.00000
           Y            0.00000   1.00000   0.00000
           Z            0.00000   0.00000   1.00000
 This molecule is a prolate symmetric top.
 Rotational symmetry number  1.
 Rotational temperature (Kelvin)      1.01821
 Rotational constant (GHZ):          21.216115
    2 imaginary frequencies ignored.
 Zero-point vibrational energy      10805.5 (Joules/Mol)
                                    2.58257 (Kcal/Mol)
 Vibrational temperatures:   1299.60  1299.60
          (Kelvin)

 Zero-point correction=                           0.004116 (Hartree/Particle)
 Thermal correction to Energy=                    0.006583
 Thermal correction to Enthalpy=                  0.007527
 Thermal correction to Gibbs Free Energy=        -0.016227
 Sum of electronic and zero-point Energies=           -100.830136
 Sum of electronic and thermal Energies=              -100.827669
 Sum of electronic and thermal Enthalpies=            -100.826725
 Sum of electronic and thermal Free Energies=         -100.850479

                     E (Thermal)             CV                S
                      KCal/Mol        Cal/Mol-Kelvin    Cal/Mol-Kelvin
 Total                    4.131              5.959             49.995
 Electronic               0.000              0.000              1.377
 Translational            0.889              2.981             35.068
 Rotational               0.592              1.987             13.274
 Vibrational              2.650              0.991              0.276

 Normal termination of Gaussian 16 at Fri Aug 22 16:32:14 2025.
