 Gaussian 16, Revision C.01,
 Gaussian 16:  ES64L-G16RevC.01  3-Jul-2019

 -----------------------------------------
 # sp b3lyp/6-311g** Force nosymm scf=(qc)
 -----------------------------------------

 -------------------
 Title Card Required
 -------------------
 Symbolic Z-matrix:
 Charge =  0 Multiplicity = 2

                          Input orientation:
 ---------------------------------------------------------------------
 Center     Atomic      Atomic             Coordinates (Angstroms)
 Number     Number       Type             X           Y           Z
 ---------------------------------------------------------------------
      1          1           0        0.000000    0.000000    0.000000
      2          1           0       -2.700000    0.000000    0.000000
      3          9           0        3.150000    0.000000    0.000000
 ---------------------------------------------------------------------

 SCF Done:  E(UB3LYP) =  -100.762375667     a.u. after   25 cycles

 Alpha  occ. eigenvalues --  -24.74625  -1.20643  -0.53744  -0.45126  -0.45126
 Alpha  occ. eigenvalues --   -0.32772
 Alpha virt. eigenvalues --   -0.09490   0.25242   0.34364   0.88922   0.91949
 Alpha virt. eigenvalues --    0.91949   1.03117   1.24815   1.24815   1.26297
 Alpha virt. eigenvalues --    1.41603   1.41603   1.42349   2.15782   2.37976

  Beta  occ. eigenvalues --  -24.71562  -1.11855  -0.42058  -0.42058  -0.33461
  Beta virt. eigenvalues --   -0.25086  -0.08475   0.25169   0.35650   0.93422
  Beta virt. eigenvalues --    0.93422   0.97831   1.07034   1.23995   1.23995
  Beta virt. eigenvalues --    1.25351   1.43235   1.43235   1.43883   2.16537

 Mulliken charges and spin densities:
               1          2
     1  H    0.023598  -0.954137
     2  H    0.002700   0.983277
     3  F   -0.026298   0.970860
 Sum of Mulliken charges =  -0.00000   1.00000

 Dipole moment (field-independent basis, Debye):
    X=             -0.4602    Y=              0.0000    Z=              0.0000  Tot=              0.4602
 Quadrupole moment (field-independent basis, Debye-Ang):
   XX=             -7.7836   YY=             -7.6428   ZZ=             -7.6428
   XY=             -0.0000   XZ=             -0.0000   YZ=             -0.0000

  Exact polarizability:      37.659      -0.000       2.020      -0.000      -0.000       2.020
 Approx polarizability:      32.774      -0.000       1.925      -0.000       0.000       1.925

 ******    2 imaginary frequencies (negative Signs) ******

                      1                      2                      3
                      A                      A                      A
 Frequencies --   -540.4358              -194.3577               198.8575
 Red. masses --      1.0109                 1.1048                 1.0162
 Frc consts  --      0.1740                 0.0246                 0.0237
 IR Inten    --     18.8379                11.9312                 0.4562

                      4
                      A
 Frequencies --    198.8575
 Red. masses --      1.0162
 Frc consts  --      0.0237
 IR Inten    --      0.4562

 - Thermochemistry -
 -------------------
 Temperature   298.150 Kelvin.  Pressure   1.00000 Atm.
 Atom     1 has atomic number  1 and mass   1.00783

 Molecular mass:    21.01405 amu.
 Principal axes and moments of inertia in atomic units:
                           1         2         3
     Eigenvalues --     0.00000 144.89707 144.89707
           X            1.00000  -0.00000   0.00000
           Y            0.00000   1.00000   0.00000
           Z            0.00000   0.00000   1.00000
 This molecule is a prolate symmetric top.
 Rotational symmetry number  1.
 Rotational temperature (Kelvin)      0.59776
 Rotational constant (GHZ):          12.455332
    2 imaginary frequencies ignored.
 Zero-point vibrational energy       2378.9 (Joules/Mol)
                                    0.56856 (Kcal/Mol)
 Warning -- explicit consideration of   2 degrees of freedom as
           vibrations may cause significant error
 Vibrational temperatures:    286.11   286.11
          (Kelvin)

 Zero-point correction=                           0.000906 (Hartree/Particle)
 Thermal correction to Energy=                    0.004392
 Thermal correction to Enthalpy=                  0.005336
 Thermal correction to Gibbs Free Energy=        -0.020827
 Sum of electronic and zero-point Energies=           -100.761470
 Sum of electronic and thermal Energies=              -100.757984
 Sum of electronic and thermal Enthalpies=            -100.757040
 Sum of electronic and thermal Free Energies=         -100.783203

                     E (Thermal)             CV                S
                      KCal/Mol        Cal/Mol-Kelvin    Cal/Mol-Kelvin
 Total                    2.756              8.651             55.065
 Electronic               0.000              0.000              1.377
 Translational            0.889              2.981             35.068
 Rotational               0.592              1.987             14.332
 Vibrational              1.275              3.683              4.287
 Vibration     1          0.637              1.841              2.144
 Vibration     2          0.637              1.841              2.144

 Normal termination of Gaussian 16 at Fri Aug 22 20:10:51 2025.
