 Gaussian 16, Revision C.01,
 Gaussian 16:  ES64L-G16RevC.01  3-Jul-2019

 -----------------------------------------
 # sp b3lyp/6-311g** Force nosymm scf=(qc)
 -----------------------------------------

 -------------------
 Title Card Required
 -------------------
 Symbolic Z-matrix:
 Charge =  0 Multiplicity = 2

                          Input orientation:
 ---------------------------------------------------------------------
 Center     Atomic      Atomic             Coordinates (Angstroms)
 Number     Number       Type             X           Y           Z
 ---------------------------------------------------------------------
      1          1           0        0.000000    0.000000    0.000000
      2          1           0       -0.800000    0.000000    0.000000
      3          9           0        1.100000    0.000000    0.000000
 ---------------------------------------------------------------------

 SCF Done:  E(UB3LYP) =  -100.945406048     a.u. after    6 cycles

 Alpha  occ. eigenvalues --  -24.66775  -1.17618  -0.60205  -0.40550  -0.40550
 Alpha  occ. eigenvalues --   -0.37090
 Alpha virt. eigenvalues --    0.12190   0.18707   0.48679   0.87955   0.87955
 Alpha virt. eigenvalues --    0.96427   1.09006   1.09006   1.45123   1.68108
 Alpha virt. eigenvalues --    1.73816   1.73816   2.09665   2.33038   3.23315

  Beta  occ. eigenvalues --  -24.65112  -1.13382  -0.52446  -0.39024  -0.39024
  Beta virt. eigenvalues --   -0.19644   0.14170   0.20138   0.53666   0.89657
  Beta virt. eigenvalues --    0.89657   0.99907   1.13232   1.13232   1.47665
  Beta virt. eigenvalues --    1.75165   1.77435   1.77435   2.09917   2.41108

 Mulliken charges and spin densities:
               1          2
     1  H    0.268546  -0.029520
     2  H   -0.005964   0.579358
     3  F   -0.262582   0.450161
 Sum of Mulliken charges =   0.00000   1.00000

 Dipole moment (field-independent basis, Debye):
    X=             -1.7019    Y=              0.0000    Z=             -0.0000  Tot=              1.7019
 Quadrupole moment (field-independent basis, Debye-Ang):
   XX=             -7.4752   YY=             -6.6327   ZZ=             -6.6327
   XY=              0.0000   XZ=             -0.0000   YZ=             -0.0000

  Exact polarizability:      16.116      -0.000       2.523       0.000       0.000       2.523
 Approx polarizability:      20.366       0.000       2.560       0.000       0.000       2.560

 ******    2 imaginary frequencies (negative Signs) ******

                      1                      2                      3
                      A                      A                      A
 Frequencies --  -1197.3320             -1197.3320              1117.0747
 Red. masses --      1.0145                 1.0145                 1.1003
 Frc consts  --      0.8569                 0.8569                 0.8090
 IR Inten    --     23.5546                23.5546                14.9227

                      4
                      A
 Frequencies --   2888.2126
 Red. masses --      1.0147
 Frc consts  --      4.9869
 IR Inten    --    270.8324

 - Thermochemistry -
 -------------------
 Temperature   298.150 Kelvin.  Pressure   1.00000 Atm.
 Atom     1 has atomic number  1 and mass   1.00783

 Molecular mass:    21.01405 amu.
 Principal axes and moments of inertia in atomic units:
                           1         2         3
     Eigenvalues --     0.00000  15.79376  15.79376
           X            1.00000  -0.00000   0.00000
           Y            0.00000   1.00000   0.00000
           Z            0.00000   0.00000   1.00000
 This molecule is a prolate symmetric top.
 Rotational symmetry number  1.
 Rotational temperature (Kelvin)      5.48406
 Rotational constant (GHZ):         114.269264
    2 imaginary frequencies ignored.
 Zero-point vibrational energy      23956.9 (Joules/Mol)
                                    5.72585 (Kcal/Mol)
 Vibrational temperatures:   1607.22  4155.49
          (Kelvin)

 Zero-point correction=                           0.009125 (Hartree/Particle)
 Thermal correction to Energy=                    0.011509
 Thermal correction to Enthalpy=                  0.012453
 Thermal correction to Gibbs Free Energy=        -0.009608
 Sum of electronic and zero-point Energies=           -100.936281
 Sum of electronic and thermal Energies=              -100.933898
 Sum of electronic and thermal Enthalpies=            -100.932953
 Sum of electronic and thermal Free Energies=         -100.955014

                     E (Thermal)             CV                S
                      KCal/Mol        Cal/Mol-Kelvin    Cal/Mol-Kelvin
 Total                    7.222              5.234             46.431
 Electronic               0.000              0.000              1.377
 Translational            0.889              2.981             35.068
 Rotational               0.592              1.987              9.928
 Vibrational              5.740              0.266              0.058

 Normal termination of Gaussian 16 at Fri Aug 22 16:04:29 2025.
