 Gaussian 16, Revision C.01,
 Gaussian 16:  ES64L-G16RevC.01  3-Jul-2019

 -----------------------------------------
 # sp b3lyp/6-311g** Force nosymm scf=(qc)
 -----------------------------------------

 -------------------
 Title Card Required
 -------------------
 Symbolic Z-matrix:
 Charge =  0 Multiplicity = 2

                          Input orientation:
 ---------------------------------------------------------------------
 Center     Atomic      Atomic             Coordinates (Angstroms)
 Number     Number       Type             X           Y           Z
 ---------------------------------------------------------------------
      1          1           0        0.000000    0.000000    0.000000
      2          1           0       -1.650000    0.000000    0.000000
      3          9           0        2.300000    0.000000    0.000000
 ---------------------------------------------------------------------

 SCF Done:  E(UB3LYP) =  -100.809585131     a.u. after   17 cycles

 Alpha  occ. eigenvalues --  -24.71356  -1.17594  -0.50538  -0.42392  -0.42392
 Alpha  occ. eigenvalues --   -0.36295
 Alpha virt. eigenvalues --   -0.12074   0.23670   0.31204   0.87058   0.93692
 Alpha virt. eigenvalues --    0.93692   1.02800   1.19295   1.20015   1.20015
 Alpha virt. eigenvalues --    1.36018   1.36018   1.69002   2.15420   2.41010

  Beta  occ. eigenvalues --  -24.68575  -1.09698  -0.39624  -0.39624  -0.35910
  Beta virt. eigenvalues --   -0.23753  -0.11155   0.25715   0.30692   0.91956
  Beta virt. eigenvalues --    0.94980   0.94980   1.06440   1.20979   1.20979
  Beta virt. eigenvalues --    1.23423   1.36744   1.36744   1.69737   2.16363

 Mulliken charges and spin densities:
               1          2
     1  H    0.053382  -0.511553
     2  H    0.048005   0.634158
     3  F   -0.101387   0.877396
 Sum of Mulliken charges =   0.00000   1.00000

 Dipole moment (field-independent basis, Debye):
    X=             -1.5565    Y=             -0.0000    Z=             -0.0000  Tot=              1.5565
 Quadrupole moment (field-independent basis, Debye-Ang):
   XX=             -7.6682   YY=             -7.6417   ZZ=             -7.6417
   XY=             -0.0000   XZ=             -0.0000   YZ=             -0.0000

  Exact polarizability:      59.854       0.000       2.043       0.000       0.000       2.043
 Approx polarizability:      81.134      -0.000       1.992      -0.000       0.000       1.992

 ******    2 imaginary frequencies (negative Signs) ******

                      1                      2                      3
                      A                      A                      A
 Frequencies --  -1998.8460              -425.4551               927.4362
 Red. masses --      1.0091                 1.1070                 1.0144
 Frc consts  --      2.3755                 0.1181                 0.5141
 IR Inten    --    375.9390                44.1906                 0.7529

                      4
                      A
 Frequencies --    927.4362
 Red. masses --      1.0144
 Frc consts  --      0.5141
 IR Inten    --      0.7529

 - Thermochemistry -
 -------------------
 Temperature   298.150 Kelvin.  Pressure   1.00000 Atm.
 Atom     1 has atomic number  1 and mass   1.00783

 Molecular mass:    21.01405 amu.
 Principal axes and moments of inertia in atomic units:
                           1         2         3
     Eigenvalues --     0.00000  68.44983  68.44983
           X            1.00000  -0.00000   0.00000
           Y            0.00000   1.00000   0.00000
           Z            0.00000   0.00000   1.00000
 This molecule is a prolate symmetric top.
 Rotational symmetry number  1.
 Rotational temperature (Kelvin)      1.26536
 Rotational constant (GHZ):          26.365898
    2 imaginary frequencies ignored.
 Zero-point vibrational energy      11094.6 (Joules/Mol)
                                    2.65167 (Kcal/Mol)
 Vibrational temperatures:   1334.37  1334.37
          (Kelvin)

 Zero-point correction=                           0.004226 (Hartree/Particle)
 Thermal correction to Energy=                    0.006683
 Thermal correction to Enthalpy=                  0.007628
 Thermal correction to Gibbs Free Energy=        -0.015909
 Sum of electronic and zero-point Energies=           -100.805359
 Sum of electronic and thermal Energies=              -100.802902
 Sum of electronic and thermal Enthalpies=            -100.801957
 Sum of electronic and thermal Free Energies=         -100.825494

                     E (Thermal)             CV                S
                      KCal/Mol        Cal/Mol-Kelvin    Cal/Mol-Kelvin
 Total                    4.194              5.895             49.538
 Electronic               0.000              0.000              1.377
 Translational            0.889              2.981             35.068
 Rotational               0.592              1.987             12.842
 Vibrational              2.713              0.927              0.250

 Normal termination of Gaussian 16 at Fri Aug 22 17:21:31 2025.
