 Gaussian 16, Revision C.01,
 Gaussian 16:  ES64L-G16RevC.01  3-Jul-2019

 -----------------------------------------
 # sp b3lyp/6-311g** Force nosymm scf=(qc)
 -----------------------------------------

 -------------------
 Title Card Required
 -------------------
 Symbolic Z-matrix:
 Charge =  0 Multiplicity = 2

                          Input orientation:
 ---------------------------------------------------------------------
 Center     Atomic      Atomic             Coordinates (Angstroms)
 Number     Number       Type             X           Y           Z
 ---------------------------------------------------------------------
      1          1           0        0.000000    0.000000    0.000000
      2          1           0       -2.000000    0.000000    0.000000
      3          9           0        1.200000    0.000000    0.000000
 ---------------------------------------------------------------------

 SCF Done:  E(UB3LYP) =  -100.927841827     a.u. after    6 cycles

 Alpha  occ. eigenvalues --  -24.63742  -1.11877  -0.47860  -0.37040  -0.37040
 Alpha  occ. eigenvalues --   -0.36607
 Alpha virt. eigenvalues --   -0.03029   0.23748   0.28786   0.93647   0.93647
 Alpha virt. eigenvalues --    1.00972   1.12269   1.20604   1.20604   1.35433
 Alpha virt. eigenvalues --    1.35433   1.44940   1.71909   2.13267   2.31967

  Beta  occ. eigenvalues --  -24.63584  -1.11476  -0.47030  -0.36896  -0.36896
  Beta virt. eigenvalues --   -0.14541   0.00172   0.28480   0.33886   0.93644
  Beta virt. eigenvalues --    0.93644   1.01448   1.20488   1.34302   1.34302
  Beta virt. eigenvalues --    1.40330   1.40330   1.54349   1.72934   2.27089

 Mulliken charges and spin densities:
               1          2
     1  H    0.332943  -0.008868
     2  H    0.026747   0.961706
     3  F   -0.359690   0.047163
 Sum of Mulliken charges =  -0.00000   1.00000

 Dipole moment (field-independent basis, Debye):
    X=             -2.5799    Y=             -0.0000    Z=              0.0000  Tot=              2.5799
 Quadrupole moment (field-independent basis, Debye-Ang):
   XX=             -8.2445   YY=             -7.0877   ZZ=             -7.0877
   XY=             -0.0000   XZ=              0.0000   YZ=             -0.0000

  Exact polarizability:      15.667       0.000       2.379      -0.000      -0.000       2.379
 Approx polarizability:      19.333       0.000       2.343      -0.000       0.000       2.343

 ******    1 imaginary frequencies (negative Signs) ******

                      1                      2                      3
                      A                      A                      A
 Frequencies --   -435.1533               762.6194              1158.5156
 Red. masses --      1.0207                 1.0933                 1.0251
 Frc consts  --      0.1139                 0.3746                 0.8107
 IR Inten    --     61.1217               155.5662               108.6612

                      4
                      A
 Frequencies --   1158.5156
 Red. masses --      1.0251
 Frc consts  --      0.8107
 IR Inten    --    108.6612

 - Thermochemistry -
 -------------------
 Temperature   298.150 Kelvin.  Pressure   1.00000 Atm.
 Atom     1 has atomic number  1 and mass   1.00783

 Molecular mass:    21.01405 amu.
 Principal axes and moments of inertia in atomic units:
                           1         2         3
     Eigenvalues --     0.00000  38.69475  38.69475
           X            1.00000  -0.00000   0.00000
           Y            0.00000   1.00000   0.00000
           Z            0.00000   0.00000   1.00000
 This molecule is a prolate symmetric top.
 Rotational symmetry number  1.
 Rotational temperature (Kelvin)      2.23839
 Rotational constant (GHZ):          46.640467
    1 imaginary frequencies ignored.
 Zero-point vibrational energy      18420.4 (Joules/Mol)
                                    4.40258 (Kcal/Mol)
 Vibrational temperatures:   1097.24  1666.85  1666.85
          (Kelvin)

 Zero-point correction=                           0.007016 (Hartree/Particle)
 Thermal correction to Energy=                    0.009506
 Thermal correction to Enthalpy=                  0.010450
 Thermal correction to Gibbs Free Energy=        -0.012590
 Sum of electronic and zero-point Energies=           -100.920826
 Sum of electronic and thermal Energies=              -100.918336
 Sum of electronic and thermal Enthalpies=            -100.917392
 Sum of electronic and thermal Free Energies=         -100.940432

                     E (Thermal)             CV                S
                      KCal/Mol        Cal/Mol-Kelvin    Cal/Mol-Kelvin
 Total                    5.965              6.149             48.492
 Electronic               0.000              0.000              1.377
 Translational            0.889              2.981             35.068
 Rotational               0.592              1.987             11.708
 Vibrational              4.484              1.181              0.338

 Normal termination of Gaussian 16 at Fri Aug 22 16:10:09 2025.
