 Gaussian 16, Revision C.01,
 Gaussian 16:  ES64L-G16RevC.01  3-Jul-2019

 -----------------------------------------
 # sp b3lyp/6-311g** Force nosymm scf=(qc)
 -----------------------------------------

 -------------------
 Title Card Required
 -------------------
 Symbolic Z-matrix:
 Charge =  0 Multiplicity = 2

                          Input orientation:
 ---------------------------------------------------------------------
 Center     Atomic      Atomic             Coordinates (Angstroms)
 Number     Number       Type             X           Y           Z
 ---------------------------------------------------------------------
      1          1           0        0.000000    0.000000    0.000000
      2          1           0       -3.800000    0.000000    0.000000
      3          9           0        3.200000    0.000000    0.000000
 ---------------------------------------------------------------------

 SCF Done:  E(UB3LYP) =  -100.759809483     a.u. after   21 cycles

 Alpha  occ. eigenvalues --  -24.74712  -1.20726  -0.53834  -0.45200  -0.45200
 Alpha  occ. eigenvalues --   -0.32396
 Alpha virt. eigenvalues --   -0.07214   0.24004   0.36582   0.88640   0.91896
 Alpha virt. eigenvalues --    0.91896   1.02862   1.25102   1.25102   1.25148
 Alpha virt. eigenvalues --    1.45137   1.45137   1.45452   2.14571   2.41384

  Beta  occ. eigenvalues --  -24.71642  -1.11916  -0.42125  -0.42125  -0.33284
  Beta virt. eigenvalues --   -0.25124  -0.06087   0.23788   0.38124   0.93371
  Beta virt. eigenvalues --    0.93371   0.97545   1.06723   1.24080   1.24080
  Beta virt. eigenvalues --    1.24179   1.46399   1.46571   1.46571   2.14815

 Mulliken charges and spin densities:
               1          2
     1  H    0.024314  -0.972228
     2  H    0.000147   0.999003
     3  F   -0.024461   0.973225
 Sum of Mulliken charges =  -0.00000   1.00000

 Dipole moment (field-independent basis, Debye):
    X=             -0.4048    Y=              0.0000    Z=              0.0000  Tot=              0.4048
 Quadrupole moment (field-independent basis, Debye-Ang):
   XX=             -7.9379   YY=             -7.6130   ZZ=             -7.6130
   XY=             -0.0000   XZ=             -0.0000   YZ=             -0.0000

  Exact polarizability:      29.171      -0.000       2.030      -0.000      -0.000       2.030
 Approx polarizability:      26.883      -0.000       1.930      -0.000       0.000       1.930

 ******    2 imaginary frequencies (negative Signs) ******

                      1                      2                      3
                      A                      A                      A
 Frequencies --   -297.4910               -84.6137                98.2118
 Red. masses --      1.0488                 1.0628                 1.0202
 Frc consts  --      0.0547                 0.0045                 0.0058
 IR Inten    --     26.3973                 0.2524                 0.5556

                      4
                      A
 Frequencies --     98.2118
 Red. masses --      1.0202
 Frc consts  --      0.0058
 IR Inten    --      0.5556

 - Thermochemistry -
 -------------------
 Temperature   298.150 Kelvin.  Pressure   1.00000 Atm.
 Atom     1 has atomic number  1 and mass   1.00783

 Molecular mass:    21.01405 amu.
 Principal axes and moments of inertia in atomic units:
                           1         2         3
     Eigenvalues --     0.00000 195.24724 195.24724
           X            1.00000  -0.00000   0.00000
           Y            0.00000   1.00000   0.00000
           Z            0.00000   0.00000   1.00000
 This molecule is a prolate symmetric top.
 Rotational symmetry number  1.
 Rotational temperature (Kelvin)      0.44361
 Rotational constant (GHZ):           9.243363
    2 imaginary frequencies ignored.
 Zero-point vibrational energy       1174.9 (Joules/Mol)
                                    0.28080 (Kcal/Mol)
 Warning -- explicit consideration of   2 degrees of freedom as
           vibrations may cause significant error
 Vibrational temperatures:    141.30   141.30
          (Kelvin)

 Zero-point correction=                           0.000447 (Hartree/Particle)
 Thermal correction to Energy=                    0.004284
 Thermal correction to Enthalpy=                  0.005228
 Thermal correction to Gibbs Free Energy=        -0.022495
 Sum of electronic and zero-point Energies=           -100.759362
 Sum of electronic and thermal Energies=              -100.755525
 Sum of electronic and thermal Enthalpies=            -100.754581
 Sum of electronic and thermal Free Energies=         -100.782305

                     E (Thermal)             CV                S
                      KCal/Mol        Cal/Mol-Kelvin    Cal/Mol-Kelvin
 Total                    2.688              8.869             58.349
 Electronic               0.000              0.000              1.377
 Translational            0.889              2.981             35.068
 Rotational               0.592              1.987             14.925
 Vibrational              1.207              3.901              6.979
 Vibration     1          0.604              1.950              3.489
 Vibration     2          0.604              1.950              3.489

 Normal termination of Gaussian 16 at Fri Aug 22 20:25:14 2025.
