 Gaussian 16, Revision C.01,
 Gaussian 16:  ES64L-G16RevC.01  3-Jul-2019

 -----------------------------------------
 # sp b3lyp/6-311g** Force nosymm scf=(qc)
 -----------------------------------------

 -------------------
 Title Card Required
 -------------------
 Symbolic Z-matrix:
 Charge =  0 Multiplicity = 2

                          Input orientation:
 ---------------------------------------------------------------------
 Center     Atomic      Atomic             Coordinates (Angstroms)
 Number     Number       Type             X           Y           Z
 ---------------------------------------------------------------------
      1          1           0        0.000000    0.000000    0.000000
      2          1           0       -1.700000    0.000000    0.000000
      3          9           0        3.100000    0.000000    0.000000
 ---------------------------------------------------------------------

 SCF Done:  E(UB3LYP) =  -100.795766398     a.u. after   36 cycles

 Alpha  occ. eigenvalues --  -24.75064  -1.21052  -0.54189  -0.45504  -0.45504
 Alpha  occ. eigenvalues --   -0.33959
 Alpha virt. eigenvalues --   -0.11359   0.25177   0.30339   0.89172   0.91649
 Alpha virt. eigenvalues --    0.91649   1.03313   1.06874   1.22915   1.22915
 Alpha virt. eigenvalues --    1.37315   1.37315   1.66998   2.16075   2.41769

  Beta  occ. eigenvalues --  -24.71984  -1.12210  -0.42419  -0.42419  -0.33852
  Beta virt. eigenvalues --   -0.25462  -0.11102   0.25520   0.30633   0.93125
  Beta virt. eigenvalues --    0.93125   0.98001   1.06576   1.07796   1.23038
  Beta virt. eigenvalues --    1.23038   1.37571   1.37571   1.67336   2.16909

 Mulliken charges and spin densities:
               1          2
     1  H    0.003834  -0.603710
     2  H    0.016169   0.627472
     3  F   -0.020003   0.976238
 Sum of Mulliken charges =  -0.00000   1.00000

 Dipole moment (field-independent basis, Debye):
    X=             -0.4473    Y=             -0.0000    Z=              0.0000  Tot=              0.4473
 Quadrupole moment (field-independent basis, Debye-Ang):
   XX=             -6.5291   YY=             -7.7499   ZZ=             -7.7499
   XY=             -0.0000   XZ=              0.0000   YZ=              0.0000

  Exact polarizability:      56.157      -0.000       2.023       0.000       0.000       2.023
 Approx polarizability:      62.245      -0.000       1.974       0.000      -0.000       1.974

 ******    2 imaginary frequencies (negative Signs) ******

                      1                      2                      3
                      A                      A                      A
 Frequencies --  -1914.6159              -194.5599               894.0222
 Red. masses --      1.0079                 1.1085                 1.0123
 Frc consts  --      2.1768                 0.0247                 0.4767
 IR Inten    --     85.4512                19.4201                 0.0042

                      4
                      A
 Frequencies --    894.0222
 Red. masses --      1.0123
 Frc consts  --      0.4767
 IR Inten    --      0.0042

 - Thermochemistry -
 -------------------
 Temperature   298.150 Kelvin.  Pressure   1.00000 Atm.
 Atom     1 has atomic number  1 and mass   1.00783

 Molecular mass:    21.01405 amu.
 Principal axes and moments of inertia in atomic units:
                           1         2         3
     Eigenvalues --     0.00000 106.73523 106.73523
           X            1.00000  -0.00000   0.00000
           Y            0.00000   1.00000   0.00000
           Z            0.00000   0.00000   1.00000
 This molecule is a prolate symmetric top.
 Rotational symmetry number  1.
 Rotational temperature (Kelvin)      0.81148
 Rotational constant (GHZ):          16.908580
    2 imaginary frequencies ignored.
 Zero-point vibrational energy      10694.9 (Joules/Mol)
                                    2.55614 (Kcal/Mol)
 Vibrational temperatures:   1286.30  1286.30
          (Kelvin)

 Zero-point correction=                           0.004073 (Hartree/Particle)
 Thermal correction to Energy=                    0.006544
 Thermal correction to Enthalpy=                  0.007489
 Thermal correction to Gibbs Free Energy=        -0.016485
 Sum of electronic and zero-point Energies=           -100.791693
 Sum of electronic and thermal Energies=              -100.789222
 Sum of electronic and thermal Enthalpies=            -100.788278
 Sum of electronic and thermal Free Energies=         -100.812251

                     E (Thermal)             CV                S
                      KCal/Mol        Cal/Mol-Kelvin    Cal/Mol-Kelvin
 Total                    4.107              5.985             50.456
 Electronic               0.000              0.000              1.377
 Translational            0.889              2.981             35.068
 Rotational               0.592              1.987             13.725
 Vibrational              2.625              1.017              0.286

 Normal termination of Gaussian 16 at Fri Aug 22 19:54:02 2025.
