 Gaussian 16, Revision C.01,
 Gaussian 16:  ES64L-G16RevC.01  3-Jul-2019

 -----------------------------------------
 # sp b3lyp/6-311g** Force nosymm scf=(qc)
 -----------------------------------------

 -------------------
 Title Card Required
 -------------------
 Symbolic Z-matrix:
 Charge =  0 Multiplicity = 2

                          Input orientation:
 ---------------------------------------------------------------------
 Center     Atomic      Atomic             Coordinates (Angstroms)
 Number     Number       Type             X           Y           Z
 ---------------------------------------------------------------------
      1          1           0        0.000000    0.000000    0.000000
      2          1           0       -3.650000    0.000000    0.000000
      3          9           0        0.800000    0.000000    0.000000
 ---------------------------------------------------------------------

 SCF Done:  E(UB3LYP) =  -100.950296421     a.u. after    6 cycles

 Alpha  occ. eigenvalues --  -24.63678  -1.23044  -0.56191  -0.40653  -0.40653
 Alpha  occ. eigenvalues --   -0.33416
 Alpha virt. eigenvalues --    0.05072   0.24496   0.45924   0.94201   0.94201
 Alpha virt. eigenvalues --    0.97001   1.23927   1.24093   1.24093   1.29678
 Alpha virt. eigenvalues --    1.39813   1.39813   2.02351   2.14444   2.53068

  Beta  occ. eigenvalues --  -24.63678  -1.23042  -0.56189  -0.40652  -0.40652
  Beta virt. eigenvalues --   -0.05196   0.05438   0.39186   0.45926   0.94202
  Beta virt. eigenvalues --    0.94202   0.96995   1.29414   1.39813   1.39813
  Beta virt. eigenvalues --    1.50701   1.50935   1.50935   2.02448   2.44612

 Mulliken charges and spin densities:
               1          2
     1  H    0.274818   0.000475
     2  H    0.000606   0.999281
     3  F   -0.275424   0.000245
 Sum of Mulliken charges =   0.00000   1.00000

 Dipole moment (field-independent basis, Debye):
    X=             -1.7400    Y=             -0.0000    Z=              0.0000  Tot=              1.7400
 Quadrupole moment (field-independent basis, Debye-Ang):
   XX=             -7.6132   YY=             -6.7692   ZZ=             -6.7692
   XY=             -0.0000   XZ=              0.0000   YZ=             -0.0000

  Exact polarizability:       4.576      -0.000       2.441       0.000       0.000       2.441
 Approx polarizability:       5.153      -0.000       2.422      -0.000       0.000       2.422

 ******    3 imaginary frequencies (negative Signs) ******

                      1                      2                      3
                      A                      A                      A
 Frequencies --  -1982.3016             -1982.3016               -39.1629
 Red. masses --      1.0408                 1.0408                 1.0532
 Frc consts  --      2.4096                 2.4096                 0.0010
 IR Inten    --    196.9399               196.9399                 0.0212

                      4
                      A
 Frequencies --   6349.8286
 Red. masses --      1.0583
 Frc consts  --     25.1413
 IR Inten    --    104.7355

 - Thermochemistry -
 -------------------
 Temperature   298.150 Kelvin.  Pressure   1.00000 Atm.
 Atom     1 has atomic number  1 and mass   1.00783

 Molecular mass:    21.01405 amu.
 Principal axes and moments of inertia in atomic units:
                           1         2         3
     Eigenvalues --     0.00000  68.81525  68.81525
           X            1.00000  -0.00000   0.00000
           Y            0.00000   1.00000   0.00000
           Z            0.00000   0.00000   1.00000
 This molecule is a prolate symmetric top.
 Rotational symmetry number  1.
 Rotational temperature (Kelvin)      1.25864
 Rotational constant (GHZ):          26.225889
    3 imaginary frequencies ignored.
 Zero-point vibrational energy      37980.4 (Joules/Mol)
                                    9.07754 (Kcal/Mol)
 Vibrational temperatures:   9135.99
          (Kelvin)

 Zero-point correction=                           0.014466 (Hartree/Particle)
 Thermal correction to Energy=                    0.016826
 Thermal correction to Enthalpy=                  0.017771
 Thermal correction to Gibbs Free Energy=        -0.005652
 Sum of electronic and zero-point Energies=           -100.935830
 Sum of electronic and thermal Energies=              -100.933470
 Sum of electronic and thermal Enthalpies=            -100.932526
 Sum of electronic and thermal Free Energies=         -100.955949

                     E (Thermal)             CV                S
                      KCal/Mol        Cal/Mol-Kelvin    Cal/Mol-Kelvin
 Total                   10.559              4.968             49.298
 Electronic               0.000              0.000              1.377
 Translational            0.889              2.981             35.068
 Rotational               0.592              1.987             12.852
 Vibrational              9.078              0.000              0.000

 Normal termination of Gaussian 16 at Fri Aug 22 15:52:10 2025.
