 Gaussian 16, Revision C.01,
 Gaussian 16:  ES64L-G16RevC.01  3-Jul-2019

 -----------------------------------------
 # sp b3lyp/6-311g** Force nosymm scf=(qc)
 -----------------------------------------

 -------------------
 Title Card Required
 -------------------
 Symbolic Z-matrix:
 Charge =  0 Multiplicity = 2

                          Input orientation:
 ---------------------------------------------------------------------
 Center     Atomic      Atomic             Coordinates (Angstroms)
 Number     Number       Type             X           Y           Z
 ---------------------------------------------------------------------
      1          1           0        0.000000    0.000000    0.000000
      2          1           0       -1.350000    0.000000    0.000000
      3          9           0        0.800000    0.000000    0.000000
 ---------------------------------------------------------------------

 SCF Done:  E(UB3LYP) =  -100.943012233     a.u. after    6 cycles

 Alpha  occ. eigenvalues --  -24.63615  -1.23344  -0.57862  -0.40682  -0.40682
 Alpha  occ. eigenvalues --   -0.36362
 Alpha virt. eigenvalues --    0.13392   0.20601   0.48195   0.93452   0.93452
 Alpha virt. eigenvalues --    0.96302   1.13560   1.13560   1.35619   1.48760
 Alpha virt. eigenvalues --    1.48760   1.57491   2.07371   2.20677   2.97960

  Beta  occ. eigenvalues --  -24.63374  -1.22701  -0.56284  -0.40482  -0.40482
  Beta virt. eigenvalues --   -0.14238   0.14767   0.27096   0.52896   0.93842
  Beta virt. eigenvalues --    0.93842   0.96805   1.23927   1.23927   1.40609
  Beta virt. eigenvalues --    1.54428   1.54428   1.64978   2.08712   2.39163

 Mulliken charges and spin densities:
               1          2
     1  H    0.257840   0.009198
     2  H    0.017089   0.941635
     3  F   -0.274929   0.049167
 Sum of Mulliken charges =   0.00000   1.00000

 Dipole moment (field-independent basis, Debye):
    X=             -1.8113    Y=             -0.0000    Z=              0.0000  Tot=              1.8113
 Quadrupole moment (field-independent basis, Debye-Ang):
   XX=             -7.3317   YY=             -6.6381   ZZ=             -6.6381
   XY=             -0.0000   XZ=              0.0000   YZ=             -0.0000

  Exact polarizability:       9.108      -0.000       2.562      -0.000      -0.000       2.562
 Approx polarizability:       9.163       0.000       2.578      -0.000       0.000       2.578

 ******    2 imaginary frequencies (negative Signs) ******

                      1                      2                      3
                      A                      A                      A
 Frequencies --  -1988.9822             -1988.9822               944.5465
 Red. masses --      1.0253                 1.0253                 1.0533
 Frc consts  --      2.3899                 2.3899                 0.5537
 IR Inten    --    122.6852               122.6852                 7.5743

                      4
                      A
 Frequencies --   6258.6837
 Red. masses --      1.0583
 Frc consts  --     24.4242
 IR Inten    --    160.5130

 - Thermochemistry -
 -------------------
 Temperature   298.150 Kelvin.  Pressure   1.00000 Atm.
 Atom     1 has atomic number  1 and mass   1.00783

 Molecular mass:    21.01405 amu.
 Principal axes and moments of inertia in atomic units:
                           1         2         3
     Eigenvalues --     0.00000  17.43767  17.43767
           X            1.00000  -0.00000   0.00000
           Y            0.00000   1.00000   0.00000
           Z            0.00000   0.00000   1.00000
 This molecule is a prolate symmetric top.
 Rotational symmetry number  1.
 Rotational temperature (Kelvin)      4.96706
 Rotational constant (GHZ):         103.496690
    2 imaginary frequencies ignored.
 Zero-point vibrational energy      43084.9 (Joules/Mol)
                                   10.29753 (Kcal/Mol)
 Vibrational temperatures:   1358.99  9004.85
          (Kelvin)

 Zero-point correction=                           0.016410 (Hartree/Particle)
 Thermal correction to Energy=                    0.018816
 Thermal correction to Enthalpy=                  0.019760
 Thermal correction to Gibbs Free Energy=        -0.002422
 Sum of electronic and zero-point Energies=           -100.926602
 Sum of electronic and thermal Energies=              -100.924196
 Sum of electronic and thermal Enthalpies=            -100.923252
 Sum of electronic and thermal Free Energies=         -100.945434

                     E (Thermal)             CV                S
                      KCal/Mol        Cal/Mol-Kelvin    Cal/Mol-Kelvin
 Total                   11.807              5.410             46.687
 Electronic               0.000              0.000              1.377
 Translational            0.889              2.981             35.068
 Rotational               0.592              1.987             10.124
 Vibrational             10.326              0.442              0.117

 Normal termination of Gaussian 16 at Fri Aug 22 15:50:39 2025.
