 Gaussian 16, Revision C.01,
 Gaussian 16:  ES64L-G16RevC.01  3-Jul-2019

 -----------------------------------------
 # sp b3lyp/6-311g** Force nosymm scf=(qc)
 -----------------------------------------

 -------------------
 Title Card Required
 -------------------
 Symbolic Z-matrix:
 Charge =  0 Multiplicity = 2

                          Input orientation:
 ---------------------------------------------------------------------
 Center     Atomic      Atomic             Coordinates (Angstroms)
 Number     Number       Type             X           Y           Z
 ---------------------------------------------------------------------
      1          1           0        0.000000    0.000000    0.000000
      2          1           0       -1.950000    0.000000    0.000000
      3          9           0        2.850000    0.000000    0.000000
 ---------------------------------------------------------------------

 SCF Done:  E(UB3LYP) =  -100.779626931     a.u. after   25 cycles

 Alpha  occ. eigenvalues --  -24.73796  -1.19870  -0.52914  -0.44428  -0.44428
 Alpha  occ. eigenvalues --   -0.34070
 Alpha virt. eigenvalues --   -0.12049   0.25278   0.31621   0.90101   0.92448
 Alpha virt. eigenvalues --    0.92448   1.04819   1.15309   1.23872   1.23872
 Alpha virt. eigenvalues --    1.36182   1.36182   1.52047   2.12208   2.37001

  Beta  occ. eigenvalues --  -24.70796  -1.11280  -0.41427  -0.41427  -0.34180
  Beta virt. eigenvalues --   -0.24705  -0.11380   0.26121   0.31923   0.93898
  Beta virt. eigenvalues --    0.93898   0.98547   1.08504   1.15768   1.23718
  Beta virt. eigenvalues --    1.23718   1.37202   1.37202   1.52818   2.13372

 Mulliken charges and spin densities:
               1          2
     1  H    0.023679  -0.789214
     2  H    0.019899   0.838974
     3  F   -0.043578   0.950240
 Sum of Mulliken charges =  -0.00000   1.00000

 Dipole moment (field-independent basis, Debye):
    X=             -0.8214    Y=             -0.0000    Z=              0.0000  Tot=              0.8214
 Quadrupole moment (field-independent basis, Debye-Ang):
   XX=             -7.4963   YY=             -7.7065   ZZ=             -7.7065
   XY=             -0.0000   XZ=              0.0000   YZ=             -0.0000

  Exact polarizability:      61.248      -0.000       2.004       0.000       0.000       2.004
 Approx polarizability:      60.329      -0.000       1.934       0.000      -0.000       1.934

 ******    2 imaginary frequencies (negative Signs) ******

                      1                      2                      3
                      A                      A                      A
 Frequencies --  -1462.6310              -278.6570               598.6754
 Red. masses --      1.0081                 1.1082                 1.0140
 Frc consts  --      1.2706                 0.0507                 0.2141
 IR Inten    --     59.0931                36.5357                 0.2073

                      4
                      A
 Frequencies --    598.6754
 Red. masses --      1.0140
 Frc consts  --      0.2141
 IR Inten    --      0.2073

 - Thermochemistry -
 -------------------
 Temperature   298.150 Kelvin.  Pressure   1.00000 Atm.
 Atom     1 has atomic number  1 and mass   1.00783

 Molecular mass:    21.01405 amu.
 Principal axes and moments of inertia in atomic units:
                           1         2         3
     Eigenvalues --     0.00000 102.05272 102.05272
           X            1.00000  -0.00000   0.00000
           Y            0.00000   1.00000   0.00000
           Z            0.00000   0.00000   1.00000
 This molecule is a prolate symmetric top.
 Rotational symmetry number  1.
 Rotational temperature (Kelvin)      0.84872
 Rotational constant (GHZ):          17.684402
    2 imaginary frequencies ignored.
 Zero-point vibrational energy       7161.7 (Joules/Mol)
                                    1.71170 (Kcal/Mol)
 Warning -- explicit consideration of   2 degrees of freedom as
           vibrations may cause significant error
 Vibrational temperatures:    861.36   861.36
          (Kelvin)

 Zero-point correction=                           0.002728 (Hartree/Particle)
 Thermal correction to Energy=                    0.005410
 Thermal correction to Enthalpy=                  0.006354
 Thermal correction to Gibbs Free Energy=        -0.017871
 Sum of electronic and zero-point Energies=           -100.776899
 Sum of electronic and thermal Energies=              -100.774217
 Sum of electronic and thermal Enthalpies=            -100.773273
 Sum of electronic and thermal Free Energies=         -100.797498

                     E (Thermal)             CV                S
                      KCal/Mol        Cal/Mol-Kelvin    Cal/Mol-Kelvin
 Total                    3.395              7.037             50.985
 Electronic               0.000              0.000              1.377
 Translational            0.889              2.981             35.068
 Rotational               0.592              1.987             13.635
 Vibrational              1.913              2.069              0.904
 Vibration     1          0.957              1.035              0.452
 Vibration     2          0.957              1.035              0.452

 Normal termination of Gaussian 16 at Fri Aug 22 18:53:14 2025.
