 Gaussian 16, Revision C.01,
 Gaussian 16:  ES64L-G16RevC.01  3-Jul-2019

 -----------------------------------------
 # sp b3lyp/6-311g** Force nosymm scf=(qc)
 -----------------------------------------

 -------------------
 Title Card Required
 -------------------
 Symbolic Z-matrix:
 Charge =  0 Multiplicity = 2

                          Input orientation:
 ---------------------------------------------------------------------
 Center     Atomic      Atomic             Coordinates (Angstroms)
 Number     Number       Type             X           Y           Z
 ---------------------------------------------------------------------
      1          1           0        0.000000    0.000000    0.000000
      2          1           0       -3.400000    0.000000    0.000000
      3          9           0        2.450000    0.000000    0.000000
 ---------------------------------------------------------------------

 SCF Done:  E(UB3LYP) =  -100.768724947     a.u. after   16 cycles

 Alpha  occ. eigenvalues --  -24.71439  -1.17672  -0.50537  -0.42460  -0.42460
 Alpha  occ. eigenvalues --   -0.32997
 Alpha virt. eigenvalues --   -0.10638   0.23479   0.34987   0.89508   0.93769
 Alpha virt. eigenvalues --    0.93769   1.06346   1.24518   1.24518   1.24759
 Alpha virt. eigenvalues --    1.40093   1.40093   1.45366   2.14560   2.35721

  Beta  occ. eigenvalues --  -24.68626  -1.09674  -0.39657  -0.39657  -0.35569
  Beta virt. eigenvalues --   -0.23142  -0.06961   0.23966   0.37742   0.95107
  Beta virt. eigenvalues --    0.95107   0.95365   1.08560   1.21958   1.21958
  Beta virt. eigenvalues --    1.31242   1.45490   1.45747   1.45747   2.12790

 Mulliken charges and spin densities:
               1          2
     1  H    0.096741  -0.885871
     2  H    0.001228   0.997308
     3  F   -0.097969   0.888563
 Sum of Mulliken charges =  -0.00000   1.00000

 Dipole moment (field-independent basis, Debye):
    X=             -1.2386    Y=              0.0000    Z=             -0.0000  Tot=              1.2386
 Quadrupole moment (field-independent basis, Debye-Ang):
   XX=             -9.3701   YY=             -7.5668   ZZ=             -7.5668
   XY=              0.0000   XZ=             -0.0000   YZ=             -0.0000

  Exact polarizability:      30.989       0.000       2.026      -0.000       0.000       2.026
 Approx polarizability:      39.364       0.000       1.921      -0.000      -0.000       1.921

 ******    2 imaginary frequencies (negative Signs) ******

                      1                      2                      3
                      A                      A                      A
 Frequencies --   -655.1214              -135.8475               259.2448
 Red. masses --      1.0536                 1.0580                 1.0224
 Frc consts  --      0.2664                 0.0115                 0.0405
 IR Inten    --     84.2847                 0.4517                 8.8686

                      4
                      A
 Frequencies --    259.2448
 Red. masses --      1.0224
 Frc consts  --      0.0405
 IR Inten    --      8.8686

 - Thermochemistry -
 -------------------
 Temperature   298.150 Kelvin.  Pressure   1.00000 Atm.
 Atom     1 has atomic number  1 and mass   1.00783

 Molecular mass:    21.01405 amu.
 Principal axes and moments of inertia in atomic units:
                           1         2         3
     Eigenvalues --     0.00000 132.87923 132.87923
           X            1.00000  -0.00000   0.00000
           Y            0.00000   1.00000   0.00000
           Z            0.00000   0.00000   1.00000
 This molecule is a prolate symmetric top.
 Rotational symmetry number  1.
 Rotational temperature (Kelvin)      0.65182
 Rotational constant (GHZ):          13.581816
    2 imaginary frequencies ignored.
 Zero-point vibrational energy       3101.3 (Joules/Mol)
                                    0.74122 (Kcal/Mol)
 Warning -- explicit consideration of   2 degrees of freedom as
           vibrations may cause significant error
 Vibrational temperatures:    373.00   373.00
          (Kelvin)

 Zero-point correction=                           0.001181 (Hartree/Particle)
 Thermal correction to Energy=                    0.004489
 Thermal correction to Enthalpy=                  0.005433
 Thermal correction to Gibbs Free Energy=        -0.020195
 Sum of electronic and zero-point Energies=           -100.767544
 Sum of electronic and thermal Energies=              -100.764236
 Sum of electronic and thermal Enthalpies=            -100.763292
 Sum of electronic and thermal Free Energies=         -100.788920

                     E (Thermal)             CV                S
                      KCal/Mol        Cal/Mol-Kelvin    Cal/Mol-Kelvin
 Total                    2.817              8.462             53.939
 Electronic               0.000              0.000              1.377
 Translational            0.889              2.981             35.068
 Rotational               0.592              1.987             14.160
 Vibrational              1.336              3.494              3.334
 Vibration     1          0.668              1.747              1.667
 Vibration     2          0.668              1.747              1.667

 Normal termination of Gaussian 16 at Fri Aug 22 17:39:40 2025.
