 Gaussian 16, Revision C.01,
 Gaussian 16:  ES64L-G16RevC.01  3-Jul-2019

 -----------------------------------------
 # sp b3lyp/6-311g** Force nosymm scf=(qc)
 -----------------------------------------

 -------------------
 Title Card Required
 -------------------
 Symbolic Z-matrix:
 Charge =  0 Multiplicity = 2

                          Input orientation:
 ---------------------------------------------------------------------
 Center     Atomic      Atomic             Coordinates (Angstroms)
 Number     Number       Type             X           Y           Z
 ---------------------------------------------------------------------
      1          1           0        0.000000    0.000000    0.000000
      2          1           0       -2.000000    0.000000    0.000000
      3          9           0        2.950000    0.000000    0.000000
 ---------------------------------------------------------------------

 SCF Done:  E(UB3LYP) =  -100.776590915     a.u. after   23 cycles

 Alpha  occ. eigenvalues --  -24.74160  -1.20209  -0.53279  -0.44735  -0.44735
 Alpha  occ. eigenvalues --   -0.33798
 Alpha virt. eigenvalues --   -0.11817   0.25432   0.31841   0.89804   0.92229
 Alpha virt. eigenvalues --    0.92229   1.04267   1.16942   1.24162   1.24162
 Alpha virt. eigenvalues --    1.36680   1.36680   1.50174   2.12358   2.36582

  Beta  occ. eigenvalues --  -24.71134  -1.11535  -0.41705  -0.41705  -0.33955
  Beta virt. eigenvalues --   -0.24890  -0.11165   0.26000   0.32330   0.93689
  Beta virt. eigenvalues --    0.93689   0.98465   1.08148   1.17000   1.23935
  Beta virt. eigenvalues --    1.23935   1.37685   1.37685   1.50947   2.13544

 Mulliken charges and spin densities:
               1          2
     1  H    0.019970  -0.820774
     2  H    0.016090   0.861803
     3  F   -0.036059   0.958970
 Sum of Mulliken charges =  -0.00000   1.00000

 Dipole moment (field-independent basis, Debye):
    X=             -0.6988    Y=              0.0000    Z=              0.0000  Tot=              0.6988
 Quadrupole moment (field-independent basis, Debye-Ang):
   XX=             -7.4150   YY=             -7.7071   ZZ=             -7.7071
   XY=              0.0000   XZ=              0.0000   YZ=              0.0000

  Exact polarizability:      59.219      -0.000       2.005      -0.000      -0.000       2.005
 Approx polarizability:      55.416      -0.000       1.931      -0.000       0.000       1.931

 ******    2 imaginary frequencies (negative Signs) ******

                      1                      2                      3
                      A                      A                      A
 Frequencies --  -1368.6574              -252.9612               552.1618
 Red. masses --      1.0080                 1.1083                 1.0139
 Frc consts  --      1.1125                 0.0418                 0.1821
 IR Inten    --     42.9941                30.8176                 0.1558

                      4
                      A
 Frequencies --    552.1618
 Red. masses --      1.0139
 Frc consts  --      0.1821
 IR Inten    --      0.1558

 - Thermochemistry -
 -------------------
 Temperature   298.150 Kelvin.  Pressure   1.00000 Atm.
 Atom     1 has atomic number  1 and mass   1.00783

 Molecular mass:    21.01405 amu.
 Principal axes and moments of inertia in atomic units:
                           1         2         3
     Eigenvalues --     0.00000 108.73268 108.73268
           X            1.00000  -0.00000   0.00000
           Y            0.00000   1.00000   0.00000
           Z            0.00000   0.00000   1.00000
 This molecule is a prolate symmetric top.
 Rotational symmetry number  1.
 Rotational temperature (Kelvin)      0.79658
 Rotational constant (GHZ):          16.597965
    2 imaginary frequencies ignored.
 Zero-point vibrational energy       6605.3 (Joules/Mol)
                                    1.57871 (Kcal/Mol)
 Warning -- explicit consideration of   2 degrees of freedom as
           vibrations may cause significant error
 Vibrational temperatures:    794.44   794.44
          (Kelvin)

 Zero-point correction=                           0.002516 (Hartree/Particle)
 Thermal correction to Energy=                    0.005253
 Thermal correction to Enthalpy=                  0.006197
 Thermal correction to Gibbs Free Energy=        -0.018171
 Sum of electronic and zero-point Energies=           -100.774075
 Sum of electronic and thermal Energies=              -100.771338
 Sum of electronic and thermal Enthalpies=            -100.770394
 Sum of electronic and thermal Free Energies=         -100.794762

                     E (Thermal)             CV                S
                      KCal/Mol        Cal/Mol-Kelvin    Cal/Mol-Kelvin
 Total                    3.296              7.238             51.286
 Electronic               0.000              0.000              1.377
 Translational            0.889              2.981             35.068
 Rotational               0.592              1.987             13.761
 Vibrational              1.815              2.270              1.079
 Vibration     1          0.908              1.135              0.540
 Vibration     2          0.908              1.135              0.540

 Normal termination of Gaussian 16 at Fri Aug 22 19:17:19 2025.
