 Gaussian 16, Revision C.01,
 Gaussian 16:  ES64L-G16RevC.01  3-Jul-2019

 -----------------------------------------
 # sp b3lyp/6-311g** Force nosymm scf=(qc)
 -----------------------------------------

 -------------------
 Title Card Required
 -------------------
 Symbolic Z-matrix:
 Charge =  0 Multiplicity = 2

                          Input orientation:
 ---------------------------------------------------------------------
 Center     Atomic      Atomic             Coordinates (Angstroms)
 Number     Number       Type             X           Y           Z
 ---------------------------------------------------------------------
      1          1           0        0.000000    0.000000    0.000000
      2          1           0       -0.600000    0.000000    0.000000
      3          9           0        2.550000    0.000000    0.000000
 ---------------------------------------------------------------------

 SCF Done:  E(UB3LYP) =  -100.915223574     a.u. after  130 cycles

 Alpha  occ. eigenvalues --  -24.76818  -1.22595  -0.55774  -0.47728  -0.46921
 Alpha  occ. eigenvalues --   -0.45548
 Alpha virt. eigenvalues --    0.09596   0.19647   0.53219   0.85700   0.90564
 Alpha virt. eigenvalues --    0.93633   1.10543   1.10564   1.12470   1.61059
 Alpha virt. eigenvalues --    1.82888   1.93090   1.93112   2.39296   3.64486

  Beta  occ. eigenvalues --  -24.73653  -1.13501  -0.46655  -0.43748  -0.43444
  Beta virt. eigenvalues --   -0.26385   0.09695   0.19717   0.53326   0.92059
  Beta virt. eigenvalues --    0.95139   0.95540   1.10553   1.10564   1.16013
  Beta virt. eigenvalues --    1.61065   1.82897   1.93090   1.93110   2.39312

 Mulliken charges and spin densities:
               1          2
     1  H   -0.010604  -0.002438
     2  H   -0.004608   0.000117
     3  F    0.015212   1.002320
 Sum of Mulliken charges =   0.00000   1.00000

 Dipole moment (field-independent basis, Debye):
    X=              0.1375    Y=             -0.0000    Z=             -0.0000  Tot=              0.1375
 Quadrupole moment (field-independent basis, Debye-Ang):
   XX=             -5.9810   YY=             -6.6039   ZZ=             -6.0312
   XY=              0.0000   XZ=              0.0000   YZ=              0.3229

  Exact polarizability:       7.014      -0.000       1.975       0.000       0.166       2.269
 Approx polarizability:       7.499       0.000       2.079       0.000       0.210       2.451

 ******    2 imaginary frequencies (negative Signs) ******

                      1                      2                      3
                      A                      A                      A
 Frequencies --  -2753.2406             -2747.7060               192.0676
 Red. masses --      1.0089                 1.0089                 1.1085
 Frc consts  --      4.5061                 4.4880                 0.0241
 IR Inten    --      0.0778                 0.0855                 0.3750

                      4
                      A
 Frequencies --   7042.6467
 Red. masses --      1.0078
 Frc consts  --     29.4515
 IR Inten    --      1.9648

 - Thermochemistry -
 -------------------
 Temperature   298.150 Kelvin.  Pressure   1.00000 Atm.
 Atom     1 has atomic number  1 and mass   1.00783

 Molecular mass:    21.01405 amu.
 Principal axes and moments of inertia in atomic units:
                           1         2         3
     Eigenvalues --     0.00000  53.50572  53.50572
           X            1.00000  -0.00000   0.00000
           Y            0.00000   1.00000   0.00000
           Z            0.00000   0.00000   1.00000
 This molecule is a prolate symmetric top.
 Rotational symmetry number  1.
 Rotational temperature (Kelvin)      1.61878
 Rotational constant (GHZ):          33.729876
    2 imaginary frequencies ignored.
 Zero-point vibrational energy      43273.2 (Joules/Mol)
                                   10.34254 (Kcal/Mol)
 Warning -- explicit consideration of   1 degrees of freedom as
           vibrations may cause significant error
 Vibrational temperatures:    276.34 10132.80
          (Kelvin)

 Zero-point correction=                           0.016482 (Hartree/Particle)
 Thermal correction to Energy=                    0.019416
 Thermal correction to Enthalpy=                  0.020360
 Thermal correction to Gibbs Free Energy=        -0.003875
 Sum of electronic and zero-point Energies=           -100.898742
 Sum of electronic and thermal Energies=              -100.895808
 Sum of electronic and thermal Enthalpies=            -100.894864
 Sum of electronic and thermal Free Energies=         -100.919098

                     E (Thermal)             CV                S
                      KCal/Mol        Cal/Mol-Kelvin    Cal/Mol-Kelvin
 Total                   12.183              6.819             51.006
 Electronic               0.000              0.000              1.377
 Translational            0.889              2.981             35.068
 Rotational               0.592              1.987             12.352
 Vibrational             10.702              1.851              2.208
 Vibration     1          0.634              1.851              2.208

 Normal termination of Gaussian 16 at Fri Aug 22 17:49:07 2025.
