 Gaussian 16, Revision C.01,
 Gaussian 16:  ES64L-G16RevC.01  3-Jul-2019

 -----------------------------------------
 # sp b3lyp/6-311g** Force nosymm scf=(qc)
 -----------------------------------------

 -------------------
 Title Card Required
 -------------------
 Symbolic Z-matrix:
 Charge =  0 Multiplicity = 2

                          Input orientation:
 ---------------------------------------------------------------------
 Center     Atomic      Atomic             Coordinates (Angstroms)
 Number     Number       Type             X           Y           Z
 ---------------------------------------------------------------------
      1          1           0        0.000000    0.000000    0.000000
      2          1           0       -0.800000    0.000000    0.000000
      3          9           0        2.950000    0.000000    0.000000
 ---------------------------------------------------------------------

 SCF Done:  E(UB3LYP) =  -100.932592868     a.u. after  399 cycles

 Alpha  occ. eigenvalues --  -24.76654  -1.22457  -0.55648  -0.46924  -0.46797
 Alpha  occ. eigenvalues --   -0.41984
 Alpha virt. eigenvalues --    0.05122   0.20323   0.45358   0.85821   0.90693
 Alpha virt. eigenvalues --    0.93840   1.06150   1.08431   1.08439   1.52587
 Alpha virt. eigenvalues --    1.79099   1.79108   2.06285   2.38912   3.05546

  Beta  occ. eigenvalues --  -24.73492  -1.13370  -0.43857  -0.43627  -0.41877
  Beta virt. eigenvalues --   -0.26269   0.05165   0.20353   0.45460   0.92192
  Beta virt. eigenvalues --    0.95277   0.95674   1.08431   1.08438   1.09809
  Beta virt. eigenvalues --    1.52598   1.79098   1.79107   2.06311   2.38919

 Mulliken charges and spin densities:
               1          2
     1  H   -0.005321  -0.001151
     2  H   -0.004519  -0.000167
     3  F    0.009839   1.001318
 Sum of Mulliken charges =   0.00000   1.00000

 Dipole moment (field-independent basis, Debye):
    X=              0.1005    Y=             -0.0000    Z=             -0.0000  Tot=              0.1005
 Quadrupole moment (field-independent basis, Debye-Ang):
   XX=             -6.0807   YY=             -6.8362   ZZ=             -6.3569
   XY=              0.0000   XZ=              0.0000   YZ=              0.3591

  Exact polarizability:       9.396       0.000       2.091      -0.000       0.191       2.346
 Approx polarizability:      10.940       0.000       2.191       0.000       0.240       2.511

                      1                      2                      3
                      A                      A                      A
 Frequencies --     62.2537              1078.8451              1080.7406
 Red. masses --      1.1085                 1.0092                 1.0092
 Frc consts  --      0.0025                 0.6921                 0.6945
 IR Inten    --      0.3041                 0.0070                 0.0061

                      4
                      A
 Frequencies --   3695.4800
 Red. masses --      1.0078
 Frc consts  --      8.1092
 IR Inten    --      0.6033

 - Thermochemistry -
 -------------------
 Temperature   298.150 Kelvin.  Pressure   1.00000 Atm.
 Atom     1 has atomic number  1 and mass   1.00783

 Molecular mass:    21.01405 amu.
 Principal axes and moments of inertia in atomic units:
                           1         2         3
     Eigenvalues --     0.00000  74.18311  74.18311
           X            1.00000  -0.00000   0.00000
           Y            0.00000   1.00000   0.00000
           Z            0.00000   0.00000   1.00000
 This molecule is a prolate symmetric top.
 Rotational symmetry number  1.
 Rotational temperature (Kelvin)      1.16757
 Rotational constant (GHZ):          24.328197
 Zero-point vibrational energy      35393.4 (Joules/Mol)
                                    8.45923 (Kcal/Mol)
 Warning -- explicit consideration of   1 degrees of freedom as
           vibrations may cause significant error
 Vibrational temperatures:     89.57  1552.22  1554.94  5316.97
          (Kelvin)

 Zero-point correction=                           0.013481 (Hartree/Particle)
 Thermal correction to Energy=                    0.016705
 Thermal correction to Enthalpy=                  0.017649
 Thermal correction to Gibbs Free Energy=        -0.007993
 Sum of electronic and zero-point Energies=           -100.919112
 Sum of electronic and thermal Energies=              -100.915888
 Sum of electronic and thermal Enthalpies=            -100.914944
 Sum of electronic and thermal Free Energies=         -100.940586

                     E (Thermal)             CV                S
                      KCal/Mol        Cal/Mol-Kelvin    Cal/Mol-Kelvin
 Total                   10.482              7.536             53.967
 Electronic               0.000              0.000              1.377
 Translational            0.889              2.981             35.068
 Rotational               0.592              1.987             13.002
 Vibrational              9.001              2.568              4.520
 Vibration     1          0.597              1.972              4.384

 Normal termination of Gaussian 16 at Fri Aug 22 19:11:03 2025.
