 Gaussian 16, Revision C.01,
 Gaussian 16:  ES64L-G16RevC.01  3-Jul-2019

 -----------------------------------------
 # sp b3lyp/6-311g** Force nosymm scf=(qc)
 -----------------------------------------

 -------------------
 Title Card Required
 -------------------
 Symbolic Z-matrix:
 Charge =  0 Multiplicity = 2

                          Input orientation:
 ---------------------------------------------------------------------
 Center     Atomic      Atomic             Coordinates (Angstroms)
 Number     Number       Type             X           Y           Z
 ---------------------------------------------------------------------
      1          1           0        0.000000    0.000000    0.000000
      2          1           0       -0.650000    0.000000    0.000000
      3          9           0        2.150000    0.000000    0.000000
 ---------------------------------------------------------------------

 SCF Done:  E(UB3LYP) =  -100.926676154     a.u. after    6 cycles

 Alpha  occ. eigenvalues --  -24.75616  -1.21597  -0.55276  -0.46229  -0.45990
 Alpha  occ. eigenvalues --   -0.45990
 Alpha virt. eigenvalues --    0.08830   0.19870   0.49023   0.90785   0.90785
 Alpha virt. eigenvalues --    0.91016   1.08571   1.08571   1.15317   1.61602
 Alpha virt. eigenvalues --    1.83865   1.88342   1.88342   2.40578   3.65913

  Beta  occ. eigenvalues --  -24.72521  -1.12734  -0.46495  -0.42895  -0.42895
  Beta virt. eigenvalues --   -0.25933   0.09431   0.20360   0.49340   0.92216
  Beta virt. eigenvalues --    0.92216   0.99094   1.08914   1.08914   1.19302
  Beta virt. eigenvalues --    1.62304   1.84172   1.88494   1.88494   2.40992

 Mulliken charges and spin densities:
               1          2
     1  H   -0.010303  -0.014930
     2  H    0.023985   0.039951
     3  F   -0.013682   0.974979
 Sum of Mulliken charges =   0.00000   1.00000

 Dipole moment (field-independent basis, Debye):
    X=             -0.2125    Y=             -0.0000    Z=              0.0000  Tot=              0.2125
 Quadrupole moment (field-independent basis, Debye-Ang):
   XX=             -5.7260   YY=             -6.7926   ZZ=             -6.7926
   XY=             -0.0000   XZ=              0.0000   YZ=             -0.0000

  Exact polarizability:      12.501       0.000       2.000       0.000      -0.000       2.000
 Approx polarizability:      13.151       0.000       2.072       0.000      -0.000       2.072

 ******    3 imaginary frequencies (negative Signs) ******

                      1                      2                      3
                      A                      A                      A
 Frequencies --  -2027.2262             -2027.2262               -80.6341
 Red. masses --      1.0095                 1.0095                 1.1085
 Frc consts  --      2.4444                 2.4444                 0.0042
 IR Inten    --      0.3092                 0.3092                 9.1347

                      4
                      A
 Frequencies --   5944.6606
 Red. masses --      1.0078
 Frc consts  --     20.9841
 IR Inten    --     86.8917

 - Thermochemistry -
 -------------------
 Temperature   298.150 Kelvin.  Pressure   1.00000 Atm.
 Atom     1 has atomic number  1 and mass   1.00783

 Molecular mass:    21.01405 amu.
 Principal axes and moments of inertia in atomic units:
                           1         2         3
     Eigenvalues --     0.00000  40.62334  40.62334
           X            1.00000  -0.00000   0.00000
           Y            0.00000   1.00000   0.00000
           Z            0.00000   0.00000   1.00000
 This molecule is a prolate symmetric top.
 Rotational symmetry number  1.
 Rotational temperature (Kelvin)      2.13212
 Rotational constant (GHZ):          44.426211
    3 imaginary frequencies ignored.
 Zero-point vibrational energy      35557.0 (Joules/Mol)
                                    8.49832 (Kcal/Mol)
 Vibrational temperatures:   8553.04
          (Kelvin)

 Zero-point correction=                           0.013543 (Hartree/Particle)
 Thermal correction to Energy=                    0.015903
 Thermal correction to Enthalpy=                  0.016848
 Thermal correction to Gibbs Free Energy=        -0.006078
 Sum of electronic and zero-point Energies=           -100.913133
 Sum of electronic and thermal Energies=              -100.910773
 Sum of electronic and thermal Enthalpies=            -100.909829
 Sum of electronic and thermal Free Energies=         -100.932754

                     E (Thermal)             CV                S
                      KCal/Mol        Cal/Mol-Kelvin    Cal/Mol-Kelvin
 Total                    9.980              4.968             48.250
 Electronic               0.000              0.000              1.377
 Translational            0.889              2.981             35.068
 Rotational               0.592              1.987             11.805
 Vibrational              8.498              0.000              0.000

 Normal termination of Gaussian 16 at Fri Aug 22 17:06:28 2025.
