 Gaussian 16, Revision C.01,
 Gaussian 16:  ES64L-G16RevC.01  3-Jul-2019

 -----------------------------------------
 # sp b3lyp/6-311g** Force nosymm scf=(qc)
 -----------------------------------------

 -------------------
 Title Card Required
 -------------------
 Symbolic Z-matrix:
 Charge =  0 Multiplicity = 2

                          Input orientation:
 ---------------------------------------------------------------------
 Center     Atomic      Atomic             Coordinates (Angstroms)
 Number     Number       Type             X           Y           Z
 ---------------------------------------------------------------------
      1          1           0        0.000000    0.000000    0.000000
      2          1           0       -1.350000    0.000000    0.000000
      3          9           0        1.100000    0.000000    0.000000
 ---------------------------------------------------------------------

 SCF Done:  E(UB3LYP) =  -100.953253668     a.u. after    6 cycles

 Alpha  occ. eigenvalues --  -24.63663  -1.13860  -0.52256  -0.37708  -0.37708
 Alpha  occ. eigenvalues --   -0.37460
 Alpha virt. eigenvalues --    0.06221   0.20007   0.32691   0.93190   0.93190
 Alpha virt. eigenvalues --    0.99736   1.12365   1.12365   1.18947   1.45661
 Alpha virt. eigenvalues --    1.45661   1.54639   2.04413   2.33152   2.45662

  Beta  occ. eigenvalues --  -24.63093  -1.12428  -0.48694  -0.37193  -0.37193
  Beta virt. eigenvalues --   -0.18458   0.09037   0.24125   0.36540   0.93628
  Beta virt. eigenvalues --    0.93628   1.00983   1.20889   1.20889   1.26375
  Beta virt. eigenvalues --    1.50376   1.50376   1.57336   2.16962   2.32231

 Mulliken charges and spin densities:
               1          2
     1  H    0.296342  -0.026677
     2  H    0.046356   0.867060
     3  F   -0.342698   0.159618
 Sum of Mulliken charges =  -0.00000   1.00000

 Dipole moment (field-independent basis, Debye):
    X=             -2.4650    Y=             -0.0000    Z=              0.0000  Tot=              2.4650
 Quadrupole moment (field-independent basis, Debye-Ang):
   XX=             -7.7919   YY=             -6.8766   ZZ=             -6.8766
   XY=             -0.0000   XZ=              0.0000   YZ=              0.0000

  Exact polarizability:      17.014       0.000       2.509      -0.000      -0.000       2.509
 Approx polarizability:      20.211       0.000       2.501       0.000      -0.000       2.501

 ******    1 imaginary frequencies (negative Signs) ******

                      1                      2                      3
                      A                      A                      A
 Frequencies --   -958.0787              1038.5061              1038.5061
 Red. masses --      1.0100                 1.0206                 1.0206
 Frc consts  --      0.5462                 0.6485                 0.6485
 IR Inten    --      4.7654                71.4953                71.4953

                      4
                      A
 Frequencies --   1317.3120
 Red. masses --      1.1059
 Frc consts  --      1.1307
 IR Inten    --     84.5452

 - Thermochemistry -
 -------------------
 Temperature   298.150 Kelvin.  Pressure   1.00000 Atm.
 Atom     1 has atomic number  1 and mass   1.00783

 Molecular mass:    21.01405 amu.
 Principal axes and moments of inertia in atomic units:
                           1         2         3
     Eigenvalues --     0.00000  23.78257  23.78257
           X            1.00000  -0.00000   0.00000
           Y            0.00000   1.00000   0.00000
           Z            0.00000   0.00000   1.00000
 This molecule is a prolate symmetric top.
 Rotational symmetry number  1.
 Rotational temperature (Kelvin)      3.64191
 Rotational constant (GHZ):          75.885036
    1 imaginary frequencies ignored.
 Zero-point vibrational energy      20302.6 (Joules/Mol)
                                    4.85243 (Kcal/Mol)
 Vibrational temperatures:   1494.18  1494.18  1895.32
          (Kelvin)

 Zero-point correction=                           0.007733 (Hartree/Particle)
 Thermal correction to Energy=                    0.010167
 Thermal correction to Enthalpy=                  0.011111
 Thermal correction to Gibbs Free Energy=        -0.011397
 Sum of electronic and zero-point Energies=           -100.945521
 Sum of electronic and thermal Energies=              -100.943086
 Sum of electronic and thermal Enthalpies=            -100.942142
 Sum of electronic and thermal Free Energies=         -100.964650

                     E (Thermal)             CV                S
                      KCal/Mol        Cal/Mol-Kelvin    Cal/Mol-Kelvin
 Total                    6.380              5.782             47.372
 Electronic               0.000              0.000              1.377
 Translational            0.889              2.981             35.068
 Rotational               0.592              1.987             10.741
 Vibrational              4.899              0.814              0.186

 Normal termination of Gaussian 16 at Fri Aug 22 16:04:53 2025.
