 Gaussian 16, Revision C.01,
 Gaussian 16:  ES64L-G16RevC.01  3-Jul-2019

 -----------------------------------------
 # sp b3lyp/6-311g** Force nosymm scf=(qc)
 -----------------------------------------

 -------------------
 Title Card Required
 -------------------
 Symbolic Z-matrix:
 Charge =  0 Multiplicity = 2

                          Input orientation:
 ---------------------------------------------------------------------
 Center     Atomic      Atomic             Coordinates (Angstroms)
 Number     Number       Type             X           Y           Z
 ---------------------------------------------------------------------
      1          1           0        0.000000    0.000000    0.000000
      2          1           0       -0.850000    0.000000    0.000000
      3          9           0        2.850000    0.000000    0.000000
 ---------------------------------------------------------------------

 SCF Done:  E(UB3LYP) =  -100.928475394     a.u. after   20 cycles

 Alpha  occ. eigenvalues --  -24.76732  -1.22527  -0.55714  -0.47013  -0.46862
 Alpha  occ. eigenvalues --   -0.41019
 Alpha virt. eigenvalues --    0.04166   0.20724   0.43912   0.85764   0.90635
 Alpha virt. eigenvalues --    0.93781   1.07058   1.08416   1.08425   1.49252
 Alpha virt. eigenvalues --    1.75759   1.75769   2.13656   2.38927   2.87805

  Beta  occ. eigenvalues --  -24.73569  -1.13438  -0.43923  -0.43692  -0.40934
  Beta virt. eigenvalues --   -0.26332   0.04213   0.20758   0.44017   0.92133
  Beta virt. eigenvalues --    0.95218   0.95650   1.08417   1.08424   1.10686
  Beta virt. eigenvalues --    1.49258   1.75758   1.75768   2.13676   2.38935

 Mulliken charges and spin densities:
               1          2
     1  H   -0.005262  -0.001184
     2  H   -0.005656  -0.000317
     3  F    0.010918   1.001501
 Sum of Mulliken charges =   0.00000   1.00000

 Dipole moment (field-independent basis, Debye):
    X=              0.1144    Y=             -0.0000    Z=             -0.0000  Tot=              0.1144
 Quadrupole moment (field-independent basis, Debye-Ang):
   XX=             -6.0790   YY=             -6.2567   ZZ=             -7.0711
   XY=             -0.0000   XZ=             -0.0000   YZ=             -0.1433

  Exact polarizability:      10.225      -0.000       2.459       0.000      -0.076       2.028
 Approx polarizability:      12.165       0.000       2.644      -0.000      -0.096       2.101

                      1                      2                      3
                      A                      A                      A
 Frequencies --     80.9665              1327.8979              1330.4906
 Red. masses --      1.1085                 1.0095                 1.0095
 Frc consts  --      0.0043                 1.0488                 1.0529
 IR Inten    --      0.3998                 0.0042                 0.0035

                      4
                      A
 Frequencies --   3136.7949
 Red. masses --      1.0078
 Frc consts  --      5.8426
 IR Inten    --      0.9694

 - Thermochemistry -
 -------------------
 Temperature   298.150 Kelvin.  Pressure   1.00000 Atm.
 Atom     1 has atomic number  1 and mass   1.00783

 Molecular mass:    21.01405 amu.
 Principal axes and moments of inertia in atomic units:
                           1         2         3
     Eigenvalues --     0.00000  71.09811  71.09811
           X            1.00000  -0.00000   0.00000
           Y            0.00000   1.00000   0.00000
           Z            0.00000   0.00000   1.00000
 This molecule is a prolate symmetric top.
 Rotational symmetry number  1.
 Rotational temperature (Kelvin)      1.21823
 Rotational constant (GHZ):          25.383816
 Zero-point vibrational energy      35147.2 (Joules/Mol)
                                    8.40038 (Kcal/Mol)
 Warning -- explicit consideration of   1 degrees of freedom as
           vibrations may cause significant error
 Vibrational temperatures:    116.49  1910.55  1914.28  4513.15
          (Kelvin)

 Zero-point correction=                           0.013387 (Hartree/Particle)
 Thermal correction to Energy=                    0.016539
 Thermal correction to Enthalpy=                  0.017483
 Thermal correction to Gibbs Free Energy=        -0.007831
 Sum of electronic and zero-point Energies=           -100.915089
 Sum of electronic and thermal Energies=              -100.911936
 Sum of electronic and thermal Enthalpies=            -100.910992
 Sum of electronic and thermal Free Energies=         -100.936307

                     E (Thermal)             CV                S
                      KCal/Mol        Cal/Mol-Kelvin    Cal/Mol-Kelvin
 Total                   10.378              7.199             53.278
 Electronic               0.000              0.000              1.377
 Translational            0.889              2.981             35.068
 Rotational               0.592              1.987             12.917
 Vibrational              8.897              2.231              3.916
 Vibration     1          0.600              1.962              3.867

 Normal termination of Gaussian 16 at Fri Aug 22 18:47:37 2025.
