 Gaussian 16, Revision C.01,
 Gaussian 16:  ES64L-G16RevC.01  3-Jul-2019

 -----------------------------------------
 # sp b3lyp/6-311g** Force nosymm scf=(qc)
 -----------------------------------------

 -------------------
 Title Card Required
 -------------------
 Symbolic Z-matrix:
 Charge =  0 Multiplicity = 2

                          Input orientation:
 ---------------------------------------------------------------------
 Center     Atomic      Atomic             Coordinates (Angstroms)
 Number     Number       Type             X           Y           Z
 ---------------------------------------------------------------------
      1          1           0        0.000000    0.000000    0.000000
      2          1           0       -3.050000    0.000000    0.000000
      3          9           0        3.800000    0.000000    0.000000
 ---------------------------------------------------------------------

 SCF Done:  E(UB3LYP) =  -100.759480504     a.u. after   30 cycles

 Alpha  occ. eigenvalues --  -24.75763  -1.21699  -0.54888  -0.46085  -0.46085
 Alpha  occ. eigenvalues --   -0.32355
 Alpha virt. eigenvalues --   -0.07647   0.24956   0.36525   0.86857   0.91243
 Alpha virt. eigenvalues --    0.91243   1.01258   1.25176   1.25176   1.25793
 Alpha virt. eigenvalues --    1.44386   1.44471   1.44471   2.15725   2.39735

  Beta  occ. eigenvalues --  -24.72626  -1.12678  -0.42939  -0.42939  -0.32601
  Beta virt. eigenvalues --   -0.25677  -0.07350   0.24772   0.36957   0.92740
  Beta virt. eigenvalues --    0.92740   0.96167   1.05358   1.24902   1.24902
  Beta virt. eigenvalues --    1.25498   1.44842   1.44926   1.44926   2.15816

 Mulliken charges and spin densities:
               1          2
     1  H    0.004284  -0.988175
     2  H    0.000319   0.993304
     3  F   -0.004602   0.994871
 Sum of Mulliken charges =   0.00000   1.00000

 Dipole moment (field-independent basis, Debye):
    X=             -0.0949    Y=              0.0000    Z=             -0.0000  Tot=              0.0949
 Quadrupole moment (field-independent basis, Debye-Ang):
   XX=             -6.9819   YY=             -7.6343   ZZ=             -7.6343
   XY=              0.0000   XZ=             -0.0000   YZ=             -0.0000

  Exact polarizability:      17.445      -0.000       2.028       0.000       0.000       2.028
 Approx polarizability:      12.905       0.000       1.934      -0.000       0.000       1.934

 ******    2 imaginary frequencies (negative Signs) ******

                      1                      2                      3
                      A                      A                      A
 Frequencies --   -321.9392               -93.2957               112.7340
 Red. masses --      1.0087                 1.1074                 1.0155
 Frc consts  --      0.0616                 0.0057                 0.0076
 IR Inten    --      1.8944                 1.4509                 0.0164

                      4
                      A
 Frequencies --    112.7340
 Red. masses --      1.0155
 Frc consts  --      0.0076
 IR Inten    --      0.0164

 - Thermochemistry -
 -------------------
 Temperature   298.150 Kelvin.  Pressure   1.00000 Atm.
 Atom     1 has atomic number  1 and mass   1.00783

 Molecular mass:    21.01405 amu.
 Principal axes and moments of inertia in atomic units:
                           1         2         3
     Eigenvalues --     0.00000 201.26665 201.26665
           X            1.00000  -0.00000   0.00000
           Y            0.00000   1.00000   0.00000
           Z            0.00000   0.00000   1.00000
 This molecule is a prolate symmetric top.
 Rotational symmetry number  1.
 Rotational temperature (Kelvin)      0.43034
 Rotational constant (GHZ):           8.966916
    2 imaginary frequencies ignored.
 Zero-point vibrational energy       1348.6 (Joules/Mol)
                                    0.32232 (Kcal/Mol)
 Warning -- explicit consideration of   2 degrees of freedom as
           vibrations may cause significant error
 Vibrational temperatures:    162.20   162.20
          (Kelvin)

 Zero-point correction=                           0.000514 (Hartree/Particle)
 Thermal correction to Energy=                    0.004295
 Thermal correction to Enthalpy=                  0.005239
 Thermal correction to Gibbs Free Energy=        -0.022258
 Sum of electronic and zero-point Energies=           -100.758967
 Sum of electronic and thermal Energies=              -100.755185
 Sum of electronic and thermal Enthalpies=            -100.754241
 Sum of electronic and thermal Free Energies=         -100.781738

                     E (Thermal)             CV                S
                      KCal/Mol        Cal/Mol-Kelvin    Cal/Mol-Kelvin
 Total                    2.695              8.846             57.873
 Electronic               0.000              0.000              1.377
 Translational            0.889              2.981             35.068
 Rotational               0.592              1.987             14.985
 Vibrational              1.214              3.878              6.443
 Vibration     1          0.607              1.939              3.221
 Vibration     2          0.607              1.939              3.221

 Normal termination of Gaussian 16 at Sat Aug 23 00:51:26 2025.
