 Gaussian 16, Revision C.01,
 Gaussian 16:  ES64L-G16RevC.01  3-Jul-2019

 -----------------------------------------
 # sp b3lyp/6-311g** Force nosymm scf=(qc)
 -----------------------------------------

 -------------------
 Title Card Required
 -------------------
 Symbolic Z-matrix:
 Charge =  0 Multiplicity = 2

                          Input orientation:
 ---------------------------------------------------------------------
 Center     Atomic      Atomic             Coordinates (Angstroms)
 Number     Number       Type             X           Y           Z
 ---------------------------------------------------------------------
      1          1           0        0.000000    0.000000    0.000000
      2          1           0       -2.550000    0.000000    0.000000
      3          9           0        1.100000    0.000000    0.000000
 ---------------------------------------------------------------------

 SCF Done:  E(UB3LYP) =  -100.948925350     a.u. after    5 cycles

 Alpha  occ. eigenvalues --  -24.64142  -1.13749  -0.49558  -0.37971  -0.37971
 Alpha  occ. eigenvalues --   -0.35063
 Alpha virt. eigenvalues --   -0.01568   0.24865   0.30609   0.93695   0.93695
 Alpha virt. eigenvalues --    0.99655   1.20682   1.22480   1.22480   1.35010
 Alpha virt. eigenvalues --    1.35361   1.35361   1.80558   2.13615   2.32593

  Beta  occ. eigenvalues --  -24.64114  -1.13678  -0.49439  -0.37946  -0.37946
  Beta virt. eigenvalues --   -0.10408   0.00435   0.30619   0.36904   0.93696
  Beta virt. eigenvalues --    0.93696   0.99722   1.29015   1.35308   1.35308
  Beta virt. eigenvalues --    1.44062   1.44062   1.47509   1.80768   2.32198

 Mulliken charges and spin densities:
               1          2
     1  H    0.334912   0.001595
     2  H    0.007815   0.989754
     3  F   -0.342727   0.008651
 Sum of Mulliken charges =   0.00000   1.00000

 Dipole moment (field-independent basis, Debye):
    X=             -2.2608    Y=              0.0000    Z=             -0.0000  Tot=              2.2608
 Quadrupole moment (field-independent basis, Debye-Ang):
   XX=             -8.2779   YY=             -7.0431   ZZ=             -7.0431
   XY=              0.0000   XZ=             -0.0000   YZ=             -0.0000

  Exact polarizability:      10.417       0.000       2.388      -0.000       0.000       2.388
 Approx polarizability:      12.606       0.000       2.356      -0.000       0.000       2.356

 ******    1 imaginary frequencies (negative Signs) ******

                      1                      2                      3
                      A                      A                      A
 Frequencies --   -129.9050              1163.4891              1163.4891
 Red. masses --      1.0520                 1.0304                 1.0304
 Frc consts  --      0.0105                 0.8219                 0.8219
 IR Inten    --      1.6916               143.5103               143.5103

                      4
                      A
 Frequencies --   1916.5241
 Red. masses --      1.0596
 Frc consts  --      2.2930
 IR Inten    --    118.3658

 - Thermochemistry -
 -------------------
 Temperature   298.150 Kelvin.  Pressure   1.00000 Atm.
 Atom     1 has atomic number  1 and mass   1.00783

 Molecular mass:    21.01405 amu.
 Principal axes and moments of inertia in atomic units:
                           1         2         3
     Eigenvalues --     0.00000  48.40815  48.40815
           X            1.00000  -0.00000   0.00000
           Y            0.00000   1.00000   0.00000
           Z            0.00000   0.00000   1.00000
 This molecule is a prolate symmetric top.
 Rotational symmetry number  1.
 Rotational temperature (Kelvin)      1.78924
 Rotational constant (GHZ):          37.281765
    1 imaginary frequencies ignored.
 Zero-point vibrational energy      25381.8 (Joules/Mol)
                                    6.06639 (Kcal/Mol)
 Vibrational temperatures:   1674.00  1674.00  2757.45
          (Kelvin)

 Zero-point correction=                           0.009667 (Hartree/Particle)
 Thermal correction to Energy=                    0.012067
 Thermal correction to Enthalpy=                  0.013012
 Thermal correction to Gibbs Free Energy=        -0.010126
 Sum of electronic and zero-point Energies=           -100.939258
 Sum of electronic and thermal Energies=              -100.936858
 Sum of electronic and thermal Enthalpies=            -100.935914
 Sum of electronic and thermal Free Energies=         -100.959051

                     E (Thermal)             CV                S
                      KCal/Mol        Cal/Mol-Kelvin    Cal/Mol-Kelvin
 Total                    7.572              5.444             48.697
 Electronic               0.000              0.000              1.377
 Translational            0.889              2.981             35.068
 Rotational               0.592              1.987             12.153
 Vibrational              6.091              0.476              0.098

 Normal termination of Gaussian 16 at Fri Aug 22 16:05:42 2025.
