 Gaussian 16, Revision C.01,
 Gaussian 16:  ES64L-G16RevC.01  3-Jul-2019

 -----------------------------------------
 # sp b3lyp/6-311g** Force nosymm scf=(qc)
 -----------------------------------------

 -------------------
 Title Card Required
 -------------------
 Symbolic Z-matrix:
 Charge =  0 Multiplicity = 2

                          Input orientation:
 ---------------------------------------------------------------------
 Center     Atomic      Atomic             Coordinates (Angstroms)
 Number     Number       Type             X           Y           Z
 ---------------------------------------------------------------------
      1          1           0        0.000000    0.000000    0.000000
      2          1           0       -3.300000    0.000000    0.000000
      3          9           0        3.550000    0.000000    0.000000
 ---------------------------------------------------------------------

 SCF Done:  E(UB3LYP) =  -100.759277843     a.u. after   33 cycles

 Alpha  occ. eigenvalues --  -24.75469  -1.21426  -0.54592  -0.45836  -0.45836
 Alpha  occ. eigenvalues --   -0.32360
 Alpha virt. eigenvalues --   -0.07319   0.24521   0.36777   0.87454   0.91429
 Alpha virt. eigenvalues --    0.91429   1.01693   1.25153   1.25153   1.25452
 Alpha virt. eigenvalues --    1.44719   1.44894   1.44894   2.15318   2.40567

  Beta  occ. eigenvalues --  -24.72350  -1.12463  -0.42710  -0.42710  -0.32785
  Beta virt. eigenvalues --   -0.25527  -0.06829   0.24298   0.37590   0.92920
  Beta virt. eigenvalues --    0.92920   0.96627   1.05723   1.24667   1.24667
  Beta virt. eigenvalues --    1.24941   1.45453   1.45681   1.45681   2.15523

 Mulliken charges and spin densities:
               1          2
     1  H    0.009710  -0.985493
     2  H    0.000277   0.996507
     3  F   -0.009987   0.988986
 Sum of Mulliken charges =  -0.00000   1.00000

 Dipole moment (field-independent basis, Debye):
    X=             -0.1868    Y=              0.0000    Z=              0.0000  Tot=              0.1868
 Quadrupole moment (field-independent basis, Debye-Ang):
   XX=             -7.3013   YY=             -7.6259   ZZ=             -7.6259
   XY=              0.0000   XZ=              0.0000   YZ=              0.0000

  Exact polarizability:      23.043       0.000       2.036       0.000       0.000       2.036
 Approx polarizability:      17.825       0.000       1.933       0.000       0.000       1.933

 ******    2 imaginary frequencies (negative Signs) ******

                      1                      2                      3
                      A                      A                      A
 Frequencies --   -271.2687              -113.5621                86.4746
 Red. masses --      1.0173                 1.0972                 1.0171
 Frc consts  --      0.0441                 0.0083                 0.0045
 IR Inten    --      7.6460                 2.1549                 0.0789

                      4
                      A
 Frequencies --     86.4746
 Red. masses --      1.0171
 Frc consts  --      0.0045
 IR Inten    --      0.0789

 - Thermochemistry -
 -------------------
 Temperature   298.150 Kelvin.  Pressure   1.00000 Atm.
 Atom     1 has atomic number  1 and mass   1.00783

 Molecular mass:    21.01405 amu.
 Principal axes and moments of inertia in atomic units:
                           1         2         3
     Eigenvalues --     0.00000 195.56182 195.56182
           X            1.00000  -0.00000   0.00000
           Y            0.00000   1.00000   0.00000
           Z            0.00000   0.00000   1.00000
 This molecule is a prolate symmetric top.
 Rotational symmetry number  1.
 Rotational temperature (Kelvin)      0.44290
 Rotational constant (GHZ):           9.228495
    2 imaginary frequencies ignored.
 Zero-point vibrational energy       1034.5 (Joules/Mol)
                                    0.24724 (Kcal/Mol)
 Warning -- explicit consideration of   2 degrees of freedom as
           vibrations may cause significant error
 Vibrational temperatures:    124.42   124.42
          (Kelvin)

 Zero-point correction=                           0.000394 (Hartree/Particle)
 Thermal correction to Energy=                    0.004276
 Thermal correction to Enthalpy=                  0.005220
 Thermal correction to Gibbs Free Energy=        -0.022741
 Sum of electronic and zero-point Energies=           -100.758884
 Sum of electronic and thermal Energies=              -100.755002
 Sum of electronic and thermal Enthalpies=            -100.754058
 Sum of electronic and thermal Free Energies=         -100.782019

                     E (Thermal)             CV                S
                      KCal/Mol        Cal/Mol-Kelvin    Cal/Mol-Kelvin
 Total                    2.683              8.885             58.850
 Electronic               0.000              0.000              1.377
 Translational            0.889              2.981             35.068
 Rotational               0.592              1.987             14.928
 Vibrational              1.202              3.917              7.477
 Vibration     1          0.601              1.959              3.738
 Vibration     2          0.601              1.959              3.738

 Normal termination of Gaussian 16 at Fri Aug 22 22:41:07 2025.
