 Gaussian 16, Revision C.01,
 Gaussian 16:  ES64L-G16RevC.01  3-Jul-2019

 -----------------------------------------
 # sp b3lyp/6-311g** Force nosymm scf=(qc)
 -----------------------------------------

 -------------------
 Title Card Required
 -------------------
 Symbolic Z-matrix:
 Charge =  0 Multiplicity = 2

                          Input orientation:
 ---------------------------------------------------------------------
 Center     Atomic      Atomic             Coordinates (Angstroms)
 Number     Number       Type             X           Y           Z
 ---------------------------------------------------------------------
      1          1           0        0.000000    0.000000    0.000000
      2          1           0       -3.300000    0.000000    0.000000
      3          9           0        2.350000    0.000000    0.000000
 ---------------------------------------------------------------------

 SCF Done:  E(UB3LYP) =  -100.771521971     a.u. after   20 cycles

 Alpha  occ. eigenvalues --  -24.70806  -1.17072  -0.49892  -0.41930  -0.41930
 Alpha  occ. eigenvalues --   -0.33160
 Alpha virt. eigenvalues --   -0.11298   0.23395   0.34454   0.89103   0.94077
 Alpha virt. eigenvalues --    0.94077   1.06354   1.24360   1.24360   1.24695
 Alpha virt. eigenvalues --    1.39088   1.39088   1.47228   2.14582   2.34358

  Beta  occ. eigenvalues --  -24.68057  -1.09276  -0.39196  -0.39196  -0.36017
  Beta virt. eigenvalues --   -0.22713  -0.07219   0.23944   0.37563   0.93888
  Beta virt. eigenvalues --    0.95343   0.95343   1.08449   1.21716   1.21716
  Beta virt. eigenvalues --    1.34919   1.45280   1.45463   1.45463   2.12553

 Mulliken charges and spin densities:
               1          2
     1  H    0.112788  -0.863853
     2  H    0.001787   0.996474
     3  F   -0.114575   0.867379
 Sum of Mulliken charges =   0.00000   1.00000

 Dipole moment (field-independent basis, Debye):
    X=             -1.3890    Y=              0.0000    Z=              0.0000  Tot=              1.3890
 Quadrupole moment (field-independent basis, Debye-Ang):
   XX=             -9.5133   YY=             -7.5554   ZZ=             -7.5554
   XY=              0.0000   XZ=              0.0000   YZ=             -0.0000

  Exact polarizability:      30.647       0.000       2.030       0.000       0.000       2.030
 Approx polarizability:      39.729       0.000       1.922       0.000       0.000       1.922

 ******    2 imaginary frequencies (negative Signs) ******

                      1                      2                      3
                      A                      A                      A
 Frequencies --   -734.0586              -152.7564               296.4174
 Red. masses --      1.0536                 1.0580                 1.0225
 Frc consts  --      0.3345                 0.0145                 0.0529
 IR Inten    --     92.1805                 0.6529                11.9477

                      4
                      A
 Frequencies --    296.4174
 Red. masses --      1.0225
 Frc consts  --      0.0529
 IR Inten    --     11.9477

 - Thermochemistry -
 -------------------
 Temperature   298.150 Kelvin.  Pressure   1.00000 Atm.
 Atom     1 has atomic number  1 and mass   1.00783

 Molecular mass:    21.01405 amu.
 Principal axes and moments of inertia in atomic units:
                           1         2         3
     Eigenvalues --     0.00000 123.71803 123.71803
           X            1.00000  -0.00000   0.00000
           Y            0.00000   1.00000   0.00000
           Z            0.00000   0.00000   1.00000
 This molecule is a prolate symmetric top.
 Rotational symmetry number  1.
 Rotational temperature (Kelvin)      0.70009
 Rotational constant (GHZ):          14.587536
    2 imaginary frequencies ignored.
 Zero-point vibrational energy       3545.9 (Joules/Mol)
                                    0.84750 (Kcal/Mol)
 Warning -- explicit consideration of   2 degrees of freedom as
           vibrations may cause significant error
 Vibrational temperatures:    426.48   426.48
          (Kelvin)

 Zero-point correction=                           0.001351 (Hartree/Particle)
 Thermal correction to Energy=                    0.004560
 Thermal correction to Enthalpy=                  0.005505
 Thermal correction to Gibbs Free Energy=        -0.019838
 Sum of electronic and zero-point Energies=           -100.770171
 Sum of electronic and thermal Energies=              -100.766962
 Sum of electronic and thermal Enthalpies=            -100.766017
 Sum of electronic and thermal Free Energies=         -100.791360

                     E (Thermal)             CV                S
                      KCal/Mol        Cal/Mol-Kelvin    Cal/Mol-Kelvin
 Total                    2.862              8.329             53.338
 Electronic               0.000              0.000              1.377
 Translational            0.889              2.981             35.068
 Rotational               0.592              1.987             14.018
 Vibrational              1.380              3.361              2.874
 Vibration     1          0.690              1.680              1.437
 Vibration     2          0.690              1.680              1.437

 Normal termination of Gaussian 16 at Fri Aug 22 17:27:34 2025.
