 Gaussian 16, Revision C.01,
 Gaussian 16:  ES64L-G16RevC.01  3-Jul-2019

 -----------------------------------------
 # sp b3lyp/6-311g** Force nosymm scf=(qc)
 -----------------------------------------

 -------------------
 Title Card Required
 -------------------
 Symbolic Z-matrix:
 Charge =  0 Multiplicity = 2

                          Input orientation:
 ---------------------------------------------------------------------
 Center     Atomic      Atomic             Coordinates (Angstroms)
 Number     Number       Type             X           Y           Z
 ---------------------------------------------------------------------
      1          1           0        0.000000    0.000000    0.000000
      2          1           0       -1.800000    0.000000    0.000000
      3          9           0        1.750000    0.000000    0.000000
 ---------------------------------------------------------------------

 SCF Done:  E(UB3LYP) =  -100.829009651     a.u. after   14 cycles

 Alpha  occ. eigenvalues --  -24.66161  -1.12495  -0.45694  -0.38011  -0.38011
 Alpha  occ. eigenvalues --   -0.37867
 Alpha virt. eigenvalues --   -0.12241   0.22782   0.29455   0.89732   0.94763
 Alpha virt. eigenvalues --    0.94763   1.03994   1.19484   1.19484   1.32850
 Alpha virt. eigenvalues --    1.34645   1.34645   1.73101   2.13316   2.33175

  Beta  occ. eigenvalues --  -24.64238  -1.07211  -0.38976  -0.36138  -0.36138
  Beta virt. eigenvalues --   -0.21109  -0.09851   0.25506   0.30371   0.92564
  Beta virt. eigenvalues --    0.94909   0.94909   1.07700   1.24724   1.24724
  Beta virt. eigenvalues --    1.35467   1.35467   1.41044   1.73409   2.14614

 Mulliken charges and spin densities:
               1          2
     1  H    0.196274  -0.439675
     2  H    0.061203   0.837032
     3  F   -0.257477   0.602643
 Sum of Mulliken charges =  -0.00000   1.00000

 Dipole moment (field-independent basis, Debye):
    X=             -2.7378    Y=             -0.0000    Z=             -0.0000  Tot=              2.7378
 Quadrupole moment (field-independent basis, Debye-Ang):
   XX=             -8.5579   YY=             -7.4420   ZZ=             -7.4420
   XY=             -0.0000   XZ=             -0.0000   YZ=              0.0000

  Exact polarizability:      44.679      -0.000       2.144      -0.000       0.000       2.144
 Approx polarizability:      59.902       0.000       2.061       0.000      -0.000       2.061

 ******    2 imaginary frequencies (negative Signs) ******

                      1                      2                      3
                      A                      A                      A
 Frequencies --  -2078.5163              -617.8687               847.1473
 Red. masses --      1.0238                 1.0898                 1.0183
 Frc consts  --      2.6060                 0.2451                 0.4306
 IR Inten    --    217.7081                 9.0327                21.5728

                      4
                      A
 Frequencies --    847.1473
 Red. masses --      1.0183
 Frc consts  --      0.4306
 IR Inten    --     21.5728

 - Thermochemistry -
 -------------------
 Temperature   298.150 Kelvin.  Pressure   1.00000 Atm.
 Atom     1 has atomic number  1 and mass   1.00783

 Molecular mass:    21.01405 amu.
 Principal axes and moments of inertia in atomic units:
                           1         2         3
     Eigenvalues --     0.00000  51.52994  51.52994
           X            1.00000  -0.00000   0.00000
           Y            0.00000   1.00000   0.00000
           Z            0.00000   0.00000   1.00000
 This molecule is a prolate symmetric top.
 Rotational symmetry number  1.
 Rotational temperature (Kelvin)      1.68085
 Rotational constant (GHZ):          35.023157
    2 imaginary frequencies ignored.
 Zero-point vibrational energy      10134.1 (Joules/Mol)
                                    2.42212 (Kcal/Mol)
 Vibrational temperatures:   1218.86  1218.86
          (Kelvin)

 Zero-point correction=                           0.003860 (Hartree/Particle)
 Thermal correction to Energy=                    0.006352
 Thermal correction to Enthalpy=                  0.007296
 Thermal correction to Gibbs Free Energy=        -0.016017
 Sum of electronic and zero-point Energies=           -100.825150
 Sum of electronic and thermal Energies=              -100.822658
 Sum of electronic and thermal Enthalpies=            -100.821713
 Sum of electronic and thermal Free Energies=         -100.845027

                     E (Thermal)             CV                S
                      KCal/Mol        Cal/Mol-Kelvin    Cal/Mol-Kelvin
 Total                    3.986              6.120             49.067
 Electronic               0.000              0.000              1.377
 Translational            0.889              2.981             35.068
 Rotational               0.592              1.987             12.278
 Vibrational              2.505              1.152              0.344

 Normal termination of Gaussian 16 at Fri Aug 22 16:40:17 2025.
