 Gaussian 16, Revision C.01,
 Gaussian 16:  ES64L-G16RevC.01  3-Jul-2019

 -----------------------------------------
 # sp b3lyp/6-311g** Force nosymm scf=(qc)
 -----------------------------------------

 -------------------
 Title Card Required
 -------------------
 Symbolic Z-matrix:
 Charge =  0 Multiplicity = 2

                          Input orientation:
 ---------------------------------------------------------------------
 Center     Atomic      Atomic             Coordinates (Angstroms)
 Number     Number       Type             X           Y           Z
 ---------------------------------------------------------------------
      1          1           0        0.000000    0.000000    0.000000
      2          1           0       -2.350000    0.000000    0.000000
      3          9           0        1.000000    0.000000    0.000000
 ---------------------------------------------------------------------

 SCF Done:  E(UB3LYP) =  -100.966699451     a.u. after    6 cycles

 Alpha  occ. eigenvalues --  -24.63998  -1.15912  -0.51609  -0.38644  -0.38644
 Alpha  occ. eigenvalues --   -0.35307
 Alpha virt. eigenvalues --    0.02212   0.24971   0.34304   0.94186   0.94186
 Alpha virt. eigenvalues --    0.98474   1.18193   1.22234   1.22234   1.36097
 Alpha virt. eigenvalues --    1.36097   1.41019   1.90468   2.13308   2.34583

  Beta  occ. eigenvalues --  -24.63965  -1.15829  -0.51455  -0.38616  -0.38616
  Beta virt. eigenvalues --   -0.10718   0.04174   0.34027   0.36786   0.94190
  Beta virt. eigenvalues --    0.94190   0.98644   1.27540   1.36016   1.36016
  Beta virt. eigenvalues --    1.43230   1.43230   1.52048   1.90470   2.33434

 Mulliken charges and spin densities:
               1          2
     1  H    0.312841   0.003544
     2  H    0.009344   0.986708
     3  F   -0.322185   0.009748
 Sum of Mulliken charges =   0.00000   1.00000

 Dipole moment (field-independent basis, Debye):
    X=             -2.1422    Y=              0.0000    Z=             -0.0000  Tot=              2.1422
 Quadrupole moment (field-independent basis, Debye-Ang):
   XX=             -7.9215   YY=             -6.9492   ZZ=             -6.9492
   XY=              0.0000   XZ=             -0.0000   YZ=             -0.0000

  Exact polarizability:       9.369      -0.000       2.434      -0.000       0.000       2.434
 Approx polarizability:      10.545       0.000       2.412       0.000       0.000       2.412

 ******    1 imaginary frequencies (negative Signs) ******

                      1                      2                      3
                      A                      A                      A
 Frequencies --    -80.0711               958.8271               958.8271
 Red. masses --      1.0527                 1.0307                 1.0307
 Frc consts  --      0.0040                 0.5583                 0.5583
 IR Inten    --      1.5621               149.6997               149.6997

                      4
                      A
 Frequencies --   3006.4049
 Red. masses --      1.0589
 Frc consts  --      5.6389
 IR Inten    --    139.5732

 - Thermochemistry -
 -------------------
 Temperature   298.150 Kelvin.  Pressure   1.00000 Atm.
 Atom     1 has atomic number  1 and mass   1.00783

 Molecular mass:    21.01405 amu.
 Principal axes and moments of inertia in atomic units:
                           1         2         3
     Eigenvalues --     0.00000  40.72273  40.72273
           X            1.00000  -0.00000   0.00000
           Y            0.00000   1.00000   0.00000
           Z            0.00000   0.00000   1.00000
 This molecule is a prolate symmetric top.
 Rotational symmetry number  1.
 Rotational temperature (Kelvin)      2.12692
 Rotational constant (GHZ):          44.317788
    1 imaginary frequencies ignored.
 Zero-point vibrational energy      29452.4 (Joules/Mol)
                                    7.03930 (Kcal/Mol)
 Vibrational temperatures:   1379.54  1379.54  4325.55
          (Kelvin)

 Zero-point correction=                           0.011218 (Hartree/Particle)
 Thermal correction to Energy=                    0.013665
 Thermal correction to Enthalpy=                  0.014609
 Thermal correction to Gibbs Free Energy=        -0.008424
 Sum of electronic and zero-point Energies=           -100.955482
 Sum of electronic and thermal Energies=              -100.953035
 Sum of electronic and thermal Enthalpies=            -100.952091
 Sum of electronic and thermal Free Energies=         -100.975123

                     E (Thermal)             CV                S
                      KCal/Mol        Cal/Mol-Kelvin    Cal/Mol-Kelvin
 Total                    8.575              5.817             48.476
 Electronic               0.000              0.000              1.377
 Translational            0.889              2.981             35.068
 Rotational               0.592              1.987             11.810
 Vibrational              7.093              0.849              0.221

 Normal termination of Gaussian 16 at Fri Aug 22 16:00:47 2025.
