 Gaussian 16, Revision C.01,
 Gaussian 16:  ES64L-G16RevC.01  3-Jul-2019

 -----------------------------------------
 # sp b3lyp/6-311g** Force nosymm scf=(qc)
 -----------------------------------------

 -------------------
 Title Card Required
 -------------------
 Symbolic Z-matrix:
 Charge =  0 Multiplicity = 2

                          Input orientation:
 ---------------------------------------------------------------------
 Center     Atomic      Atomic             Coordinates (Angstroms)
 Number     Number       Type             X           Y           Z
 ---------------------------------------------------------------------
      1          1           0        0.000000    0.000000    0.000000
      2          1           0       -0.850000    0.000000    0.000000
      3          9           0        1.550000    0.000000    0.000000
 ---------------------------------------------------------------------

 SCF Done:  E(UB3LYP) =  -100.935419174     a.u. after    7 cycles

 Alpha  occ. eigenvalues --  -24.70874  -1.17788  -0.54491  -0.42407  -0.42407
 Alpha  occ. eigenvalues --   -0.42214
 Alpha virt. eigenvalues --    0.06599   0.20032   0.39387   0.89312   0.89312
 Alpha virt. eigenvalues --    0.97453   1.07419   1.07419   1.22831   1.68145
 Alpha virt. eigenvalues --    1.73757   1.73757   2.11361   2.38021   2.75831

  Beta  occ. eigenvalues --  -24.68284  -1.10648  -0.45678  -0.39881  -0.39881
  Beta virt. eigenvalues --   -0.23731   0.08269   0.21110   0.41322   0.90434
  Beta virt. eigenvalues --    0.90434   1.03703   1.09746   1.09746   1.26337
  Beta virt. eigenvalues --    1.71246   1.75132   1.75132   2.12803   2.40609

 Mulliken charges and spin densities:
               1          2
     1  H    0.120540  -0.062000
     2  H    0.033659   0.272581
     3  F   -0.154199   0.789419
 Sum of Mulliken charges =   0.00000   1.00000

 Dipole moment (field-independent basis, Debye):
    X=             -1.2956    Y=              0.0000    Z=             -0.0000  Tot=              1.2956
 Quadrupole moment (field-independent basis, Debye-Ang):
   XX=             -6.9803   YY=             -6.9080   ZZ=             -6.9080
   XY=              0.0000   XZ=             -0.0000   YZ=              0.0000

  Exact polarizability:      23.735      -0.000       2.313       0.000       0.000       2.313
 Approx polarizability:      31.768      -0.000       2.337       0.000       0.000       2.337

 ******    1 imaginary frequencies (negative Signs) ******

                      1                      2                      3
                      A                      A                      A
 Frequencies --   -703.5150               971.0161               971.0161
 Red. masses --      1.1050                 1.0123                 1.0123
 Frc consts  --      0.3222                 0.5624                 0.5624
 IR Inten    --    187.9170                 1.0966                 1.0966

                      4
                      A
 Frequencies --   2651.5336
 Red. masses --      1.0107
 Frc consts  --      4.1867
 IR Inten    --    735.3204

 - Thermochemistry -
 -------------------
 Temperature   298.150 Kelvin.  Pressure   1.00000 Atm.
 Atom     1 has atomic number  1 and mass   1.00783

 Molecular mass:    21.01405 amu.
 Principal axes and moments of inertia in atomic units:
                           1         2         3
     Eigenvalues --     0.00000  26.68381  26.68381
           X            1.00000  -0.00000   0.00000
           Y            0.00000   1.00000   0.00000
           Z            0.00000   0.00000   1.00000
 This molecule is a prolate symmetric top.
 Rotational symmetry number  1.
 Rotational temperature (Kelvin)      3.24594
 Rotational constant (GHZ):          67.634320
    1 imaginary frequencies ignored.
 Zero-point vibrational energy      27475.6 (Joules/Mol)
                                    6.56683 (Kcal/Mol)
 Vibrational temperatures:   1397.08  1397.08  3814.97
          (Kelvin)

 Zero-point correction=                           0.010465 (Hartree/Particle)
 Thermal correction to Energy=                    0.012908
 Thermal correction to Enthalpy=                  0.013852
 Thermal correction to Gibbs Free Energy=        -0.008776
 Sum of electronic and zero-point Energies=           -100.924954
 Sum of electronic and thermal Energies=              -100.922511
 Sum of electronic and thermal Enthalpies=            -100.921567
 Sum of electronic and thermal Free Energies=         -100.944196

                     E (Thermal)             CV                S
                      KCal/Mol        Cal/Mol-Kelvin    Cal/Mol-Kelvin
 Total                    8.100              5.789             47.625
 Electronic               0.000              0.000              1.377
 Translational            0.889              2.981             35.068
 Rotational               0.592              1.987             10.970
 Vibrational              6.619              0.821              0.210

 Normal termination of Gaussian 16 at Fri Aug 22 16:27:14 2025.
