 Gaussian 16, Revision C.01,
 Gaussian 16:  ES64L-G16RevC.01  3-Jul-2019

 -----------------------------------------
 # sp b3lyp/6-311g** Force nosymm scf=(qc)
 -----------------------------------------

 -------------------
 Title Card Required
 -------------------
 Symbolic Z-matrix:
 Charge =  0 Multiplicity = 2

                          Input orientation:
 ---------------------------------------------------------------------
 Center     Atomic      Atomic             Coordinates (Angstroms)
 Number     Number       Type             X           Y           Z
 ---------------------------------------------------------------------
      1          1           0        0.000000    0.000000    0.000000
      2          1           0       -3.400000    0.000000    0.000000
      3          9           0        0.800000    0.000000    0.000000
 ---------------------------------------------------------------------

 SCF Done:  E(UB3LYP) =  -100.950325065     a.u. after    6 cycles

 Alpha  occ. eigenvalues --  -24.63673  -1.23037  -0.56187  -0.40647  -0.40647
 Alpha  occ. eigenvalues --   -0.33595
 Alpha virt. eigenvalues --    0.05120   0.24852   0.45830   0.94207   0.94207
 Alpha virt. eigenvalues --    0.97009   1.23583   1.23919   1.23919   1.30485
 Alpha virt. eigenvalues --    1.39821   1.39821   2.02633   2.14546   2.53082

  Beta  occ. eigenvalues --  -24.63672  -1.23034  -0.56184  -0.40646  -0.40646
  Beta virt. eigenvalues --   -0.05555   0.05732   0.39351   0.45795   0.94207
  Beta virt. eigenvalues --    0.94207   0.96999   1.29837   1.39821   1.39821
  Beta virt. eigenvalues --    1.50763   1.50969   1.50969   2.02665   2.44492

 Mulliken charges and spin densities:
               1          2
     1  H    0.274419   0.000729
     2  H    0.000985   0.998764
     3  F   -0.275405   0.000507
 Sum of Mulliken charges =   0.00000   1.00000

 Dipole moment (field-independent basis, Debye):
    X=             -1.7466    Y=              0.0000    Z=             -0.0000  Tot=              1.7466
 Quadrupole moment (field-independent basis, Debye-Ang):
   XX=             -7.5838   YY=             -6.7690   ZZ=             -6.7690
   XY=              0.0000   XZ=             -0.0000   YZ=              0.0000

  Exact polarizability:       4.796       0.000       2.444      -0.000       0.000       2.444
 Approx polarizability:       5.346      -0.000       2.425      -0.000       0.000       2.425

 ******    3 imaginary frequencies (negative Signs) ******

                      1                      2                      3
                      A                      A                      A
 Frequencies --  -1978.6001             -1978.6001               -45.4112
 Red. masses --      1.0398                 1.0398                 1.0532
 Frc consts  --      2.3983                 2.3983                 0.0013
 IR Inten    --    195.2747               195.2747                 0.0444

                      4
                      A
 Frequencies --   6349.7346
 Red. masses --      1.0583
 Frc consts  --     25.1406
 IR Inten    --    106.9689

 - Thermochemistry -
 -------------------
 Temperature   298.150 Kelvin.  Pressure   1.00000 Atm.
 Atom     1 has atomic number  1 and mass   1.00783

 Molecular mass:    21.01405 amu.
 Principal axes and moments of inertia in atomic units:
                           1         2         3
     Eigenvalues --     0.00000  61.47470  61.47470
           X            1.00000  -0.00000   0.00000
           Y            0.00000   1.00000   0.00000
           Z            0.00000   0.00000   1.00000
 This molecule is a prolate symmetric top.
 Rotational symmetry number  1.
 Rotational temperature (Kelvin)      1.40894
 Rotational constant (GHZ):          29.357461
    3 imaginary frequencies ignored.
 Zero-point vibrational energy      37979.8 (Joules/Mol)
                                    9.07740 (Kcal/Mol)
 Vibrational temperatures:   9135.85
          (Kelvin)

 Zero-point correction=                           0.014466 (Hartree/Particle)
 Thermal correction to Energy=                    0.016826
 Thermal correction to Enthalpy=                  0.017770
 Thermal correction to Gibbs Free Energy=        -0.005546
 Sum of electronic and zero-point Energies=           -100.935859
 Sum of electronic and thermal Energies=              -100.933499
 Sum of electronic and thermal Enthalpies=            -100.932555
 Sum of electronic and thermal Free Energies=         -100.955871

                     E (Thermal)             CV                S
                      KCal/Mol        Cal/Mol-Kelvin    Cal/Mol-Kelvin
 Total                   10.559              4.968             49.074
 Electronic               0.000              0.000              1.377
 Translational            0.889              2.981             35.068
 Rotational               0.592              1.987             12.628
 Vibrational              9.077              0.000              0.000

 Normal termination of Gaussian 16 at Fri Aug 22 15:52:01 2025.
