 Gaussian 16, Revision C.01,
 Gaussian 16:  ES64L-G16RevC.01  3-Jul-2019

 -----------------------------------------
 # sp b3lyp/6-311g** Force nosymm scf=(qc)
 -----------------------------------------

 -------------------
 Title Card Required
 -------------------
 Symbolic Z-matrix:
 Charge =  0 Multiplicity = 2

                          Input orientation:
 ---------------------------------------------------------------------
 Center     Atomic      Atomic             Coordinates (Angstroms)
 Number     Number       Type             X           Y           Z
 ---------------------------------------------------------------------
      1          1           0        0.000000    0.000000    0.000000
      2          1           0       -2.600000    0.000000    0.000000
      3          9           0        2.100000    0.000000    0.000000
 ---------------------------------------------------------------------

 SCF Done:  E(UB3LYP) =  -100.757687409     a.u. after   15 cycles

 Alpha  occ. eigenvalues --  -24.63553  -1.07802  -0.38679  -0.36216  -0.35235
 Alpha  occ. eigenvalues --   -0.34132
 Alpha virt. eigenvalues --   -0.23248   0.21641   0.26535   0.91026   0.97985
 Alpha virt. eigenvalues --    0.98013   1.09886   1.21348   1.21348   1.22958
 Alpha virt. eigenvalues --    1.22964   1.23501   1.48436   2.12279   2.14433

  Beta  occ. eigenvalues --  -24.63578  -1.07876  -0.38281  -0.35261  -0.34468
  Beta virt. eigenvalues --   -0.23398  -0.10400   0.25255   0.34213   0.91426
  Beta virt. eigenvalues --    0.98005   0.98030   1.10176   1.23836   1.23842
  Beta virt. eigenvalues --    1.40782   1.40782   1.41474   1.49411   2.15578

 Mulliken charges and spin densities:
               1          2
     1  H    0.242061   0.049420
     2  H    0.037477   0.959133
     3  F   -0.279538  -0.008553
 Sum of Mulliken charges =  -0.00000   1.00000

 Dipole moment (field-independent basis, Debye):
    X=             -3.4519    Y=              0.0006    Z=              0.0000  Tot=              3.4519
 Quadrupole moment (field-independent basis, Debye-Ang):
   XX=            -11.1528   YY=             -7.5246   ZZ=             -7.5729
   XY=             -0.0006   XZ=             -0.0000   YZ=              0.0037

  Exact polarizability:      57.967       0.002       2.018       0.001      -0.010       2.153
 Approx polarizability:     147.131      -0.037       1.928      -0.003       0.002       1.898

 ******    2 imaginary frequencies (negative Signs) ******

                      1                      2                      3
                      A                      A                      A
 Frequencies --  -1231.2858              -300.1079               571.0740
 Red. masses --      1.0489                 1.0627                 1.0207
 Frc consts  --      0.9369                 0.0564                 0.1961
 IR Inten    --     36.9280                29.6088                56.7526

                      4
                      A
 Frequencies --    607.5174
 Red. masses --      1.0207
 Frc consts  --      0.2220
 IR Inten    --     49.2896

 - Thermochemistry -
 -------------------
 Temperature   298.150 Kelvin.  Pressure   1.00000 Atm.
 Atom     1 has atomic number  1 and mass   1.00783

 Molecular mass:    21.01405 amu.
 Principal axes and moments of inertia in atomic units:
                           1         2         3
     Eigenvalues --     0.00000  87.39238  87.39238
           X            1.00000  -0.00000   0.00000
           Y            0.00000   1.00000   0.00000
           Z            0.00000   0.00000   1.00000
 This molecule is a prolate symmetric top.
 Rotational symmetry number  1.
 Rotational temperature (Kelvin)      0.99109
 Rotational constant (GHZ):          20.651013
    2 imaginary frequencies ignored.
 Zero-point vibrational energy       7049.5 (Joules/Mol)
                                    1.68488 (Kcal/Mol)
 Warning -- explicit consideration of   2 degrees of freedom as
           vibrations may cause significant error
 Vibrational temperatures:    821.65   874.08
          (Kelvin)

 Zero-point correction=                           0.002685 (Hartree/Particle)
 Thermal correction to Energy=                    0.005378
 Thermal correction to Enthalpy=                  0.006322
 Thermal correction to Gibbs Free Energy=        -0.017773
 Sum of electronic and zero-point Energies=           -100.755002
 Sum of electronic and thermal Energies=              -100.752309
 Sum of electronic and thermal Enthalpies=            -100.751365
 Sum of electronic and thermal Free Energies=         -100.775460

                     E (Thermal)             CV                S
                      KCal/Mol        Cal/Mol-Kelvin    Cal/Mol-Kelvin
 Total                    3.375              7.078             50.712
 Electronic               0.000              0.000              1.377
 Translational            0.889              2.981             35.068
 Rotational               0.592              1.987             13.327
 Vibrational              1.894              2.110              0.939
 Vibration     1          0.927              1.094              0.502
 Vibration     2          0.966              1.016              0.437

 Normal termination of Gaussian 16 at Fri Aug 22 17:04:24 2025.
