 Gaussian 16, Revision C.01,
 Gaussian 16:  ES64L-G16RevC.01  3-Jul-2019

 -----------------------------------------
 # sp b3lyp/6-311g** Force nosymm scf=(qc)
 -----------------------------------------

 -------------------
 Title Card Required
 -------------------
 Symbolic Z-matrix:
 Charge =  0 Multiplicity = 2

                          Input orientation:
 ---------------------------------------------------------------------
 Center     Atomic      Atomic             Coordinates (Angstroms)
 Number     Number       Type             X           Y           Z
 ---------------------------------------------------------------------
      1          1           0        0.000000    0.000000    0.000000
      2          1           0       -2.250000    0.000000    0.000000
      3          9           0        1.000000    0.000000    0.000000
 ---------------------------------------------------------------------

 SCF Done:  E(UB3LYP) =  -100.966800505     a.u. after    6 cycles

 Alpha  occ. eigenvalues --  -24.63951  -1.15879  -0.51616  -0.38607  -0.38607
 Alpha  occ. eigenvalues --   -0.35528
 Alpha virt. eigenvalues --    0.02594   0.24816   0.34266   0.94220   0.94220
 Alpha virt. eigenvalues --    0.98431   1.17075   1.21995   1.21995   1.36146
 Alpha virt. eigenvalues --    1.36146   1.43373   1.89659   2.13703   2.34678

  Beta  occ. eigenvalues --  -24.63909  -1.15772  -0.51407  -0.38570  -0.38570
  Beta virt. eigenvalues --   -0.11225   0.04677   0.34036   0.36263   0.94225
  Beta virt. eigenvalues --    0.94225   0.98676   1.26466   1.36001   1.36001
  Beta virt. eigenvalues --    1.42659   1.42659   1.53803   1.89897   2.33381

 Mulliken charges and spin densities:
               1          2
     1  H    0.311159   0.003962
     2  H    0.011191   0.983778
     3  F   -0.322350   0.012260
 Sum of Mulliken charges =   0.00000   1.00000

 Dipole moment (field-independent basis, Debye):
    X=             -2.1611    Y=              0.0000    Z=              0.0000  Tot=              2.1611
 Quadrupole moment (field-independent basis, Debye-Ang):
   XX=             -7.8818   YY=             -6.9437   ZZ=             -6.9437
   XY=              0.0000   XZ=              0.0000   YZ=             -0.0000

  Exact polarizability:       9.730       0.000       2.440      -0.000      -0.000       2.440
 Approx polarizability:      10.869       0.000       2.419      -0.000      -0.000       2.419

 ******    1 imaginary frequencies (negative Signs) ******

                      1                      2                      3
                      A                      A                      A
 Frequencies --    -62.3061               954.3818               954.3818
 Red. masses --      1.0525                 1.0300                 1.0300
 Frc consts  --      0.0024                 0.5527                 0.5527
 IR Inten    --      1.9918               146.0730               146.0730

                      4
                      A
 Frequencies --   3000.0238
 Red. masses --      1.0590
 Frc consts  --      5.6158
 IR Inten    --    150.8692

 - Thermochemistry -
 -------------------
 Temperature   298.150 Kelvin.  Pressure   1.00000 Atm.
 Atom     1 has atomic number  1 and mass   1.00783

 Molecular mass:    21.01405 amu.
 Principal axes and moments of inertia in atomic units:
                           1         2         3
     Eigenvalues --     0.00000  38.49582  38.49582
           X            1.00000  -0.00000   0.00000
           Y            0.00000   1.00000   0.00000
           Z            0.00000   0.00000   1.00000
 This molecule is a prolate symmetric top.
 Rotational symmetry number  1.
 Rotational temperature (Kelvin)      2.24996
 Rotational constant (GHZ):          46.881480
    1 imaginary frequencies ignored.
 Zero-point vibrational energy      29361.1 (Joules/Mol)
                                    7.01746 (Kcal/Mol)
 Vibrational temperatures:   1373.14  1373.14  4316.37
          (Kelvin)

 Zero-point correction=                           0.011183 (Hartree/Particle)
 Thermal correction to Energy=                    0.013631
 Thermal correction to Enthalpy=                  0.014576
 Thermal correction to Gibbs Free Energy=        -0.008406
 Sum of electronic and zero-point Energies=           -100.955617
 Sum of electronic and thermal Energies=              -100.953169
 Sum of electronic and thermal Enthalpies=            -100.952225
 Sum of electronic and thermal Free Energies=         -100.975206

                     E (Thermal)             CV                S
                      KCal/Mol        Cal/Mol-Kelvin    Cal/Mol-Kelvin
 Total                    8.554              5.828             48.368
 Electronic               0.000              0.000              1.377
 Translational            0.889              2.981             35.068
 Rotational               0.592              1.987             11.698
 Vibrational              7.073              0.860              0.225

 Normal termination of Gaussian 16 at Fri Aug 22 16:00:43 2025.
