 Gaussian 16, Revision C.01,
 Gaussian 16:  ES64L-G16RevC.01  3-Jul-2019

 -----------------------------------------
 # sp b3lyp/6-311g** Force nosymm scf=(qc)
 -----------------------------------------

 -------------------
 Title Card Required
 -------------------
 Symbolic Z-matrix:
 Charge =  0 Multiplicity = 2

                          Input orientation:
 ---------------------------------------------------------------------
 Center     Atomic      Atomic             Coordinates (Angstroms)
 Number     Number       Type             X           Y           Z
 ---------------------------------------------------------------------
      1          1           0        0.000000    0.000000    0.000000
      2          1           0       -1.700000    0.000000    0.000000
      3          9           0        2.450000    0.000000    0.000000
 ---------------------------------------------------------------------

 SCF Done:  E(UB3LYP) =  -100.801735948     a.u. after   17 cycles

 Alpha  occ. eigenvalues --  -24.72171  -1.18356  -0.51317  -0.43069  -0.43069
 Alpha  occ. eigenvalues --   -0.35633
 Alpha virt. eigenvalues --   -0.12237   0.24150   0.31130   0.88730   0.93335
 Alpha virt. eigenvalues --    0.93335   1.03218   1.15534   1.21192   1.21192
 Alpha virt. eigenvalues --    1.35724   1.35724   1.65301   2.14414   2.40402

  Beta  occ. eigenvalues --  -24.69309  -1.10204  -0.40216  -0.40216  -0.35340
  Beta virt. eigenvalues --   -0.24046  -0.11505   0.26026   0.30634   0.94637
  Beta virt. eigenvalues --    0.94700   0.94700   1.06288   1.19234   1.21794
  Beta virt. eigenvalues --    1.21794   1.36445   1.36445   1.65955   2.15368

 Mulliken charges and spin densities:
               1          2
     1  H    0.040524  -0.571953
     2  H    0.040423   0.667768
     3  F   -0.080947   0.904185
 Sum of Mulliken charges =  -0.00000   1.00000

 Dipole moment (field-independent basis, Debye):
    X=             -1.3360    Y=             -0.0000    Z=             -0.0000  Tot=              1.3360
 Quadrupole moment (field-independent basis, Debye-Ang):
   XX=             -7.5799   YY=             -7.6755   ZZ=             -7.6755
   XY=             -0.0000   XZ=             -0.0000   YZ=             -0.0000

  Exact polarizability:      62.164      -0.000       2.026      -0.000      -0.000       2.026
 Approx polarizability:      79.043       0.000       1.973       0.000       0.000       1.973

 ******    2 imaginary frequencies (negative Signs) ******

                      1                      2                      3
                      A                      A                      A
 Frequencies --  -1921.0632              -380.8620               871.8701
 Red. masses --      1.0085                 1.1076                 1.0141
 Frc consts  --      2.1930                 0.0947                 0.4542
 IR Inten    --    264.2095                47.8650                 0.4089

                      4
                      A
 Frequencies --    871.8701
 Red. masses --      1.0141
 Frc consts  --      0.4542
 IR Inten    --      0.4089

 - Thermochemistry -
 -------------------
 Temperature   298.150 Kelvin.  Pressure   1.00000 Atm.
 Atom     1 has atomic number  1 and mass   1.00783

 Molecular mass:    21.01405 amu.
 Principal axes and moments of inertia in atomic units:
                           1         2         3
     Eigenvalues --     0.00000  76.06822  76.06822
           X            1.00000  -0.00000   0.00000
           Y            0.00000   1.00000   0.00000
           Z            0.00000   0.00000   1.00000
 This molecule is a prolate symmetric top.
 Rotational symmetry number  1.
 Rotational temperature (Kelvin)      1.13863
 Rotational constant (GHZ):          23.725299
    2 imaginary frequencies ignored.
 Zero-point vibrational energy      10429.9 (Joules/Mol)
                                    2.49280 (Kcal/Mol)
 Vibrational temperatures:   1254.43  1254.43
          (Kelvin)

 Zero-point correction=                           0.003973 (Hartree/Particle)
 Thermal correction to Energy=                    0.006453
 Thermal correction to Enthalpy=                  0.007397
 Thermal correction to Gibbs Free Energy=        -0.016269
 Sum of electronic and zero-point Energies=           -100.797763
 Sum of electronic and thermal Energies=              -100.795283
 Sum of electronic and thermal Enthalpies=            -100.794339
 Sum of electronic and thermal Free Energies=         -100.818005

                     E (Thermal)             CV                S
                      KCal/Mol        Cal/Mol-Kelvin    Cal/Mol-Kelvin
 Total                    4.049              6.047             49.809
 Electronic               0.000              0.000              1.377
 Translational            0.889              2.981             35.068
 Rotational               0.592              1.987             13.051
 Vibrational              2.568              1.079              0.312

 Normal termination of Gaussian 16 at Fri Aug 22 17:38:01 2025.
