 Gaussian 16, Revision C.01,
 Gaussian 16:  ES64L-G16RevC.01  3-Jul-2019

 -----------------------------------------
 # sp b3lyp/6-311g** Force nosymm scf=(qc)
 -----------------------------------------

 -------------------
 Title Card Required
 -------------------
 Symbolic Z-matrix:
 Charge =  0 Multiplicity = 2

                          Input orientation:
 ---------------------------------------------------------------------
 Center     Atomic      Atomic             Coordinates (Angstroms)
 Number     Number       Type             X           Y           Z
 ---------------------------------------------------------------------
      1          1           0        0.000000    0.000000    0.000000
      2          1           0       -1.950000    0.000000    0.000000
      3          9           0        3.700000    0.000000    0.000000
 ---------------------------------------------------------------------

 SCF Done:  E(UB3LYP) =  -100.776712367     a.u. after   89 cycles

 Alpha  occ. eigenvalues --  -24.75876  -1.21804  -0.54998  -0.46188  -0.46186
 Alpha  occ. eigenvalues --   -0.32996
 Alpha virt. eigenvalues --   -0.10891   0.25952   0.32165   0.86871   0.91155
 Alpha virt. eigenvalues --    0.91263   1.01266   1.15320   1.24979   1.24979
 Alpha virt. eigenvalues --    1.37833   1.37833   1.53451   2.13391   2.37022

  Beta  occ. eigenvalues --  -24.72737  -1.12778  -0.43043  -0.43039  -0.33030
  Beta virt. eigenvalues --   -0.25781  -0.10773   0.25838   0.32431   0.92652
  Beta virt. eigenvalues --    0.92726   0.96211   1.05366   1.15319   1.24936
  Beta virt. eigenvalues --    1.24937   1.37990   1.37990   1.53567   2.13716

 Mulliken charges and spin densities:
               1          2
     1  H    0.000287  -0.826455
     2  H    0.003456   0.831135
     3  F   -0.003744   0.995321
 Sum of Mulliken charges =   0.00000   1.00000

 Dipole moment (field-independent basis, Debye):
    X=             -0.1038    Y=              0.0005    Z=             -0.0003  Tot=              0.1038
 Quadrupole moment (field-independent basis, Debye-Ang):
   XX=             -6.4392   YY=             -7.6370   ZZ=             -7.7077
   XY=              0.2697   XZ=             -0.1442   YZ=             -0.0529

  Exact polarizability:      31.390       0.066       2.062      -0.095      -0.029       2.025
 Approx polarizability:      33.949       0.166       2.009      -0.089      -0.036       1.962

 ******    2 imaginary frequencies (negative Signs) ******

                      1                      2                      3
                      A                      A                      A
 Frequencies --  -1443.9632               -96.2252               601.6574
 Red. masses --      1.0078                 1.1085                 1.0120
 Frc consts  --      1.2381                 0.0060                 0.2158
 IR Inten    --      1.1572                 1.3969                 0.0113

                      4
                      A
 Frequencies --    601.7368
 Red. masses --      1.0120
 Frc consts  --      0.2159
 IR Inten    --      0.0070

 - Thermochemistry -
 -------------------
 Temperature   298.150 Kelvin.  Pressure   1.00000 Atm.
 Atom     1 has atomic number  1 and mass   1.00783

 Molecular mass:    21.01405 amu.
 Principal axes and moments of inertia in atomic units:
                           1         2         3
     Eigenvalues --     0.00000 149.07005 149.07005
           X            1.00000  -0.00000   0.00000
           Y            0.00000   1.00000   0.00000
           Z            0.00000   0.00000   1.00000
 This molecule is a prolate symmetric top.
 Rotational symmetry number  1.
 Rotational temperature (Kelvin)      0.58103
 Rotational constant (GHZ):          12.106665
    2 imaginary frequencies ignored.
 Zero-point vibrational energy       7197.9 (Joules/Mol)
                                    1.72034 (Kcal/Mol)
 Warning -- explicit consideration of   2 degrees of freedom as
           vibrations may cause significant error
 Vibrational temperatures:    865.65   865.77
          (Kelvin)

 Zero-point correction=                           0.002742 (Hartree/Particle)
 Thermal correction to Energy=                    0.005420
 Thermal correction to Enthalpy=                  0.006364
 Thermal correction to Gibbs Free Energy=        -0.018213
 Sum of electronic and zero-point Energies=           -100.773971
 Sum of electronic and thermal Energies=              -100.771292
 Sum of electronic and thermal Enthalpies=            -100.770348
 Sum of electronic and thermal Free Energies=         -100.794925

                     E (Thermal)             CV                S
                      KCal/Mol        Cal/Mol-Kelvin    Cal/Mol-Kelvin
 Total                    3.401              7.024             51.727
 Electronic               0.000              0.000              1.377
 Translational            0.889              2.981             35.068
 Rotational               0.592              1.987             14.388
 Vibrational              1.920              2.056              0.893
 Vibration     1          0.960              1.028              0.447
 Vibration     2          0.960              1.028              0.447

 Normal termination of Gaussian 16 at Sat Aug 23 00:02:11 2025.
