 Gaussian 16, Revision C.01,
 Gaussian 16:  ES64L-G16RevC.01  3-Jul-2019

 -----------------------------------------
 # sp b3lyp/6-311g** Force nosymm scf=(qc)
 -----------------------------------------

 -------------------
 Title Card Required
 -------------------
 Symbolic Z-matrix:
 Charge =  0 Multiplicity = 2

                          Input orientation:
 ---------------------------------------------------------------------
 Center     Atomic      Atomic             Coordinates (Angstroms)
 Number     Number       Type             X           Y           Z
 ---------------------------------------------------------------------
      1          1           0        0.000000    0.000000    0.000000
      2          1           0       -2.350000    0.000000    0.000000
      3          9           0        1.900000    0.000000    0.000000
 ---------------------------------------------------------------------

 SCF Done:  E(UB3LYP) =  -100.799788701     a.u. after   12 cycles

 Alpha  occ. eigenvalues --  -24.67225  -1.13517  -0.46188  -0.38882  -0.38882
 Alpha  occ. eigenvalues --   -0.35553
 Alpha virt. eigenvalues --   -0.14123   0.23914   0.30068   0.91068   0.95047
 Alpha virt. eigenvalues --    0.95047   1.06140   1.22152   1.22152   1.26294
 Alpha virt. eigenvalues --    1.34188   1.34188   1.64979   2.12575   2.27627

  Beta  occ. eigenvalues --  -24.65043  -1.07458  -0.38261  -0.36741  -0.36741
  Beta virt. eigenvalues --   -0.20259  -0.10425   0.24975   0.33898   0.92835
  Beta virt. eigenvalues --    0.95424   0.95424   1.08713   1.23261   1.23261
  Beta virt. eigenvalues --    1.39796   1.39796   1.42403   1.59730   2.12959

 Mulliken charges and spin densities:
               1          2
     1  H    0.195932  -0.641884
     2  H    0.026113   0.956072
     3  F   -0.222045   0.685812
 Sum of Mulliken charges =   0.00000   1.00000

 Dipole moment (field-independent basis, Debye):
    X=             -2.3681    Y=             -0.0000    Z=             -0.0000  Tot=              2.3681
 Quadrupole moment (field-independent basis, Debye-Ang):
   XX=             -9.2907   YY=             -7.5024   ZZ=             -7.5024
   XY=             -0.0000   XZ=             -0.0000   YZ=              0.0000

  Exact polarizability:      38.947      -0.000       2.078      -0.000       0.000       2.078
 Approx polarizability:      47.612      -0.000       1.973      -0.000      -0.000       1.973

 ******    2 imaginary frequencies (negative Signs) ******

                      1                      2                      3
                      A                      A                      A
 Frequencies --  -1418.2192              -456.1422               595.5246
 Red. masses --      1.0413                 1.0707                 1.0207
 Frc consts  --      1.2339                 0.1313                 0.2133
 IR Inten    --     92.0703                19.2054                30.0596

                      4
                      A
 Frequencies --    595.5246
 Red. masses --      1.0207
 Frc consts  --      0.2133
 IR Inten    --     30.0596

 - Thermochemistry -
 -------------------
 Temperature   298.150 Kelvin.  Pressure   1.00000 Atm.
 Atom     1 has atomic number  1 and mass   1.00783

 Molecular mass:    21.01405 amu.
 Principal axes and moments of inertia in atomic units:
                           1         2         3
     Eigenvalues --     0.00000  71.47109  71.47109
           X            1.00000  -0.00000   0.00000
           Y            0.00000   1.00000   0.00000
           Z            0.00000   0.00000   1.00000
 This molecule is a prolate symmetric top.
 Rotational symmetry number  1.
 Rotational temperature (Kelvin)      1.21187
 Rotational constant (GHZ):          25.251347
    2 imaginary frequencies ignored.
 Zero-point vibrational energy       7124.1 (Joules/Mol)
                                    1.70269 (Kcal/Mol)
 Warning -- explicit consideration of   2 degrees of freedom as
           vibrations may cause significant error
 Vibrational temperatures:    856.83   856.83
          (Kelvin)

 Zero-point correction=                           0.002713 (Hartree/Particle)
 Thermal correction to Energy=                    0.005399
 Thermal correction to Enthalpy=                  0.006343
 Thermal correction to Gibbs Free Energy=        -0.017550
 Sum of electronic and zero-point Energies=           -100.797075
 Sum of electronic and thermal Energies=              -100.794390
 Sum of electronic and thermal Enthalpies=            -100.793446
 Sum of electronic and thermal Free Energies=         -100.817339

                     E (Thermal)             CV                S
                      KCal/Mol        Cal/Mol-Kelvin    Cal/Mol-Kelvin
 Total                    3.388              7.051             50.288
 Electronic               0.000              0.000              1.377
 Translational            0.889              2.981             35.068
 Rotational               0.592              1.987             12.928
 Vibrational              1.907              2.083              0.915
 Vibration     1          0.953              1.041              0.457
 Vibration     2          0.953              1.041              0.457

 Normal termination of Gaussian 16 at Fri Aug 22 16:50:20 2025.
