 Gaussian 16, Revision C.01,
 Gaussian 16:  ES64L-G16RevC.01  3-Jul-2019

 -----------------------------------------
 # sp b3lyp/6-311g** Force nosymm scf=(qc)
 -----------------------------------------

 -------------------
 Title Card Required
 -------------------
 Symbolic Z-matrix:
 Charge =  0 Multiplicity = 2

                          Input orientation:
 ---------------------------------------------------------------------
 Center     Atomic      Atomic             Coordinates (Angstroms)
 Number     Number       Type             X           Y           Z
 ---------------------------------------------------------------------
      1          1           0        0.000000    0.000000    0.000000
      2          1           0       -2.000000    0.000000    0.000000
      3          9           0        0.550000    0.000000    0.000000
 ---------------------------------------------------------------------

 SCF Done:  E(UB3LYP) =  -100.518438113     a.u. after    7 cycles

 Alpha  occ. eigenvalues --  -24.62663  -1.38424  -0.62340  -0.43599  -0.43599
 Alpha  occ. eigenvalues --   -0.34981
 Alpha virt. eigenvalues --    0.11381   0.24290   0.56489   0.91233   0.91233
 Alpha virt. eigenvalues --    0.91721   1.22209   1.22469   1.22469   1.54220
 Alpha virt. eigenvalues --    1.54220   1.57834   1.99846   2.20014   3.65894

  Beta  occ. eigenvalues --  -24.62638  -1.38345  -0.62253  -0.43586  -0.43586
  Beta virt. eigenvalues --   -0.09631   0.12730   0.35409   0.57945   0.91220
  Beta virt. eigenvalues --    0.91220   0.91829   1.31863   1.42863   1.42863
  Beta virt. eigenvalues --    1.54321   1.54321   1.65846   2.03856   2.45487

 Mulliken charges and spin densities:
               1          2
     1  H    0.179339   0.010406
     2  H    0.009079   0.987532
     3  F   -0.188418   0.002062
 Sum of Mulliken charges =   0.00000   1.00000

 Dipole moment (field-independent basis, Debye):
    X=             -1.4286    Y=             -0.0000    Z=              0.0000  Tot=              1.4286
 Quadrupole moment (field-independent basis, Debye-Ang):
   XX=             -6.5997   YY=             -6.4665   ZZ=             -6.4665
   XY=             -0.0000   XZ=              0.0000   YZ=              0.0000

  Exact polarizability:       5.430       0.000       2.468      -0.000      -0.000       2.468
 Approx polarizability:       5.240       0.000       2.460      -0.000      -0.000       2.460

 ******    2 imaginary frequencies (negative Signs) ******

                      1                      2                      3
                      A                      A                      A
 Frequencies --  -7411.2489             -7411.2489               392.8882
 Red. masses --      1.0375                 1.0375                 1.0533
 Frc consts  --     33.5765                33.5765                 0.0958
 IR Inten    --    219.9250               219.9250                 0.0018

                      4
                      A
 Frequencies --  15777.4198
 Red. masses --      1.0583
 Frc consts  --    155.2114
 IR Inten    --    102.8371

 - Thermochemistry -
 -------------------
 Temperature   298.150 Kelvin.  Pressure   1.00000 Atm.
 Atom     1 has atomic number  1 and mass   1.00783

 Molecular mass:    21.01405 amu.
 Principal axes and moments of inertia in atomic units:
                           1         2         3
     Eigenvalues --     0.00000  22.83250  22.83250
           X            1.00000  -0.00000   0.00000
           Y            0.00000   1.00000   0.00000
           Z            0.00000   0.00000   1.00000
 This molecule is a prolate symmetric top.
 Rotational symmetry number  1.
 Rotational temperature (Kelvin)      3.79345
 Rotational constant (GHZ):          79.042643
    2 imaginary frequencies ignored.
 Zero-point vibrational energy      96719.9 (Joules/Mol)
                                   23.11662 (Kcal/Mol)
 Warning -- explicit consideration of   1 degrees of freedom as
           vibrations may cause significant error
 Vibrational temperatures:    565.28 22700.19
          (Kelvin)

 Zero-point correction=                           0.036839 (Hartree/Particle)
 Thermal correction to Energy=                    0.039515
 Thermal correction to Enthalpy=                  0.040460
 Thermal correction to Gibbs Free Energy=         0.017608
 Sum of electronic and zero-point Energies=           -100.481599
 Sum of electronic and thermal Energies=              -100.478923
 Sum of electronic and thermal Enthalpies=            -100.477978
 Sum of electronic and thermal Free Energies=         -100.500830

                     E (Thermal)             CV                S
                      KCal/Mol        Cal/Mol-Kelvin    Cal/Mol-Kelvin
 Total                   24.796              6.453             48.095
 Electronic               0.000              0.000              1.377
 Translational            0.889              2.981             35.068
 Rotational               0.592              1.987             10.660
 Vibrational             23.315              1.485              0.989
 Vibration     1          0.760              1.485              0.989

 Normal termination of Gaussian 16 at Fri Aug 22 15:39:20 2025.
