 Gaussian 16, Revision C.01,
 Gaussian 16:  ES64L-G16RevC.01  3-Jul-2019

 -----------------------------------------
 # sp b3lyp/6-311g** Force nosymm scf=(qc)
 -----------------------------------------

 -------------------
 Title Card Required
 -------------------
 Symbolic Z-matrix:
 Charge =  0 Multiplicity = 2

                          Input orientation:
 ---------------------------------------------------------------------
 Center     Atomic      Atomic             Coordinates (Angstroms)
 Number     Number       Type             X           Y           Z
 ---------------------------------------------------------------------
      1          1           0        0.000000    0.000000    0.000000
      2          1           0       -1.250000    0.000000    0.000000
      3          9           0        3.750000    0.000000    0.000000
 ---------------------------------------------------------------------

 SCF Done:  E(UB3LYP) =  -100.862641804     a.u. after   25 cycles

 Alpha  occ. eigenvalues --  -24.76275  -1.22166  -0.55368  -0.46550  -0.46524
 Alpha  occ. eigenvalues --   -0.35791
 Alpha virt. eigenvalues --   -0.05141   0.23198   0.33413   0.86010   0.90887
 Alpha virt. eigenvalues --    0.91618   1.01015   1.14113   1.14115   1.18784
 Alpha virt. eigenvalues --    1.51867   1.51870   2.02847   2.30207   2.53710

  Beta  occ. eigenvalues --  -24.73119  -1.13091  -0.43386  -0.43360  -0.35790
  Beta virt. eigenvalues --   -0.26015  -0.05139   0.23203   0.33431   0.92388
  Beta virt. eigenvalues --    0.93111   0.95476   1.05152   1.14113   1.14115
  Beta virt. eigenvalues --    1.18789   1.51867   1.51870   2.02850   2.30208

 Mulliken charges and spin densities:
               1          2
     1  H    0.000757  -0.000068
     2  H   -0.002340  -0.000110
     3  F    0.001583   1.000179
 Sum of Mulliken charges =   0.00000   1.00000

 Dipole moment (field-independent basis, Debye):
    X=              0.0308    Y=             -0.0000    Z=             -0.0000  Tot=              0.0308
 Quadrupole moment (field-independent basis, Debye-Ang):
   XX=             -6.3068   YY=             -6.6800   ZZ=             -7.5444
   XY=             -0.0000   XZ=             -0.0000   YZ=              0.0086

  Exact polarizability:      16.923      -0.000       2.543      -0.000       0.005       2.076
 Approx polarizability:      26.552      -0.000       2.679      -0.000       0.006       2.097

 ******    2 imaginary frequencies (negative Signs) ******

                      1                      2                      3
                      A                      A                      A
 Frequencies --   -790.2411               -62.9347              1434.8265
 Red. masses --      1.0078                 1.1085                 1.0098
 Frc consts  --      0.3708                 0.0026                 1.2249
 IR Inten    --      0.0987                 0.0774                 0.0019

                      4
                      A
 Frequencies --   1435.9238
 Red. masses --      1.0098
 Frc consts  --      1.2268
 IR Inten    --      0.0012

 - Thermochemistry -
 -------------------
 Temperature   298.150 Kelvin.  Pressure   1.00000 Atm.
 Atom     1 has atomic number  1 and mass   1.00783

 Molecular mass:    21.01405 amu.
 Principal axes and moments of inertia in atomic units:
                           1         2         3
     Eigenvalues --     0.00000 127.37105 127.37105
           X            1.00000  -0.00000   0.00000
           Y            0.00000   1.00000   0.00000
           Z            0.00000   0.00000   1.00000
 This molecule is a prolate symmetric top.
 Rotational symmetry number  1.
 Rotational temperature (Kelvin)      0.68001
 Rotational constant (GHZ):          14.169163
    2 imaginary frequencies ignored.
 Zero-point vibrational energy      17170.9 (Joules/Mol)
                                    4.10394 (Kcal/Mol)
 Vibrational temperatures:   2064.40  2065.97
          (Kelvin)

 Zero-point correction=                           0.006540 (Hartree/Particle)
 Thermal correction to Energy=                    0.008913
 Thermal correction to Enthalpy=                  0.009858
 Thermal correction to Gibbs Free Energy=        -0.014161
 Sum of electronic and zero-point Energies=           -100.856102
 Sum of electronic and thermal Energies=              -100.853728
 Sum of electronic and thermal Enthalpies=            -100.852784
 Sum of electronic and thermal Free Energies=         -100.876803

                     E (Thermal)             CV                S
                      KCal/Mol        Cal/Mol-Kelvin    Cal/Mol-Kelvin
 Total                    5.593              5.155             50.552
 Electronic               0.000              0.000              1.377
 Translational            0.889              2.981             35.068
 Rotational               0.592              1.987             14.076
 Vibrational              4.112              0.187              0.031

 Normal termination of Gaussian 16 at Sat Aug 23 00:16:04 2025.
