 Gaussian 16, Revision C.01,
 Gaussian 16:  ES64L-G16RevC.01  3-Jul-2019

 -----------------------------------------
 # sp b3lyp/6-311g** Force nosymm scf=(qc)
 -----------------------------------------

 -------------------
 Title Card Required
 -------------------
 Symbolic Z-matrix:
 Charge =  0 Multiplicity = 2

                          Input orientation:
 ---------------------------------------------------------------------
 Center     Atomic      Atomic             Coordinates (Angstroms)
 Number     Number       Type             X           Y           Z
 ---------------------------------------------------------------------
      1          1           0        0.000000    0.000000    0.000000
      2          1           0       -3.650000    0.000000    0.000000
      3          9           0        3.650000    0.000000    0.000000
 ---------------------------------------------------------------------

 SCF Done:  E(UB3LYP) =  -100.758790875     a.u. after   29 cycles

 Alpha  occ. eigenvalues --  -24.75598  -1.21546  -0.54722  -0.45945  -0.45945
 Alpha  occ. eigenvalues --   -0.32289
 Alpha virt. eigenvalues --   -0.06601   0.24226   0.37387   0.87177   0.91349
 Alpha virt. eigenvalues --    0.91349   1.01489   1.25211   1.25211   1.25298
 Alpha virt. eigenvalues --    1.45725   1.45774   1.45774   2.14862   2.41655

  Beta  occ. eigenvalues --  -24.72471  -1.12556  -0.42810  -0.42810  -0.32661
  Beta virt. eigenvalues --   -0.25591  -0.06230   0.24003   0.38092   0.92842
  Beta virt. eigenvalues --    0.92842   0.96406   1.05547   1.24792   1.24792
  Beta virt. eigenvalues --    1.24860   1.46188   1.46388   1.46388   2.14963

 Mulliken charges and spin densities:
               1          2
     1  H    0.007467  -0.990202
     2  H    0.000090   0.998530
     3  F   -0.007557   0.991672
 Sum of Mulliken charges =  -0.00000   1.00000

 Dipole moment (field-independent basis, Debye):
    X=             -0.1436    Y=             -0.0000    Z=              0.0000  Tot=              0.1436
 Quadrupole moment (field-independent basis, Debye-Ang):
   XX=             -7.2107   YY=             -7.6209   ZZ=             -7.6209
   XY=             -0.0000   XZ=             -0.0000   YZ=              0.0000

  Exact polarizability:      19.203       0.000       1.990       0.000       0.000       1.990
 Approx polarizability:      14.495      -0.000       1.935      -0.000      -0.000       1.935

 ******    2 imaginary frequencies (negative Signs) ******

                      1                      2                      3
                      A                      A                      A
 Frequencies --   -205.0824               -86.6014                90.4730
 Red. masses --      1.0269                 1.0863                 1.0179
 Frc consts  --      0.0254                 0.0048                 0.0049
 IR Inten    --      5.8195                 0.7394                 0.0952

                      4
                      A
 Frequencies --     90.4752
 Red. masses --      1.0179
 Frc consts  --      0.0049
 IR Inten    --      0.0952

 - Thermochemistry -
 -------------------
 Temperature   298.150 Kelvin.  Pressure   1.00000 Atm.
 Atom     1 has atomic number  1 and mass   1.00783

 Molecular mass:    21.01405 amu.
 Principal axes and moments of inertia in atomic units:
                           1         2         3
     Eigenvalues --     0.00000 219.04296 219.04296
           X            1.00000  -0.00000   0.00000
           Y            0.00000   1.00000   0.00000
           Z            0.00000   0.00000   1.00000
 This molecule is a prolate symmetric top.
 Rotational symmetry number  1.
 Rotational temperature (Kelvin)      0.39542
 Rotational constant (GHZ):           8.239211
    2 imaginary frequencies ignored.
 Zero-point vibrational energy       1082.3 (Joules/Mol)
                                    0.25868 (Kcal/Mol)
 Warning -- explicit consideration of   2 degrees of freedom as
           vibrations may cause significant error
 Vibrational temperatures:    130.17   130.17
          (Kelvin)

 Zero-point correction=                           0.000412 (Hartree/Particle)
 Thermal correction to Energy=                    0.004279
 Thermal correction to Enthalpy=                  0.005223
 Thermal correction to Gibbs Free Energy=        -0.022762
 Sum of electronic and zero-point Energies=           -100.758379
 Sum of electronic and thermal Energies=              -100.754512
 Sum of electronic and thermal Enthalpies=            -100.753568
 Sum of electronic and thermal Free Energies=         -100.781552

                     E (Thermal)             CV                S
                      KCal/Mol        Cal/Mol-Kelvin    Cal/Mol-Kelvin
 Total                    2.685              8.880             58.898
 Electronic               0.000              0.000              1.377
 Translational            0.889              2.981             35.068
 Rotational               0.592              1.987             15.153
 Vibrational              1.204              3.912              7.300
 Vibration     1          0.602              1.956              3.650
 Vibration     2          0.602              1.956              3.650

 Normal termination of Gaussian 16 at Fri Aug 22 23:38:20 2025.
