 Gaussian 16, Revision C.01,
 Gaussian 16:  ES64L-G16RevC.01  3-Jul-2019

 -----------------------------------------
 # sp b3lyp/6-311g** Force nosymm scf=(qc)
 -----------------------------------------

 -------------------
 Title Card Required
 -------------------
 Symbolic Z-matrix:
 Charge =  0 Multiplicity = 2

                          Input orientation:
 ---------------------------------------------------------------------
 Center     Atomic      Atomic             Coordinates (Angstroms)
 Number     Number       Type             X           Y           Z
 ---------------------------------------------------------------------
      1          1           0        0.000000    0.000000    0.000000
      2          1           0       -0.800000    0.000000    0.000000
      3          9           0        1.600000    0.000000    0.000000
 ---------------------------------------------------------------------

 SCF Done:  E(UB3LYP) =  -100.936826400     a.u. after    7 cycles

 Alpha  occ. eigenvalues --  -24.71763  -1.18513  -0.54825  -0.43083  -0.43083
 Alpha  occ. eigenvalues --   -0.43059
 Alpha virt. eigenvalues --    0.07436   0.20088   0.41151   0.89343   0.89343
 Alpha virt. eigenvalues --    0.96969   1.07559   1.07559   1.22404   1.69077
 Alpha virt. eigenvalues --    1.77356   1.77356   2.04156   2.40175   2.93784

  Beta  occ. eigenvalues --  -24.69052  -1.10989  -0.46046  -0.40427  -0.40427
  Beta virt. eigenvalues --   -0.24027   0.08837   0.21024   0.42868   0.90502
  Beta virt. eigenvalues --    0.90502   1.03552   1.09526   1.09526   1.25869
  Beta virt. eigenvalues --    1.71862   1.78481   1.78481   2.05333   2.42314

 Mulliken charges and spin densities:
               1          2
     1  H    0.098354  -0.051431
     2  H    0.029559   0.221202
     3  F   -0.127913   0.830229
 Sum of Mulliken charges =   0.00000   1.00000

 Dipole moment (field-independent basis, Debye):
    X=             -1.0972    Y=              0.0000    Z=              0.0000  Tot=              1.0972
 Quadrupole moment (field-independent basis, Debye-Ang):
   XX=             -6.8005   YY=             -6.8761   ZZ=             -6.8761
   XY=              0.0000   XZ=              0.0000   YZ=              0.0000

  Exact polarizability:      22.137       0.000       2.272      -0.000      -0.000       2.272
 Approx polarizability:      28.481       0.000       2.306      -0.000      -0.000       2.306

 ******    1 imaginary frequencies (negative Signs) ******

                      1                      2                      3
                      A                      A                      A
 Frequencies --   -480.8768               643.1877               643.1877
 Red. masses --      1.1077                 1.0117                 1.0117
 Frc consts  --      0.1509                 0.2466                 0.2466
 IR Inten    --    114.5654                 0.3657                 0.3657

                      4
                      A
 Frequencies --   3366.4644
 Red. masses --      1.0085
 Frc consts  --      6.7341
 IR Inten    --    695.1307

 - Thermochemistry -
 -------------------
 Temperature   298.150 Kelvin.  Pressure   1.00000 Atm.
 Atom     1 has atomic number  1 and mass   1.00783

 Molecular mass:    21.01405 amu.
 Principal axes and moments of inertia in atomic units:
                           1         2         3
     Eigenvalues --     0.00000  27.18204  27.18204
           X            1.00000  -0.00000   0.00000
           Y            0.00000   1.00000   0.00000
           Z            0.00000   0.00000   1.00000
 This molecule is a prolate symmetric top.
 Rotational symmetry number  1.
 Rotational temperature (Kelvin)      3.18644
 Rotational constant (GHZ):          66.394619
    1 imaginary frequencies ignored.
 Zero-point vibrational energy      27830.2 (Joules/Mol)
                                    6.65157 (Kcal/Mol)
 Vibrational temperatures:    925.40   925.40  4843.59
          (Kelvin)

 Zero-point correction=                           0.010600 (Hartree/Particle)
 Thermal correction to Energy=                    0.013236
 Thermal correction to Enthalpy=                  0.014180
 Thermal correction to Gibbs Free Energy=        -0.008728
 Sum of electronic and zero-point Energies=           -100.926226
 Sum of electronic and thermal Energies=              -100.923591
 Sum of electronic and thermal Enthalpies=            -100.922646
 Sum of electronic and thermal Free Energies=         -100.945554

                     E (Thermal)             CV                S
                      KCal/Mol        Cal/Mol-Kelvin    Cal/Mol-Kelvin
 Total                    8.306              6.852             48.214
 Electronic               0.000              0.000              1.377
 Translational            0.889              2.981             35.068
 Rotational               0.592              1.987             11.007
 Vibrational              6.824              1.884              0.762

 Normal termination of Gaussian 16 at Fri Aug 22 16:30:04 2025.
