 Gaussian 16, Revision C.01,
 Gaussian 16:  ES64L-G16RevC.01  3-Jul-2019

 -----------------------------------------
 # sp b3lyp/6-311g** Force nosymm scf=(qc)
 -----------------------------------------

 -------------------
 Title Card Required
 -------------------
 Symbolic Z-matrix:
 Charge =  0 Multiplicity = 2

                          Input orientation:
 ---------------------------------------------------------------------
 Center     Atomic      Atomic             Coordinates (Angstroms)
 Number     Number       Type             X           Y           Z
 ---------------------------------------------------------------------
      1          1           0        0.000000    0.000000    0.000000
      2          1           0       -2.750000    0.000000    0.000000
      3          9           0        3.300000    0.000000    0.000000
 ---------------------------------------------------------------------

 SCF Done:  E(UB3LYP) =  -100.761505413     a.u. after   25 cycles

 Alpha  occ. eigenvalues --  -24.75020  -1.21010  -0.54141  -0.45458  -0.45458
 Alpha  occ. eigenvalues --   -0.32641
 Alpha virt. eigenvalues --   -0.09048   0.25262   0.34764   0.88324   0.91706
 Alpha virt. eigenvalues --    0.91706   1.02447   1.24935   1.24935   1.26242
 Alpha virt. eigenvalues --    1.42291   1.42291   1.42802   2.15866   2.38364

  Beta  occ. eigenvalues --  -24.71931  -1.12139  -0.42363  -0.42363  -0.33189
  Beta virt. eigenvalues --   -0.25299  -0.08265   0.25091   0.35865   0.93188
  Beta virt. eigenvalues --    0.93188   0.97349   1.06411   1.24285   1.24285
  Beta virt. eigenvalues --    1.25494   1.43545   1.43545   1.44018   2.16478

 Mulliken charges and spin densities:
               1          2
     1  H    0.016772  -0.964739
     2  H    0.001830   0.985353
     3  F   -0.018602   0.979386
 Sum of Mulliken charges =  -0.00000   1.00000

 Dipole moment (field-independent basis, Debye):
    X=             -0.3393    Y=             -0.0000    Z=             -0.0000  Tot=              0.3393
 Quadrupole moment (field-independent basis, Debye-Ang):
   XX=             -7.5419   YY=             -7.6436   ZZ=             -7.6436
   XY=             -0.0000   XZ=             -0.0000   YZ=             -0.0000

  Exact polarizability:      34.087      -0.000       2.023      -0.000      -0.000       2.023
 Approx polarizability:      27.946      -0.000       1.928      -0.000       0.000       1.928

 ******    2 imaginary frequencies (negative Signs) ******

                      1                      2                      3
                      A                      A                      A
 Frequencies --   -496.8144              -169.7569               178.9539
 Red. masses --      1.0101                 1.1058                 1.0159
 Frc consts  --      0.1469                 0.0188                 0.0192
 IR Inten    --     13.0544                 8.6744                 0.2286

                      4
                      A
 Frequencies --    178.9539
 Red. masses --      1.0159
 Frc consts  --      0.0192
 IR Inten    --      0.2286

 - Thermochemistry -
 -------------------
 Temperature   298.150 Kelvin.  Pressure   1.00000 Atm.
 Atom     1 has atomic number  1 and mass   1.00783

 Molecular mass:    21.01405 amu.
 Principal axes and moments of inertia in atomic units:
                           1         2         3
     Eigenvalues --     0.00000 155.83619 155.83619
           X            1.00000  -0.00000   0.00000
           Y            0.00000   1.00000   0.00000
           Z            0.00000   0.00000   1.00000
 This molecule is a prolate symmetric top.
 Rotational symmetry number  1.
 Rotational temperature (Kelvin)      0.55580
 Rotational constant (GHZ):          11.581015
    2 imaginary frequencies ignored.
 Zero-point vibrational energy       2140.8 (Joules/Mol)
                                    0.51165 (Kcal/Mol)
 Warning -- explicit consideration of   2 degrees of freedom as
           vibrations may cause significant error
 Vibrational temperatures:    257.47   257.47
          (Kelvin)

 Zero-point correction=                           0.000815 (Hartree/Particle)
 Thermal correction to Energy=                    0.004365
 Thermal correction to Enthalpy=                  0.005309
 Thermal correction to Gibbs Free Energy=        -0.021109
 Sum of electronic and zero-point Energies=           -100.760690
 Sum of electronic and thermal Energies=              -100.757141
 Sum of electronic and thermal Enthalpies=            -100.756196
 Sum of electronic and thermal Free Energies=         -100.782614

                     E (Thermal)             CV                S
                      KCal/Mol        Cal/Mol-Kelvin    Cal/Mol-Kelvin
 Total                    2.739              8.704             55.601
 Electronic               0.000              0.000              1.377
 Translational            0.889              2.981             35.068
 Rotational               0.592              1.987             14.477
 Vibrational              1.258              3.736              4.679
 Vibration     1          0.629              1.868              2.339
 Vibration     2          0.629              1.868              2.339

 Normal termination of Gaussian 16 at Fri Aug 22 20:49:08 2025.
