 Gaussian 16, Revision C.01,
 Gaussian 16:  ES64L-G16RevC.01  3-Jul-2019

 -----------------------------------------
 # sp b3lyp/6-311g** Force nosymm scf=(qc)
 -----------------------------------------

 -------------------
 Title Card Required
 -------------------
 Symbolic Z-matrix:
 Charge =  0 Multiplicity = 2

                          Input orientation:
 ---------------------------------------------------------------------
 Center     Atomic      Atomic             Coordinates (Angstroms)
 Number     Number       Type             X           Y           Z
 ---------------------------------------------------------------------
      1          1           0        0.000000    0.000000    0.000000
      2          1           0       -0.500000    0.000000    0.000000
      3          9           0        1.950000    0.000000    0.000000
 ---------------------------------------------------------------------

 SCF Done:  E(UB3LYP) =  -100.856821115     a.u. after   78 cycles

 Alpha  occ. eigenvalues --  -24.76935  -1.22922  -0.56025  -0.51044  -0.47180
 Alpha  occ. eigenvalues --   -0.44630
 Alpha virt. eigenvalues --    0.12742   0.20327   0.54747   0.84665   0.89381
 Alpha virt. eigenvalues --    0.96422   1.13526   1.13714   1.19698   1.67491
 Alpha virt. eigenvalues --    1.86171   2.01096   2.01206   2.48635   3.64965

  Beta  occ. eigenvalues --  -24.73776  -1.13845  -0.50104  -0.44010  -0.42390
  Beta virt. eigenvalues --   -0.26665   0.12901   0.20514   0.54861   0.90821
  Beta virt. eigenvalues --    0.93782   0.98325   1.13757   1.13820   1.22840
  Beta virt. eigenvalues --    1.67738   1.86235   2.01138   2.01204   2.48783

 Mulliken charges and spin densities:
               1          2
     1  H    0.000648  -0.001786
     2  H   -0.019981  -0.001472
     3  F    0.019333   1.003258
 Sum of Mulliken charges =   0.00000   1.00000

 Dipole moment (field-independent basis, Debye):
    X=              0.2260    Y=              0.0000    Z=             -0.0000  Tot=              0.2260
 Quadrupole moment (field-independent basis, Debye-Ang):
   XX=             -6.0851   YY=             -6.1579   ZZ=             -6.1589
   XY=             -0.0000   XZ=              0.0000   YZ=             -0.4320

  Exact polarizability:       6.077      -0.000       2.145       0.000      -0.171       2.144
 Approx polarizability:       6.297      -0.000       2.308       0.000      -0.241       2.307

 ******    2 imaginary frequencies (negative Signs) ******

                      1                      2                      3
                      A                      A                      A
 Frequencies --  -4796.6123             -4781.4234               625.7157
 Red. masses --      1.0091                 1.0091                 1.1085
 Frc consts  --     13.6792                13.5927                 0.2557
 IR Inten    --      0.1654                 0.0098                 1.7392

                      4
                      A
 Frequencies --   9963.7698
 Red. masses --      1.0078
 Frc consts  --     58.9499
 IR Inten    --     25.0897

 - Thermochemistry -
 -------------------
 Temperature   298.150 Kelvin.  Pressure   1.00000 Atm.
 Atom     1 has atomic number  1 and mass   1.00783

 Molecular mass:    21.01405 amu.
 Principal axes and moments of inertia in atomic units:
                           1         2         3
     Eigenvalues --     0.00000  31.94661  31.94661
           X            1.00000  -0.00000   0.00000
           Y            0.00000   1.00000   0.00000
           Z            0.00000   0.00000   1.00000
 This molecule is a prolate symmetric top.
 Rotational symmetry number  1.
 Rotational temperature (Kelvin)      2.71121
 Rotational constant (GHZ):          56.492419
    2 imaginary frequencies ignored.
 Zero-point vibrational energy      63339.2 (Joules/Mol)
                                   15.13843 (Kcal/Mol)
 Vibrational temperatures:    900.27 14335.64
          (Kelvin)

 Zero-point correction=                           0.024125 (Hartree/Particle)
 Thermal correction to Energy=                    0.026631
 Thermal correction to Enthalpy=                  0.027576
 Thermal correction to Gibbs Free Energy=         0.004684
 Sum of electronic and zero-point Energies=           -100.832696
 Sum of electronic and thermal Energies=              -100.830190
 Sum of electronic and thermal Enthalpies=            -100.829245
 Sum of electronic and thermal Free Energies=         -100.852138

                     E (Thermal)             CV                S
                      KCal/Mol        Cal/Mol-Kelvin    Cal/Mol-Kelvin
 Total                   16.711              5.946             48.180
 Electronic               0.000              0.000              1.377
 Translational            0.889              2.981             35.068
 Rotational               0.592              1.987             11.327
 Vibrational             15.230              0.978              0.407

 Normal termination of Gaussian 16 at Fri Aug 22 16:52:00 2025.
