 Gaussian 16, Revision C.01,
 Gaussian 16:  ES64L-G16RevC.01  3-Jul-2019

 -----------------------------------------
 # sp b3lyp/6-311g** Force nosymm scf=(qc)
 -----------------------------------------

 -------------------
 Title Card Required
 -------------------
 Symbolic Z-matrix:
 Charge =  0 Multiplicity = 2

                          Input orientation:
 ---------------------------------------------------------------------
 Center     Atomic      Atomic             Coordinates (Angstroms)
 Number     Number       Type             X           Y           Z
 ---------------------------------------------------------------------
      1          1           0        0.000000    0.000000    0.000000
      2          1           0       -3.550000    0.000000    0.000000
      3          9           0        2.500000    0.000000    0.000000
 ---------------------------------------------------------------------

 SCF Done:  E(UB3LYP) =  -100.767457164     a.u. after   28 cycles

 Alpha  occ. eigenvalues --  -24.71736  -1.17953  -0.50838  -0.42708  -0.42708
 Alpha  occ. eigenvalues --   -0.32881
 Alpha virt. eigenvalues --   -0.10263   0.23457   0.35248   0.89647   0.93616
 Alpha virt. eigenvalues --    0.93616   1.06249   1.24627   1.24627   1.24762
 Alpha virt. eigenvalues --    1.40550   1.40550   1.44818   2.14420   2.36649

  Beta  occ. eigenvalues --  -24.68894  -1.09866  -0.39876  -0.39876  -0.35359
  Beta virt. eigenvalues --   -0.23337  -0.06663   0.23863   0.37939   0.94978
  Beta virt. eigenvalues --    0.94978   0.95968   1.08578   1.22096   1.22096
  Beta virt. eigenvalues --    1.29701   1.45808   1.46076   1.46076   2.12774

 Mulliken charges and spin densities:
               1          2
     1  H    0.089724  -0.895971
     2  H    0.000787   0.998163
     3  F   -0.090511   0.897808
 Sum of Mulliken charges =   0.00000   1.00000

 Dipole moment (field-independent basis, Debye):
    X=             -1.1643    Y=             -0.0000    Z=              0.0000  Tot=              1.1643
 Quadrupole moment (field-independent basis, Debye-Ang):
   XX=             -9.3090   YY=             -7.5705   ZZ=             -7.5705
   XY=             -0.0000   XZ=              0.0000   YZ=             -0.0000

  Exact polarizability:      30.770      -0.000       2.026       0.000       0.000       2.026
 Approx polarizability:      38.837      -0.000       1.921       0.000      -0.000       1.921

 ******    2 imaginary frequencies (negative Signs) ******

                      1                      2                      3
                      A                      A                      A
 Frequencies --   -617.9438              -114.0460               241.7598
 Red. masses --      1.0546                 1.0569                 1.0227
 Frc consts  --      0.2373                 0.0081                 0.0352
 IR Inten    --     80.3856                 0.2356                 7.7075

                      4
                      A
 Frequencies --    241.7598
 Red. masses --      1.0227
 Frc consts  --      0.0352
 IR Inten    --      7.7075

 - Thermochemistry -
 -------------------
 Temperature   298.150 Kelvin.  Pressure   1.00000 Atm.
 Atom     1 has atomic number  1 and mass   1.00783

 Molecular mass:    21.01405 amu.
 Principal axes and moments of inertia in atomic units:
                           1         2         3
     Eigenvalues --     0.00000 141.60852 141.60852
           X            1.00000  -0.00000   0.00000
           Y            0.00000   1.00000   0.00000
           Z            0.00000   0.00000   1.00000
 This molecule is a prolate symmetric top.
 Rotational symmetry number  1.
 Rotational temperature (Kelvin)      0.61164
 Rotational constant (GHZ):          12.744581
    2 imaginary frequencies ignored.
 Zero-point vibrational energy       2892.1 (Joules/Mol)
                                    0.69123 (Kcal/Mol)
 Warning -- explicit consideration of   2 degrees of freedom as
           vibrations may cause significant error
 Vibrational temperatures:    347.84   347.84
          (Kelvin)

 Zero-point correction=                           0.001102 (Hartree/Particle)
 Thermal correction to Energy=                    0.004458
 Thermal correction to Enthalpy=                  0.005402
 Thermal correction to Gibbs Free Energy=        -0.020403
 Sum of electronic and zero-point Energies=           -100.766356
 Sum of electronic and thermal Energies=              -100.762999
 Sum of electronic and thermal Enthalpies=            -100.762055
 Sum of electronic and thermal Free Energies=         -100.787860

                     E (Thermal)             CV                S
                      KCal/Mol        Cal/Mol-Kelvin    Cal/Mol-Kelvin
 Total                    2.798              8.521             54.312
 Electronic               0.000              0.000              1.377
 Translational            0.889              2.981             35.068
 Rotational               0.592              1.987             14.286
 Vibrational              1.316              3.553              3.580
 Vibration     1          0.658              1.776              1.790
 Vibration     2          0.658              1.776              1.790

 Normal termination of Gaussian 16 at Fri Aug 22 17:46:18 2025.
