 Gaussian 16, Revision C.01,
 Gaussian 16:  ES64L-G16RevC.01  3-Jul-2019

 -----------------------------------------
 # sp b3lyp/6-311g** Force nosymm scf=(qc)
 -----------------------------------------

 -------------------
 Title Card Required
 -------------------
 Symbolic Z-matrix:
 Charge =  0 Multiplicity = 2

                          Input orientation:
 ---------------------------------------------------------------------
 Center     Atomic      Atomic             Coordinates (Angstroms)
 Number     Number       Type             X           Y           Z
 ---------------------------------------------------------------------
      1          1           0        0.000000    0.000000    0.000000
      2          1           0       -1.450000    0.000000    0.000000
      3          9           0        0.800000    0.000000    0.000000
 ---------------------------------------------------------------------

 SCF Done:  E(UB3LYP) =  -100.945594856     a.u. after    6 cycles

 Alpha  occ. eigenvalues --  -24.63494  -1.23135  -0.57318  -0.40557  -0.40557
 Alpha  occ. eigenvalues --   -0.36404
 Alpha virt. eigenvalues --    0.12646   0.21161   0.46376   0.93882   0.93882
 Alpha virt. eigenvalues --    0.96676   1.15677   1.15677   1.30751   1.45848
 Alpha virt. eigenvalues --    1.45848   1.55616   2.07683   2.17707   2.87024

  Beta  occ. eigenvalues --  -24.63308  -1.22640  -0.56119  -0.40404  -0.40404
  Beta virt. eigenvalues --   -0.13756   0.14122   0.28208   0.50561   0.94106
  Beta virt. eigenvalues --    0.94106   0.97069   1.27192   1.27192   1.37321
  Beta virt. eigenvalues --    1.51235   1.51235   1.61980   2.10027   2.35489

 Mulliken charges and spin densities:
               1          2
     1  H    0.256873   0.010812
     2  H    0.018492   0.951166
     3  F   -0.275364   0.038022
 Sum of Mulliken charges =   0.00000   1.00000

 Dipole moment (field-independent basis, Debye):
    X=             -1.8445    Y=              0.0000    Z=             -0.0000  Tot=              1.8445
 Quadrupole moment (field-independent basis, Debye-Ang):
   XX=             -7.2959   YY=             -6.6568   ZZ=             -6.6568
   XY=             -0.0000   XZ=             -0.0000   YZ=              0.0000

  Exact polarizability:       8.862      -0.000       2.551      -0.000       0.000       2.551
 Approx polarizability:       8.885       0.000       2.561       0.000       0.000       2.561

 ******    2 imaginary frequencies (negative Signs) ******

                      1                      2                      3
                      A                      A                      A
 Frequencies --  -1967.9179             -1967.9179               789.0053
 Red. masses --      1.0265                 1.0265                 1.0532
 Frc consts  --      2.3421                 2.3421                 0.3863
 IR Inten    --    129.4867               129.4867                 2.8555

                      4
                      A
 Frequencies --   6282.2157
 Red. masses --      1.0583
 Frc consts  --     24.6095
 IR Inten    --    173.2561

 - Thermochemistry -
 -------------------
 Temperature   298.150 Kelvin.  Pressure   1.00000 Atm.
 Atom     1 has atomic number  1 and mass   1.00783

 Molecular mass:    21.01405 amu.
 Principal axes and moments of inertia in atomic units:
                           1         2         3
     Eigenvalues --     0.00000  18.91767  18.91767
           X            1.00000  -0.00000   0.00000
           Y            0.00000   1.00000   0.00000
           Z            0.00000   0.00000   1.00000
 This molecule is a prolate symmetric top.
 Rotational symmetry number  1.
 Rotational temperature (Kelvin)      4.57847
 Rotational constant (GHZ):          95.399759
    2 imaginary frequencies ignored.
 Zero-point vibrational energy      42295.3 (Joules/Mol)
                                   10.10882 (Kcal/Mol)
 Vibrational temperatures:   1135.20  9038.71
          (Kelvin)

 Zero-point correction=                           0.016109 (Hartree/Particle)
 Thermal correction to Energy=                    0.018552
 Thermal correction to Enthalpy=                  0.019496
 Thermal correction to Gibbs Free Energy=        -0.002811
 Sum of electronic and zero-point Energies=           -100.929485
 Sum of electronic and thermal Energies=              -100.927043
 Sum of electronic and thermal Enthalpies=            -100.926099
 Sum of electronic and thermal Free Energies=         -100.948406

                     E (Thermal)             CV                S
                      KCal/Mol        Cal/Mol-Kelvin    Cal/Mol-Kelvin
 Total                   11.641              5.637             46.948
 Electronic               0.000              0.000              1.377
 Translational            0.889              2.981             35.068
 Rotational               0.592              1.987             10.286
 Vibrational             10.160              0.669              0.216

 Normal termination of Gaussian 16 at Fri Aug 22 15:50:43 2025.
