 Gaussian 16, Revision C.01,
 Gaussian 16:  ES64L-G16RevC.01  3-Jul-2019

 -----------------------------------------
 # sp b3lyp/6-311g** Force nosymm scf=(qc)
 -----------------------------------------

 -------------------
 Title Card Required
 -------------------
 Symbolic Z-matrix:
 Charge =  0 Multiplicity = 2

                          Input orientation:
 ---------------------------------------------------------------------
 Center     Atomic      Atomic             Coordinates (Angstroms)
 Number     Number       Type             X           Y           Z
 ---------------------------------------------------------------------
      1          1           0        0.000000    0.000000    0.000000
      2          1           0       -1.350000    0.000000    0.000000
      3          9           0        3.050000    0.000000    0.000000
 ---------------------------------------------------------------------

 SCF Done:  E(UB3LYP) =  -100.845545619     a.u. after  106 cycles

 Alpha  occ. eigenvalues --  -24.76667  -1.22497  -0.55687  -0.46930  -0.46838
 Alpha  occ. eigenvalues --   -0.34685
 Alpha virt. eigenvalues --   -0.06984   0.24046   0.32231   0.85762   0.90635
 Alpha virt. eigenvalues --    0.93125   1.03202   1.13126   1.16757   1.16763
 Alpha virt. eigenvalues --    1.47327   1.47333   1.94982   2.27640   2.52385

  Beta  occ. eigenvalues --  -24.73506  -1.13413  -0.43767  -0.43669  -0.34676
  Beta virt. eigenvalues --   -0.26315  -0.06972   0.24065   0.32298   0.92134
  Beta virt. eigenvalues --    0.94760   0.95221   1.07129   1.13131   1.16756
  Beta virt. eigenvalues --    1.16762   1.47326   1.47332   1.94991   2.27642

 Mulliken charges and spin densities:
               1          2
     1  H   -0.000676   0.000458
     2  H   -0.006285  -0.001380
     3  F    0.006960   1.000922
 Sum of Mulliken charges =   0.00000   1.00000

 Dipole moment (field-independent basis, Debye):
    X=              0.1026    Y=             -0.0000    Z=             -0.0000  Tot=              0.1026
 Quadrupole moment (field-independent basis, Debye-Ang):
   XX=             -6.1593   YY=             -7.2118   ZZ=             -7.2148
   XY=             -0.0000   XZ=             -0.0000   YZ=              0.4319

  Exact polarizability:      19.784      -0.000       2.300      -0.000       0.231       2.299
 Approx polarizability:      33.044      -0.000       2.371      -0.000       0.290       2.369

 ******    1 imaginary frequencies (negative Signs) ******

                      1                      2                      3
                      A                      A                      A
 Frequencies --  -1087.1625                22.0828              1350.8595
 Red. masses --      1.0078                 1.1085                 1.0110
 Frc consts  --      0.7018                 0.0003                 1.0870
 IR Inten    --      1.0004                 0.5896                 0.0042

                      4
                      A
 Frequencies --   1351.1241
 Red. masses --      1.0110
 Frc consts  --      1.0875
 IR Inten    --      0.0043

 - Thermochemistry -
 -------------------
 Temperature   298.150 Kelvin.  Pressure   1.00000 Atm.
 Atom     1 has atomic number  1 and mass   1.00783

 Molecular mass:    21.01405 amu.
 Principal axes and moments of inertia in atomic units:
                           1         2         3
     Eigenvalues --     0.00000  93.57647  93.57647
           X            1.00000  -0.00000   0.00000
           Y            0.00000   1.00000   0.00000
           Z            0.00000   0.00000   1.00000
 This molecule is a prolate symmetric top.
 Rotational symmetry number  1.
 Rotational temperature (Kelvin)      0.92560
 Rotational constant (GHZ):          19.286272
    1 imaginary frequencies ignored.
 Zero-point vibrational energy      16293.5 (Joules/Mol)
                                    3.89425 (Kcal/Mol)
 Warning -- explicit consideration of   1 degrees of freedom as
           vibrations may cause significant error
 Vibrational temperatures:     31.77  1943.59  1943.97
          (Kelvin)

 Zero-point correction=                           0.006206 (Hartree/Particle)
 Thermal correction to Energy=                    0.009479
 Thermal correction to Enthalpy=                  0.010423
 Thermal correction to Gibbs Free Energy=        -0.016369
 Sum of electronic and zero-point Energies=           -100.839340
 Sum of electronic and thermal Energies=              -100.836066
 Sum of electronic and thermal Enthalpies=            -100.835122
 Sum of electronic and thermal Free Energies=         -100.861915

                     E (Thermal)             CV                S
                      KCal/Mol        Cal/Mol-Kelvin    Cal/Mol-Kelvin
 Total                    5.948              7.203             56.390
 Electronic               0.000              0.000              1.377
 Translational            0.889              2.981             35.068
 Rotational               0.592              1.987             13.463
 Vibrational              4.467              2.235              6.482
 Vibration     1          0.593              1.985              6.438

 Normal termination of Gaussian 16 at Fri Aug 22 19:41:24 2025.
