 Gaussian 16, Revision C.01,
 Gaussian 16:  ES64L-G16RevC.01  3-Jul-2019

 -----------------------------------------
 # sp b3lyp/6-311g** Force nosymm scf=(qc)
 -----------------------------------------

 -------------------
 Title Card Required
 -------------------
 Symbolic Z-matrix:
 Charge =  0 Multiplicity = 2

                          Input orientation:
 ---------------------------------------------------------------------
 Center     Atomic      Atomic             Coordinates (Angstroms)
 Number     Number       Type             X           Y           Z
 ---------------------------------------------------------------------
      1          1           0        0.000000    0.000000    0.000000
      2          1           0       -2.700000    0.000000    0.000000
      3          9           0        0.700000    0.000000    0.000000
 ---------------------------------------------------------------------

 SCF Done:  E(UB3LYP) =  -100.874926220     a.u. after    6 cycles

 Alpha  occ. eigenvalues --  -24.63167  -1.28194  -0.58575  -0.41729  -0.41729
 Alpha  occ. eigenvalues --   -0.34192
 Alpha virt. eigenvalues --    0.07340   0.25571   0.52540   0.93516   0.93516
 Alpha virt. eigenvalues --    0.95751   1.20043   1.23348   1.23348   1.39274
 Alpha virt. eigenvalues --    1.44096   1.44096   1.98128   2.14489   2.86608

  Beta  occ. eigenvalues --  -24.63162  -1.28179  -0.58558  -0.41725  -0.41725
  Beta virt. eigenvalues --   -0.07495   0.08614   0.38480   0.52638   0.93514
  Beta virt. eigenvalues --    0.93514   0.95801   1.30483   1.44093   1.44093
  Beta virt. eigenvalues --    1.47999   1.47999   1.53520   1.97924   2.43518

 Mulliken charges and spin densities:
               1          2
     1  H    0.259280   0.002364
     2  H    0.003293   0.995331
     3  F   -0.262573   0.002305
 Sum of Mulliken charges =   0.00000   1.00000

 Dipole moment (field-independent basis, Debye):
    X=             -1.6255    Y=              0.0000    Z=              0.0000  Tot=              1.6255
 Quadrupole moment (field-independent basis, Debye-Ang):
   XX=             -7.1571   YY=             -6.6597   ZZ=             -6.6597
   XY=              0.0000   XZ=              0.0000   YZ=              0.0000

  Exact polarizability:       5.085       0.000       2.466      -0.000      -0.000       2.466
 Approx polarizability:       5.279       0.000       2.450      -0.000      -0.000       2.450

 ******    2 imaginary frequencies (negative Signs) ******

                      1                      2                      3
                      A                      A                      A
 Frequencies --  -3537.4402             -3537.4402                55.1803
 Red. masses --      1.0384                 1.0384                 1.0532
 Frc consts  --      7.6559                 7.6559                 0.0019
 IR Inten    --    204.3925               204.3925                 0.1823

                      4
                      A
 Frequencies --   9072.7668
 Red. masses --      1.0583
 Frc consts  --     51.3269
 IR Inten    --    116.5884

 - Thermochemistry -
 -------------------
 Temperature   298.150 Kelvin.  Pressure   1.00000 Atm.
 Atom     1 has atomic number  1 and mass   1.00783

 Molecular mass:    21.01405 amu.
 Principal axes and moments of inertia in atomic units:
                           1         2         3
     Eigenvalues --     0.00000  40.46653  40.46653
           X            1.00000  -0.00000   0.00000
           Y            0.00000   1.00000   0.00000
           Z            0.00000   0.00000   1.00000
 This molecule is a prolate symmetric top.
 Rotational symmetry number  1.
 Rotational temperature (Kelvin)      2.14038
 Rotational constant (GHZ):          44.598367
    2 imaginary frequencies ignored.
 Zero-point vibrational energy      54597.2 (Joules/Mol)
                                   13.04906 (Kcal/Mol)
 Warning -- explicit consideration of   1 degrees of freedom as
           vibrations may cause significant error
 Vibrational temperatures:     79.39 13053.69
          (Kelvin)

 Zero-point correction=                           0.020795 (Hartree/Particle)
 Thermal correction to Energy=                    0.023980
 Thermal correction to Enthalpy=                  0.024924
 Thermal correction to Gibbs Free Energy=        -0.000194
 Sum of electronic and zero-point Energies=           -100.854131
 Sum of electronic and thermal Energies=              -100.850947
 Sum of electronic and thermal Enthalpies=            -100.850003
 Sum of electronic and thermal Free Energies=         -100.875121

                     E (Thermal)             CV                S
                      KCal/Mol        Cal/Mol-Kelvin    Cal/Mol-Kelvin
 Total                   15.047              6.944             52.865
 Electronic               0.000              0.000              1.377
 Translational            0.889              2.981             35.068
 Rotational               0.592              1.987             11.797
 Vibrational             13.566              1.976              4.623
 Vibration     1          0.596              1.976              4.623

 Normal termination of Gaussian 16 at Fri Aug 22 15:46:53 2025.
