 Gaussian 16, Revision C.01,
 Gaussian 16:  ES64L-G16RevC.01  3-Jul-2019

 -----------------------------------------
 # sp b3lyp/6-311g** Force nosymm scf=(qc)
 -----------------------------------------

 -------------------
 Title Card Required
 -------------------
 Symbolic Z-matrix:
 Charge =  0 Multiplicity = 2

                          Input orientation:
 ---------------------------------------------------------------------
 Center     Atomic      Atomic             Coordinates (Angstroms)
 Number     Number       Type             X           Y           Z
 ---------------------------------------------------------------------
      1          1           0        0.000000    0.000000    0.000000
      2          1           0       -2.200000    0.000000    0.000000
      3          9           0        1.300000    0.000000    0.000000
 ---------------------------------------------------------------------

 SCF Done:  E(UB3LYP) =  -100.903199662     a.u. after    7 cycles

 Alpha  occ. eigenvalues --  -24.63881  -1.10810  -0.46090  -0.36673  -0.36673
 Alpha  occ. eigenvalues --   -0.36237
 Alpha virt. eigenvalues --   -0.07245   0.24060   0.27443   0.93411   0.93411
 Alpha virt. eigenvalues --    1.02267   1.14786   1.21179   1.21179   1.34404
 Alpha virt. eigenvalues --    1.34404   1.34531   1.71524   2.11403   2.27259

  Beta  occ. eigenvalues --  -24.63735  -1.10435  -0.45439  -0.36538  -0.36538
  Beta virt. eigenvalues --   -0.14351  -0.03650   0.27226   0.34805   0.93392
  Beta virt. eigenvalues --    0.93392   1.02631   1.20508   1.33901   1.33901
  Beta virt. eigenvalues --    1.40972   1.40972   1.47538   1.71694   2.23647

 Mulliken charges and spin densities:
               1          2
     1  H    0.341098  -0.014996
     2  H    0.022981   0.970190
     3  F   -0.364079   0.044806
 Sum of Mulliken charges =  -0.00000   1.00000

 Dipole moment (field-independent basis, Debye):
    X=             -2.6674    Y=             -0.0000    Z=             -0.0000  Tot=              2.6674
 Quadrupole moment (field-independent basis, Debye-Ang):
   XX=             -8.6168   YY=             -7.1818   ZZ=             -7.1818
   XY=             -0.0000   XZ=             -0.0000   YZ=              0.0000

  Exact polarizability:      17.360       0.000       2.316       0.000      -0.000       2.316
 Approx polarizability:      23.234      -0.000       2.266       0.000      -0.000       2.266

 ******    2 imaginary frequencies (negative Signs) ******

                      1                      2                      3
                      A                      A                      A
 Frequencies --   -899.8922              -167.6027              1126.4350
 Red. masses --      1.0324                 1.0802                 1.0254
 Frc consts  --      0.4926                 0.0179                 0.7666
 IR Inten    --    186.2328                 0.8473               107.4449

                      4
                      A
 Frequencies --   1126.4350
 Red. masses --      1.0254
 Frc consts  --      0.7666
 IR Inten    --    107.4449

 - Thermochemistry -
 -------------------
 Temperature   298.150 Kelvin.  Pressure   1.00000 Atm.
 Atom     1 has atomic number  1 and mass   1.00783

 Molecular mass:    21.01405 amu.
 Principal axes and moments of inertia in atomic units:
                           1         2         3
     Eigenvalues --     0.00000  46.19332  46.19332
           X            1.00000  -0.00000   0.00000
           Y            0.00000   1.00000   0.00000
           Z            0.00000   0.00000   1.00000
 This molecule is a prolate symmetric top.
 Rotational symmetry number  1.
 Rotational temperature (Kelvin)      1.87503
 Rotational constant (GHZ):          39.069315
    2 imaginary frequencies ignored.
 Zero-point vibrational energy      13475.2 (Joules/Mol)
                                    3.22064 (Kcal/Mol)
 Vibrational temperatures:   1620.69  1620.69
          (Kelvin)

 Zero-point correction=                           0.005132 (Hartree/Particle)
 Thermal correction to Energy=                    0.007538
 Thermal correction to Enthalpy=                  0.008482
 Thermal correction to Gibbs Free Energy=        -0.014618
 Sum of electronic and zero-point Energies=           -100.898067
 Sum of electronic and thermal Energies=              -100.895662
 Sum of electronic and thermal Enthalpies=            -100.894718
 Sum of electronic and thermal Free Energies=         -100.917817

                     E (Thermal)             CV                S
                      KCal/Mol        Cal/Mol-Kelvin    Cal/Mol-Kelvin
 Total                    4.730              5.484             48.618
 Electronic               0.000              0.000              1.377
 Translational            0.889              2.981             35.068
 Rotational               0.592              1.987             12.060
 Vibrational              3.249              0.516              0.112

 Normal termination of Gaussian 16 at Fri Aug 22 16:15:12 2025.
