 Gaussian 16, Revision C.01,
 Gaussian 16:  ES64L-G16RevC.01  3-Jul-2019

 -----------------------------------------
 # sp b3lyp/6-311g** Force nosymm scf=(qc)
 -----------------------------------------

 -------------------
 Title Card Required
 -------------------
 Symbolic Z-matrix:
 Charge =  0 Multiplicity = 2

                          Input orientation:
 ---------------------------------------------------------------------
 Center     Atomic      Atomic             Coordinates (Angstroms)
 Number     Number       Type             X           Y           Z
 ---------------------------------------------------------------------
      1          1           0        0.000000    0.000000    0.000000
      2          1           0       -0.500000    0.000000    0.000000
      3          9           0        2.550000    0.000000    0.000000
 ---------------------------------------------------------------------

 SCF Done:  E(UB3LYP) =  -100.862176719     a.u. after   10 cycles

 Alpha  occ. eigenvalues --  -24.76753  -1.22531  -0.55713  -0.49365  -0.46860
 Alpha  occ. eigenvalues --   -0.46537
 Alpha virt. eigenvalues --    0.11172   0.19128   0.57103   0.85753   0.90617
 Alpha virt. eigenvalues --    0.93851   1.12375   1.12397   1.13045   1.61802
 Alpha virt. eigenvalues --    1.85575   1.99912   1.99935   2.38598   3.64556

  Beta  occ. eigenvalues --  -24.73589  -1.13438  -0.49154  -0.43688  -0.43572
  Beta virt. eigenvalues --   -0.26326   0.11278   0.19210   0.57211   0.92113
  Beta virt. eigenvalues --    0.95194   0.95744   1.12384   1.12396   1.16585
  Beta virt. eigenvalues --    1.61813   1.85583   1.99913   1.99934   2.38617

 Mulliken charges and spin densities:
               1          2
     1  H   -0.013573  -0.002914
     2  H   -0.001720   0.000548
     3  F    0.015292   1.002366
 Sum of Mulliken charges =   0.00000   1.00000

 Dipole moment (field-independent basis, Debye):
    X=              0.1290    Y=             -0.0000    Z=              0.0000  Tot=              0.1290
 Quadrupole moment (field-independent basis, Debye-Ang):
   XX=             -5.9399   YY=             -6.5989   ZZ=             -5.7357
   XY=             -0.0000   XZ=              0.0000   YZ=             -0.0030

  Exact polarizability:       5.978      -0.000       1.836       0.000      -0.002       2.278
 Approx polarizability:       6.210      -0.000       1.919       0.000      -0.002       2.477

 ******    2 imaginary frequencies (negative Signs) ******

                      1                      2                      3
                      A                      A                      A
 Frequencies --  -4818.8327             -4816.0263               200.6863
 Red. masses --      1.0086                 1.0086                 1.1085
 Frc consts  --     13.7995                13.7835                 0.0263
 IR Inten    --      0.1678                 0.1877                 0.2458

                      4
                      A
 Frequencies --   9960.6883
 Red. masses --      1.0078
 Frc consts  --     58.9134
 IR Inten    --      1.4200

 - Thermochemistry -
 -------------------
 Temperature   298.150 Kelvin.  Pressure   1.00000 Atm.
 Atom     1 has atomic number  1 and mass   1.00783

 Molecular mass:    21.01405 amu.
 Principal axes and moments of inertia in atomic units:
                           1         2         3
     Eigenvalues --     0.00000  51.46938  51.46938
           X            1.00000  -0.00000   0.00000
           Y            0.00000   1.00000   0.00000
           Z            0.00000   0.00000   1.00000
 This molecule is a prolate symmetric top.
 Rotational symmetry number  1.
 Rotational temperature (Kelvin)      1.68282
 Rotational constant (GHZ):          35.064368
    2 imaginary frequencies ignored.
 Zero-point vibrational energy      60778.5 (Joules/Mol)
                                   14.52641 (Kcal/Mol)
 Warning -- explicit consideration of   1 degrees of freedom as
           vibrations may cause significant error
 Vibrational temperatures:    288.74 14331.21
          (Kelvin)

 Zero-point correction=                           0.023149 (Hartree/Particle)
 Thermal correction to Energy=                    0.026069
 Thermal correction to Enthalpy=                  0.027014
 Thermal correction to Gibbs Free Energy=         0.002854
 Sum of electronic and zero-point Energies=           -100.839027
 Sum of electronic and thermal Energies=              -100.836107
 Sum of electronic and thermal Enthalpies=            -100.835163
 Sum of electronic and thermal Free Energies=         -100.859322

                     E (Thermal)             CV                S
                      KCal/Mol        Cal/Mol-Kelvin    Cal/Mol-Kelvin
 Total                   16.359              6.807             50.847
 Electronic               0.000              0.000              1.377
 Translational            0.889              2.981             35.068
 Rotational               0.592              1.987             12.275
 Vibrational             14.878              1.839              2.127
 Vibration     1          0.638              1.839              2.127

 Normal termination of Gaussian 16 at Fri Aug 22 17:46:45 2025.
