 Gaussian 16, Revision C.01,
 Gaussian 16:  ES64L-G16RevC.01  3-Jul-2019

 -----------------------------------------
 # sp b3lyp/6-311g** Force nosymm scf=(qc)
 -----------------------------------------

 -------------------
 Title Card Required
 -------------------
 Symbolic Z-matrix:
 Charge =  0 Multiplicity = 2

                          Input orientation:
 ---------------------------------------------------------------------
 Center     Atomic      Atomic             Coordinates (Angstroms)
 Number     Number       Type             X           Y           Z
 ---------------------------------------------------------------------
      1          1           0        0.000000    0.000000    0.000000
      2          1           0       -3.650000    0.000000    0.000000
      3          9           0        2.950000    0.000000    0.000000
 ---------------------------------------------------------------------

 SCF Done:  E(UB3LYP) =  -100.761327319     a.u. after   20 cycles

 Alpha  occ. eigenvalues --  -24.73894  -1.19969  -0.53013  -0.44515  -0.44515
 Alpha  occ. eigenvalues --   -0.32536
 Alpha virt. eigenvalues --   -0.08177   0.23891   0.36115   0.89517   0.92390
 Alpha virt. eigenvalues --    0.92390   1.04173   1.24967   1.24967   1.25056
 Alpha virt. eigenvalues --    1.43917   1.43917   1.44330   2.14603   2.40047

  Beta  occ. eigenvalues --  -24.70880  -1.11335  -0.41499  -0.41499  -0.33857
  Beta virt. eigenvalues --   -0.24664  -0.06349   0.23860   0.38022   0.93847
  Beta virt. eigenvalues --    0.93847   0.98116   1.07834   1.23465   1.23465
  Beta virt. eigenvalues --    1.24057   1.46099   1.46330   1.46330   2.14626

 Mulliken charges and spin densities:
               1          2
     1  H    0.040755  -0.953478
     2  H    0.000329   0.998577
     3  F   -0.041084   0.954901
 Sum of Mulliken charges =  -0.00000   1.00000

 Dipole moment (field-independent basis, Debye):
    X=             -0.6279    Y=              0.0000    Z=              0.0000  Tot=              0.6279
 Quadrupole moment (field-independent basis, Debye-Ang):
   XX=             -8.4254   YY=             -7.6052   ZZ=             -7.6052
   XY=             -0.0000   XZ=             -0.0000   YZ=              0.0000

  Exact polarizability:      31.656      -0.000       2.026      -0.000      -0.000       2.026
 Approx polarizability:      33.205      -0.000       1.926      -0.000      -0.000       1.926

 ******    2 imaginary frequencies (negative Signs) ******

                      1                      2                      3
                      A                      A                      A
 Frequencies --   -390.4378              -101.3520               138.0334
 Red. masses --      1.0506                 1.0610                 1.0207
 Frc consts  --      0.0944                 0.0064                 0.0115
 IR Inten    --     43.0555                 0.3078                 1.5763

                      4
                      A
 Frequencies --    138.0334
 Red. masses --      1.0207
 Frc consts  --      0.0115
 IR Inten    --      1.5763

 - Thermochemistry -
 -------------------
 Temperature   298.150 Kelvin.  Pressure   1.00000 Atm.
 Atom     1 has atomic number  1 and mass   1.00783

 Molecular mass:    21.01405 amu.
 Principal axes and moments of inertia in atomic units:
                           1         2         3
     Eigenvalues --     0.00000 172.35100 172.35100
           X            1.00000  -0.00000   0.00000
           Y            0.00000   1.00000   0.00000
           Z            0.00000   0.00000   1.00000
 This molecule is a prolate symmetric top.
 Rotational symmetry number  1.
 Rotational temperature (Kelvin)      0.50254
 Rotational constant (GHZ):          10.471313
    2 imaginary frequencies ignored.
 Zero-point vibrational energy       1651.2 (Joules/Mol)
                                    0.39466 (Kcal/Mol)
 Warning -- explicit consideration of   2 degrees of freedom as
           vibrations may cause significant error
 Vibrational temperatures:    198.60   198.60
          (Kelvin)

 Zero-point correction=                           0.000629 (Hartree/Particle)
 Thermal correction to Energy=                    0.004318
 Thermal correction to Enthalpy=                  0.005262
 Thermal correction to Gibbs Free Energy=        -0.021718
 Sum of electronic and zero-point Energies=           -100.760698
 Sum of electronic and thermal Energies=              -100.757009
 Sum of electronic and thermal Enthalpies=            -100.756065
 Sum of electronic and thermal Free Energies=         -100.783045

                     E (Thermal)             CV                S
                      KCal/Mol        Cal/Mol-Kelvin    Cal/Mol-Kelvin
 Total                    2.710              8.799             56.784
 Electronic               0.000              0.000              1.377
 Translational            0.889              2.981             35.068
 Rotational               0.592              1.987             14.677
 Vibrational              1.228              3.831              5.662
 Vibration     1          0.614              1.915              2.831
 Vibration     2          0.614              1.915              2.831

 Normal termination of Gaussian 16 at Fri Aug 22 19:19:08 2025.
