 Gaussian 16, Revision C.01,
 Gaussian 16:  ES64L-G16RevC.01  3-Jul-2019

 -----------------------------------------
 # sp b3lyp/6-311g** Force nosymm scf=(qc)
 -----------------------------------------

 -------------------
 Title Card Required
 -------------------
 Symbolic Z-matrix:
 Charge =  0 Multiplicity = 2

                          Input orientation:
 ---------------------------------------------------------------------
 Center     Atomic      Atomic             Coordinates (Angstroms)
 Number     Number       Type             X           Y           Z
 ---------------------------------------------------------------------
      1          1           0        0.000000    0.000000    0.000000
      2          1           0       -1.200000    0.000000    0.000000
      3          9           0        3.700000    0.000000    0.000000
 ---------------------------------------------------------------------

 SCF Done:  E(UB3LYP) =  -100.871677688     a.u. after  150 cycles

 Alpha  occ. eigenvalues --  -24.76290  -1.22178  -0.55379  -0.46563  -0.46534
 Alpha  occ. eigenvalues --   -0.36323
 Alpha virt. eigenvalues --   -0.04072   0.22845   0.34253   0.86004   0.90880
 Alpha virt. eigenvalues --    0.91744   1.01087   1.12916   1.12919   1.22191
 Alpha virt. eigenvalues --    1.54417   1.54419   2.07414   2.31671   2.54463

  Beta  occ. eigenvalues --  -24.73134  -1.13102  -0.43399  -0.43370  -0.36322
  Beta virt. eigenvalues --   -0.26025  -0.04069   0.22851   0.34274   0.92380
  Beta virt. eigenvalues --    0.93238   0.95469   1.05219   1.12916   1.12919
  Beta virt. eigenvalues --    1.22196   1.54417   1.54419   2.07418   2.31672

 Mulliken charges and spin densities:
               1          2
     1  H    0.000613  -0.000107
     2  H   -0.002471  -0.000104
     3  F    0.001859   1.000210
 Sum of Mulliken charges =   0.00000   1.00000

 Dipole moment (field-independent basis, Debye):
    X=              0.0336    Y=              0.0000    Z=             -0.0000  Tot=              0.0336
 Quadrupole moment (field-independent basis, Debye-Ang):
   XX=             -6.2999   YY=             -7.3968   ZZ=             -6.7282
   XY=              0.0000   XZ=              0.0000   YZ=              0.2740

  Exact polarizability:      15.909       0.000       2.131       0.000       0.148       2.492
 Approx polarizability:      24.005       0.000       2.171       0.000       0.185       2.621

 ******    2 imaginary frequencies (negative Signs) ******

                      1                      2                      3
                      A                      A                      A
 Frequencies --   -455.1380               -62.8065              1470.5608
 Red. masses --      1.0078                 1.1085                 1.0098
 Frc consts  --      0.1230                 0.0026                 1.2866
 IR Inten    --      0.1045                 0.0892                 0.0021

                      4
                      A
 Frequencies --   1472.4226
 Red. masses --      1.0098
 Frc consts  --      1.2898
 IR Inten    --      0.0011

 - Thermochemistry -
 -------------------
 Temperature   298.150 Kelvin.  Pressure   1.00000 Atm.
 Atom     1 has atomic number  1 and mass   1.00783

 Molecular mass:    21.01405 amu.
 Principal axes and moments of inertia in atomic units:
                           1         2         3
     Eigenvalues --     0.00000 122.91661 122.91661
           X            1.00000  -0.00000   0.00000
           Y            0.00000   1.00000   0.00000
           Z            0.00000   0.00000   1.00000
 This molecule is a prolate symmetric top.
 Rotational symmetry number  1.
 Rotational temperature (Kelvin)      0.70466
 Rotational constant (GHZ):          14.682647
    2 imaginary frequencies ignored.
 Zero-point vibrational energy      17602.9 (Joules/Mol)
                                    4.20721 (Kcal/Mol)
 Vibrational temperatures:   2115.81  2118.49
          (Kelvin)

 Zero-point correction=                           0.006705 (Hartree/Particle)
 Thermal correction to Energy=                    0.009076
 Thermal correction to Enthalpy=                  0.010020
 Thermal correction to Gibbs Free Energy=        -0.013963
 Sum of electronic and zero-point Energies=           -100.864973
 Sum of electronic and thermal Energies=              -100.862602
 Sum of electronic and thermal Enthalpies=            -100.861657
 Sum of electronic and thermal Free Energies=         -100.885641

                     E (Thermal)             CV                S
                      KCal/Mol        Cal/Mol-Kelvin    Cal/Mol-Kelvin
 Total                    5.695              5.133             50.477
 Electronic               0.000              0.000              1.377
 Translational            0.889              2.981             35.068
 Rotational               0.592              1.987             14.005
 Vibrational              4.214              0.165              0.027

 Normal termination of Gaussian 16 at Fri Aug 22 23:47:47 2025.
