 Gaussian 16, Revision C.01,
 Gaussian 16:  ES64L-G16RevC.01  3-Jul-2019

 -----------------------------------------
 # sp b3lyp/6-311g** Force nosymm scf=(qc)
 -----------------------------------------

 -------------------
 Title Card Required
 -------------------
 Symbolic Z-matrix:
 Charge =  0 Multiplicity = 2

                          Input orientation:
 ---------------------------------------------------------------------
 Center     Atomic      Atomic             Coordinates (Angstroms)
 Number     Number       Type             X           Y           Z
 ---------------------------------------------------------------------
      1          1           0        0.000000    0.000000    0.000000
      2          1           0       -1.200000    0.000000    0.000000
      3          9           0        0.600000    0.000000    0.000000
 ---------------------------------------------------------------------

 SCF Done:  E(UB3LYP) =  -100.664852287     a.u. after    6 cycles

 Alpha  occ. eigenvalues --  -24.63696  -1.36410  -0.63454  -0.43961  -0.43961
 Alpha  occ. eigenvalues --   -0.35051
 Alpha virt. eigenvalues --    0.15617   0.20692   0.68795   0.89930   0.89930
 Alpha virt. eigenvalues --    0.90938   1.12535   1.12535   1.48148   1.63627
 Alpha virt. eigenvalues --    1.63627   1.75117   1.97939   2.34168   3.76883

  Beta  occ. eigenvalues --  -24.63473  -1.35693  -0.62272  -0.43793  -0.43793
  Beta virt. eigenvalues --   -0.12184   0.16498   0.28204   0.74397   0.90631
  Beta virt. eigenvalues --    0.90631   0.91429   1.23052   1.23052   1.49012
  Beta virt. eigenvalues --    1.68951   1.68951   1.83729   2.03570   2.54025

 Mulliken charges and spin densities:
               1          2
     1  H    0.236801   0.008479
     2  H   -0.005358   0.969055
     3  F   -0.231443   0.022466
 Sum of Mulliken charges =   0.00000   1.00000

 Dipole moment (field-independent basis, Debye):
    X=             -1.2600    Y=             -0.0000    Z=              0.0000  Tot=              1.2600
 Quadrupole moment (field-independent basis, Debye-Ang):
   XX=             -7.0678   YY=             -6.4362   ZZ=             -6.4362
   XY=             -0.0000   XZ=              0.0000   YZ=              0.0000

  Exact polarizability:       6.596      -0.000       2.530       0.000       0.000       2.530
 Approx polarizability:       6.311      -0.000       2.568       0.000       0.000       2.568

 ******    2 imaginary frequencies (negative Signs) ******

                      1                      2                      3
                      A                      A                      A
 Frequencies --  -5714.4766             -5714.4766              1525.4313
 Red. masses --      1.0281                 1.0281                 1.0539
 Frc consts  --     19.7797                19.7797                 1.4449
 IR Inten    --    158.0006               158.0006                36.1571

                      4
                      A
 Frequencies --  13066.6298
 Red. masses --      1.0577
 Frc consts  --    106.3955
 IR Inten    --     81.1797

 - Thermochemistry -
 -------------------
 Temperature   298.150 Kelvin.  Pressure   1.00000 Atm.
 Atom     1 has atomic number  1 and mass   1.00783

 Molecular mass:    21.01405 amu.
 Principal axes and moments of inertia in atomic units:
                           1         2         3
     Eigenvalues --     0.00000  11.96221  11.96221
           X            1.00000  -0.00000   0.00000
           Y            0.00000   1.00000   0.00000
           Z            0.00000   0.00000   1.00000
 This molecule is a prolate symmetric top.
 Rotational symmetry number  1.
 Rotational temperature (Kelvin)      7.24063
 Rotational constant (GHZ):         150.870154
    2 imaginary frequencies ignored.
 Zero-point vibrational energy      87279.9 (Joules/Mol)
                                   20.86040 (Kcal/Mol)
 Vibrational temperatures:   2194.76 18799.97
          (Kelvin)

 Zero-point correction=                           0.033243 (Hartree/Particle)
 Thermal correction to Energy=                    0.035608
 Thermal correction to Enthalpy=                  0.036552
 Thermal correction to Gibbs Free Energy=         0.014776
 Sum of electronic and zero-point Energies=           -100.631609
 Sum of electronic and thermal Energies=              -100.629244
 Sum of electronic and thermal Enthalpies=            -100.628300
 Sum of electronic and thermal Free Energies=         -100.650076

                     E (Thermal)             CV                S
                      KCal/Mol        Cal/Mol-Kelvin    Cal/Mol-Kelvin
 Total                   22.344              5.037             45.831
 Electronic               0.000              0.000              1.377
 Translational            0.889              2.981             35.068
 Rotational               0.592              1.987              9.375
 Vibrational             20.863              0.069              0.011

 Normal termination of Gaussian 16 at Fri Aug 22 15:41:09 2025.
