 Gaussian 16, Revision C.01,
 Gaussian 16:  ES64L-G16RevC.01  3-Jul-2019

 -----------------------------------------
 # sp b3lyp/6-311g** Force nosymm scf=(qc)
 -----------------------------------------

 -------------------
 Title Card Required
 -------------------
 Symbolic Z-matrix:
 Charge =  0 Multiplicity = 2

                          Input orientation:
 ---------------------------------------------------------------------
 Center     Atomic      Atomic             Coordinates (Angstroms)
 Number     Number       Type             X           Y           Z
 ---------------------------------------------------------------------
      1          1           0        0.000000    0.000000    0.000000
      2          1           0       -1.450000    0.000000    0.000000
      3          9           0        2.300000    0.000000    0.000000
 ---------------------------------------------------------------------

 SCF Done:  E(UB3LYP) =  -100.833667169     a.u. after   13 cycles

 Alpha  occ. eigenvalues --  -24.72524  -1.18711  -0.51791  -0.43398  -0.43398
 Alpha  occ. eigenvalues --   -0.36787
 Alpha virt. eigenvalues --   -0.10008   0.23143   0.31686   0.87379   0.92929
 Alpha virt. eigenvalues --    0.92929   1.03711   1.16441   1.16441   1.19931
 Alpha virt. eigenvalues --    1.41002   1.41002   1.83891   2.21342   2.47385

  Beta  occ. eigenvalues --  -24.69659  -1.10555  -0.40542  -0.40542  -0.36227
  Beta virt. eigenvalues --   -0.24645  -0.08937   0.24357   0.31812   0.93312
  Beta virt. eigenvalues --    0.94271   0.94271   1.06893   1.17369   1.17369
  Beta virt. eigenvalues --    1.23608   1.41664   1.41664   1.84832   2.22439

 Mulliken charges and spin densities:
               1          2
     1  H    0.031895  -0.267814
     2  H    0.046498   0.363950
     3  F   -0.078393   0.903864
 Sum of Mulliken charges =  -0.00000   1.00000

 Dipole moment (field-independent basis, Debye):
    X=             -1.2268    Y=             -0.0000    Z=              0.0000  Tot=              1.2268
 Quadrupole moment (field-independent basis, Debye-Ang):
   XX=             -7.0522   YY=             -7.6062   ZZ=             -7.6062
   XY=             -0.0000   XZ=             -0.0000   YZ=              0.0000

  Exact polarizability:      55.345      -0.000       2.080      -0.000      -0.000       2.080
 Approx polarizability:      80.888       0.000       2.056       0.000      -0.000       2.056

 ******    2 imaginary frequencies (negative Signs) ******

                      1                      2                      3
                      A                      A                      A
 Frequencies --  -1988.0846              -343.3503              1182.0670
 Red. masses --      1.0095                 1.1065                 1.0133
 Frc consts  --      2.3508                 0.0769                 0.8342
 IR Inten    --    864.3032                24.9317                 0.0634

                      4
                      A
 Frequencies --   1182.0670
 Red. masses --      1.0133
 Frc consts  --      0.8342
 IR Inten    --      0.0634

 - Thermochemistry -
 -------------------
 Temperature   298.150 Kelvin.  Pressure   1.00000 Atm.
 Atom     1 has atomic number  1 and mass   1.00783

 Molecular mass:    21.01405 amu.
 Principal axes and moments of inertia in atomic units:
                           1         2         3
     Eigenvalues --     0.00000  63.33197  63.33197
           X            1.00000  -0.00000   0.00000
           Y            0.00000   1.00000   0.00000
           Z            0.00000   0.00000   1.00000
 This molecule is a prolate symmetric top.
 Rotational symmetry number  1.
 Rotational temperature (Kelvin)      1.36762
 Rotational constant (GHZ):          28.496528
    2 imaginary frequencies ignored.
 Zero-point vibrational energy      14140.7 (Joules/Mol)
                                    3.37970 (Kcal/Mol)
 Vibrational temperatures:   1700.73  1700.73
          (Kelvin)

 Zero-point correction=                           0.005386 (Hartree/Particle)
 Thermal correction to Energy=                    0.007782
 Thermal correction to Enthalpy=                  0.008727
 Thermal correction to Gibbs Free Energy=        -0.014660
 Sum of electronic and zero-point Energies=           -100.828281
 Sum of electronic and thermal Energies=              -100.825885
 Sum of electronic and thermal Enthalpies=            -100.824941
 Sum of electronic and thermal Free Energies=         -100.848328

                     E (Thermal)             CV                S
                      KCal/Mol        Cal/Mol-Kelvin    Cal/Mol-Kelvin
 Total                    4.884              5.402             49.222
 Electronic               0.000              0.000              1.377
 Translational            0.889              2.981             35.068
 Rotational               0.592              1.987             12.687
 Vibrational              3.402              0.434              0.089

 Normal termination of Gaussian 16 at Fri Aug 22 17:21:19 2025.
