 Gaussian 16, Revision C.01,
 Gaussian 16:  ES64L-G16RevC.01  3-Jul-2019

 -----------------------------------------
 # sp b3lyp/6-311g** Force nosymm scf=(qc)
 -----------------------------------------

 -------------------
 Title Card Required
 -------------------
 Symbolic Z-matrix:
 Charge =  0 Multiplicity = 2

                          Input orientation:
 ---------------------------------------------------------------------
 Center     Atomic      Atomic             Coordinates (Angstroms)
 Number     Number       Type             X           Y           Z
 ---------------------------------------------------------------------
      1          1           0        0.000000    0.000000    0.000000
      2          1           0       -1.500000    0.000000    0.000000
      3          9           0        2.450000    0.000000    0.000000
 ---------------------------------------------------------------------

 SCF Done:  E(UB3LYP) =  -100.824377409     a.u. after   19 cycles

 Alpha  occ. eigenvalues --  -24.73133  -1.19269  -0.52331  -0.43897  -0.43897
 Alpha  occ. eigenvalues --   -0.36059
 Alpha virt. eigenvalues --   -0.10665   0.23609   0.31229   0.88636   0.92708
 Alpha virt. eigenvalues --    0.92708   1.03644   1.15001   1.17989   1.17989
 Alpha virt. eigenvalues --    1.39730   1.39730   1.79898   2.20028   2.46247

  Beta  occ. eigenvalues --  -24.70208  -1.10923  -0.40977  -0.40977  -0.35562
  Beta virt. eigenvalues --   -0.24799  -0.09863   0.24761   0.31296   0.94101
  Beta virt. eigenvalues --    0.94101   0.95132   1.06384   1.18613   1.18689
  Beta virt. eigenvalues --    1.18689   1.40269   1.40269   1.80634   2.21049

 Mulliken charges and spin densities:
               1          2
     1  H    0.022601  -0.316355
     2  H    0.040295   0.392348
     3  F   -0.062895   0.924007
 Sum of Mulliken charges =  -0.00000   1.00000

 Dipole moment (field-independent basis, Debye):
    X=             -1.0670    Y=             -0.0000    Z=             -0.0000  Tot=              1.0670
 Quadrupole moment (field-independent basis, Debye-Ang):
   XX=             -6.9569   YY=             -7.6565   ZZ=             -7.6565
   XY=             -0.0000   XZ=             -0.0000   YZ=             -0.0000

  Exact polarizability:      58.018      -0.000       2.057      -0.000      -0.000       2.057
 Approx polarizability:      81.608       0.000       2.032       0.000       0.000       2.032

 ******    2 imaginary frequencies (negative Signs) ******

                      1                      2                      3
                      A                      A                      A
 Frequencies --  -2045.6965              -318.0241              1137.7334
 Red. masses --      1.0086                 1.1075                 1.0131
 Frc consts  --      2.4870                 0.0660                 0.7726
 IR Inten    --    675.5412                31.3275                 0.0141

                      4
                      A
 Frequencies --   1137.7334
 Red. masses --      1.0131
 Frc consts  --      0.7726
 IR Inten    --      0.0141

 - Thermochemistry -
 -------------------
 Temperature   298.150 Kelvin.  Pressure   1.00000 Atm.
 Atom     1 has atomic number  1 and mass   1.00783

 Molecular mass:    21.01405 amu.
 Principal axes and moments of inertia in atomic units:
                           1         2         3
     Eigenvalues --     0.00000  70.68660  70.68660
           X            1.00000  -0.00000   0.00000
           Y            0.00000   1.00000   0.00000
           Z            0.00000   0.00000   1.00000
 This molecule is a prolate symmetric top.
 Rotational symmetry number  1.
 Rotational temperature (Kelvin)      1.22532
 Rotational constant (GHZ):          25.531589
    2 imaginary frequencies ignored.
 Zero-point vibrational energy      13610.3 (Joules/Mol)
                                    3.25294 (Kcal/Mol)
 Vibrational temperatures:   1636.94  1636.94
          (Kelvin)

 Zero-point correction=                           0.005184 (Hartree/Particle)
 Thermal correction to Energy=                    0.007587
 Thermal correction to Enthalpy=                  0.008532
 Thermal correction to Gibbs Free Energy=        -0.014968
 Sum of electronic and zero-point Energies=           -100.819194
 Sum of electronic and thermal Energies=              -100.816790
 Sum of electronic and thermal Enthalpies=            -100.815846
 Sum of electronic and thermal Free Energies=         -100.839345

                     E (Thermal)             CV                S
                      KCal/Mol        Cal/Mol-Kelvin    Cal/Mol-Kelvin
 Total                    4.761              5.466             49.458
 Electronic               0.000              0.000              1.377
 Translational            0.889              2.981             35.068
 Rotational               0.592              1.987             12.906
 Vibrational              3.280              0.498              0.107

 Normal termination of Gaussian 16 at Fri Aug 22 17:37:48 2025.
