 Gaussian 16, Revision C.01,
 Gaussian 16:  ES64L-G16RevC.01  3-Jul-2019

 -----------------------------------------
 # sp b3lyp/6-311g** Force nosymm scf=(qc)
 -----------------------------------------

 -------------------
 Title Card Required
 -------------------
 Symbolic Z-matrix:
 Charge =  0 Multiplicity = 2

                          Input orientation:
 ---------------------------------------------------------------------
 Center     Atomic      Atomic             Coordinates (Angstroms)
 Number     Number       Type             X           Y           Z
 ---------------------------------------------------------------------
      1          1           0        0.000000    0.000000    0.000000
      2          1           0       -2.800000    0.000000    0.000000
      3          9           0        3.150000    0.000000    0.000000
 ---------------------------------------------------------------------

 SCF Done:  E(UB3LYP) =  -100.761827871     a.u. after   24 cycles

 Alpha  occ. eigenvalues --  -24.74614  -1.20634  -0.53734  -0.45117  -0.45117
 Alpha  occ. eigenvalues --   -0.32712
 Alpha virt. eigenvalues --   -0.09197   0.25095   0.34679   0.88913   0.91956
 Alpha virt. eigenvalues --    0.91956   1.03120   1.24855   1.24855   1.26086
 Alpha virt. eigenvalues --    1.42108   1.42108   1.42606   2.15756   2.38493

  Beta  occ. eigenvalues --  -24.71552  -1.11847  -0.42050  -0.42050  -0.33449
  Beta virt. eigenvalues --   -0.25078  -0.08156   0.25003   0.36016   0.93428
  Beta virt. eigenvalues --    0.93428   0.97815   1.07024   1.23983   1.23983
  Beta virt. eigenvalues --    1.25127   1.43778   1.43778   1.44121   2.16429

 Mulliken charges and spin densities:
               1          2
     1  H    0.024386  -0.958027
     2  H    0.002102   0.987315
     3  F   -0.026488   0.970712
 Sum of Mulliken charges =  -0.00000   1.00000

 Dipole moment (field-independent basis, Debye):
    X=             -0.4566    Y=             -0.0000    Z=              0.0000  Tot=              0.4566
 Quadrupole moment (field-independent basis, Debye-Ang):
   XX=             -7.8312   YY=             -7.6368   ZZ=             -7.6368
   XY=             -0.0000   XZ=              0.0000   YZ=              0.0000

  Exact polarizability:      36.033      -0.000       2.022       0.000       0.000       2.022
 Approx polarizability:      31.835      -0.000       1.926       0.000      -0.000       1.926

 ******    2 imaginary frequencies (negative Signs) ******

                      1                      2                      3
                      A                      A                      A
 Frequencies --   -485.8627              -188.3953               178.0776
 Red. masses --      1.0129                 1.1025                 1.0166
 Frc consts  --      0.1409                 0.0231                 0.0190
 IR Inten    --     20.3936                10.0618                 0.5009

                      4
                      A
 Frequencies --    178.0777
 Red. masses --      1.0166
 Frc consts  --      0.0190
 IR Inten    --      0.5009

 - Thermochemistry -
 -------------------
 Temperature   298.150 Kelvin.  Pressure   1.00000 Atm.
 Atom     1 has atomic number  1 and mass   1.00783

 Molecular mass:    21.01405 amu.
 Principal axes and moments of inertia in atomic units:
                           1         2         3
     Eigenvalues --     0.00000 148.83148 148.83148
           X            1.00000  -0.00000   0.00000
           Y            0.00000   1.00000   0.00000
           Z            0.00000   0.00000   1.00000
 This molecule is a prolate symmetric top.
 Rotational symmetry number  1.
 Rotational temperature (Kelvin)      0.58196
 Rotational constant (GHZ):          12.126071
    2 imaginary frequencies ignored.
 Zero-point vibrational energy       2130.3 (Joules/Mol)
                                    0.50915 (Kcal/Mol)
 Warning -- explicit consideration of   2 degrees of freedom as
           vibrations may cause significant error
 Vibrational temperatures:    256.21   256.21
          (Kelvin)

 Zero-point correction=                           0.000811 (Hartree/Particle)
 Thermal correction to Energy=                    0.004364
 Thermal correction to Enthalpy=                  0.005308
 Thermal correction to Gibbs Free Energy=        -0.021075
 Sum of electronic and zero-point Energies=           -100.761016
 Sum of electronic and thermal Energies=              -100.757464
 Sum of electronic and thermal Enthalpies=            -100.756520
 Sum of electronic and thermal Free Energies=         -100.782903

                     E (Thermal)             CV                S
                      KCal/Mol        Cal/Mol-Kelvin    Cal/Mol-Kelvin
 Total                    2.738              8.707             55.528
 Electronic               0.000              0.000              1.377
 Translational            0.889              2.981             35.068
 Rotational               0.592              1.987             14.385
 Vibrational              1.257              3.739              4.697
 Vibration     1          0.629              1.869              2.348
 Vibration     2          0.629              1.869              2.348

 Normal termination of Gaussian 16 at Fri Aug 22 20:10:58 2025.
