 Gaussian 16, Revision C.01,
 Gaussian 16:  ES64L-G16RevC.01  3-Jul-2019

 -----------------------------------------
 # sp b3lyp/6-311g** Force nosymm scf=(qc)
 -----------------------------------------

 -------------------
 Title Card Required
 -------------------
 Symbolic Z-matrix:
 Charge =  0 Multiplicity = 2

                          Input orientation:
 ---------------------------------------------------------------------
 Center     Atomic      Atomic             Coordinates (Angstroms)
 Number     Number       Type             X           Y           Z
 ---------------------------------------------------------------------
      1          1           0        0.000000    0.000000    0.000000
      2          1           0       -2.800000    0.000000    0.000000
      3          9           0        1.800000    0.000000    0.000000
 ---------------------------------------------------------------------

 SCF Done:  E(UB3LYP) =  -100.798136084     a.u. after   12 cycles

 Alpha  occ. eigenvalues --  -24.63771  -1.08218  -0.39885  -0.35516  -0.35516
 Alpha  occ. eigenvalues --   -0.35192
 Alpha virt. eigenvalues --   -0.20142   0.21013   0.26904   0.93751   0.95932
 Alpha virt. eigenvalues --    0.95932   1.08363   1.22195   1.22195   1.23298
 Alpha virt. eigenvalues --    1.26033   1.26033   1.66139   2.13053   2.15802

  Beta  occ. eigenvalues --  -24.63818  -1.08348  -0.39766  -0.35562  -0.35562
  Beta virt. eigenvalues --   -0.20414  -0.08727   0.24225   0.36079   0.93991
  Beta virt. eigenvalues --    0.95967   0.95967   1.08455   1.26585   1.26585
  Beta virt. eigenvalues --    1.43231   1.43231   1.43250   1.66676   2.16519

 Mulliken charges and spin densities:
               1          2
     1  H    0.302439   0.032809
     2  H    0.016941   0.982269
     3  F   -0.319380  -0.015078
 Sum of Mulliken charges =   0.00000   1.00000

 Dipole moment (field-independent basis, Debye):
    X=             -3.0808    Y=             -0.0000    Z=             -0.0000  Tot=              3.0808
 Quadrupole moment (field-independent basis, Debye-Ang):
   XX=            -10.5284   YY=             -7.4650   ZZ=             -7.4650
   XY=             -0.0000   XZ=             -0.0000   YZ=              0.0000

  Exact polarizability:      31.256      -0.000       2.069      -0.000       0.000       2.069
 Approx polarizability:      67.899       0.000       1.980       0.000       0.000       1.980

 ******    2 imaginary frequencies (negative Signs) ******

                      1                      2                      3
                      A                      A                      A
 Frequencies --  -1204.8055              -214.8352               787.7759
 Red. masses --      1.0524                 1.0592                 1.0241
 Frc consts  --      0.9000                 0.0288                 0.3744
 IR Inten    --    127.1558                 7.1046                82.0431

                      4
                      A
 Frequencies --    787.7759
 Red. masses --      1.0241
 Frc consts  --      0.3744
 IR Inten    --     82.0431

 - Thermochemistry -
 -------------------
 Temperature   298.150 Kelvin.  Pressure   1.00000 Atm.
 Atom     1 has atomic number  1 and mass   1.00783

 Molecular mass:    21.01405 amu.
 Principal axes and moments of inertia in atomic units:
                           1         2         3
     Eigenvalues --     0.00000  80.74583  80.74583
           X            1.00000  -0.00000   0.00000
           Y            0.00000   1.00000   0.00000
           Z            0.00000   0.00000   1.00000
 This molecule is a prolate symmetric top.
 Rotational symmetry number  1.
 Rotational temperature (Kelvin)      1.07267
 Rotational constant (GHZ):          22.350891
    2 imaginary frequencies ignored.
 Zero-point vibrational energy       9423.9 (Joules/Mol)
                                    2.25236 (Kcal/Mol)
 Vibrational temperatures:   1133.43  1133.43
          (Kelvin)

 Zero-point correction=                           0.003589 (Hartree/Particle)
 Thermal correction to Energy=                    0.006114
 Thermal correction to Enthalpy=                  0.007058
 Thermal correction to Gibbs Free Energy=        -0.016723
 Sum of electronic and zero-point Energies=           -100.794547
 Sum of electronic and thermal Energies=              -100.792022
 Sum of electronic and thermal Enthalpies=            -100.791078
 Sum of electronic and thermal Free Energies=         -100.814859

                     E (Thermal)             CV                S
                      KCal/Mol        Cal/Mol-Kelvin    Cal/Mol-Kelvin
 Total                    3.836              6.310             50.050
 Electronic               0.000              0.000              1.377
 Translational            0.889              2.981             35.068
 Rotational               0.592              1.987             13.170
 Vibrational              2.355              1.342              0.435

 Normal termination of Gaussian 16 at Fri Aug 22 16:44:16 2025.
