 Gaussian 16, Revision C.01,
 Gaussian 16:  ES64L-G16RevC.01  3-Jul-2019

 -----------------------------------------
 # sp b3lyp/6-311g** Force nosymm scf=(qc)
 -----------------------------------------

 -------------------
 Title Card Required
 -------------------
 Symbolic Z-matrix:
 Charge =  0 Multiplicity = 2

                          Input orientation:
 ---------------------------------------------------------------------
 Center     Atomic      Atomic             Coordinates (Angstroms)
 Number     Number       Type             X           Y           Z
 ---------------------------------------------------------------------
      1          1           0        0.000000    0.000000    0.000000
      2          1           0       -3.450000    0.000000    0.000000
      3          9           0        3.900000    0.000000    0.000000
 ---------------------------------------------------------------------

 SCF Done:  E(UB3LYP) =  -100.758737718     a.u. after   32 cycles

 Alpha  occ. eigenvalues --  -24.75827  -1.21758  -0.54951  -0.46138  -0.46138
 Alpha  occ. eigenvalues --   -0.32274
 Alpha virt. eigenvalues --   -0.06767   0.24428   0.37541   0.86691   0.91204
 Alpha virt. eigenvalues --    0.91204   1.01159   1.25232   1.25232   1.25411
 Alpha virt. eigenvalues --    1.45431   1.45670   1.45670   2.15162   2.41067

  Beta  occ. eigenvalues --  -24.72685  -1.12723  -0.42988  -0.42988  -0.32498
  Beta virt. eigenvalues --   -0.25705  -0.06526   0.24261   0.37893   0.92702
  Beta virt. eigenvalues --    0.92702   0.96040   1.05273   1.24987   1.24987
  Beta virt. eigenvalues --    1.25151   1.45809   1.46037   1.46037   2.15171

 Mulliken charges and spin densities:
               1          2
     1  H    0.003295  -0.993804
     2  H    0.000092   0.997569
     3  F   -0.003387   0.996235
 Sum of Mulliken charges =  -0.00000   1.00000

 Dipole moment (field-independent basis, Debye):
    X=             -0.0699    Y=             -0.0000    Z=             -0.0000  Tot=              0.0699
 Quadrupole moment (field-independent basis, Debye-Ang):
   XX=             -6.9582   YY=             -7.6245   ZZ=             -7.6245
   XY=             -0.0000   XZ=              0.0000   YZ=             -0.0000

  Exact polarizability:      13.122       0.000       1.990       0.000      -0.000       1.991
 Approx polarizability:       9.733      -0.000       1.936       0.000       0.000       1.936

 ******    2 imaginary frequencies (negative Signs) ******

                      1                      2                      3
                      A                      A                      A
 Frequencies --   -205.2839               -74.9747                72.3397
 Red. masses --      1.0109                 1.1048                 1.0165
 Frc consts  --      0.0251                 0.0037                 0.0031
 IR Inten    --      1.3059                 0.6915                 0.0163

                      4
                      A
 Frequencies --     72.3535
 Red. masses --      1.0165
 Frc consts  --      0.0031
 IR Inten    --      0.0163

 - Thermochemistry -
 -------------------
 Temperature   298.150 Kelvin.  Pressure   1.00000 Atm.
 Atom     1 has atomic number  1 and mass   1.00783

 Molecular mass:    21.01405 amu.
 Principal axes and moments of inertia in atomic units:
                           1         2         3
     Eigenvalues --     0.00000 227.32280 227.32280
           X            1.00000  -0.00000   0.00000
           Y            0.00000   1.00000   0.00000
           Z            0.00000   0.00000   1.00000
 This molecule is a prolate symmetric top.
 Rotational symmetry number  1.
 Rotational temperature (Kelvin)      0.38102
 Rotational constant (GHZ):           7.939112
    2 imaginary frequencies ignored.
 Zero-point vibrational energy        865.5 (Joules/Mol)
                                    0.20685 (Kcal/Mol)
 Warning -- explicit consideration of   2 degrees of freedom as
           vibrations may cause significant error
 Vibrational temperatures:    104.08   104.10
          (Kelvin)

 Zero-point correction=                           0.000330 (Hartree/Particle)
 Thermal correction to Energy=                    0.004268
 Thermal correction to Enthalpy=                  0.005212
 Thermal correction to Gibbs Free Energy=        -0.023224
 Sum of electronic and zero-point Energies=           -100.758408
 Sum of electronic and thermal Energies=              -100.754470
 Sum of electronic and thermal Enthalpies=            -100.753526
 Sum of electronic and thermal Free Energies=         -100.781962

                     E (Thermal)             CV                S
                      KCal/Mol        Cal/Mol-Kelvin    Cal/Mol-Kelvin
 Total                    2.678              8.902             59.849
 Electronic               0.000              0.000              1.377
 Translational            0.889              2.981             35.068
 Rotational               0.592              1.987             15.227
 Vibrational              1.197              3.934              8.177
 Vibration     1          0.598              1.967              4.089
 Vibration     2          0.598              1.967              4.088

 Normal termination of Gaussian 16 at Sat Aug 23 01:27:04 2025.
