 Gaussian 16, Revision C.01,
 Gaussian 16:  ES64L-G16RevC.01  3-Jul-2019

 -----------------------------------------
 # sp b3lyp/6-311g** Force nosymm scf=(qc)
 -----------------------------------------

 -------------------
 Title Card Required
 -------------------
 Symbolic Z-matrix:
 Charge =  0 Multiplicity = 2

                          Input orientation:
 ---------------------------------------------------------------------
 Center     Atomic      Atomic             Coordinates (Angstroms)
 Number     Number       Type             X           Y           Z
 ---------------------------------------------------------------------
      1          1           0        0.000000    0.000000    0.000000
      2          1           0       -2.500000    0.000000    0.000000
      3          9           0        2.300000    0.000000    0.000000
 ---------------------------------------------------------------------

 SCF Done:  E(UB3LYP) =  -100.776448934     a.u. after   22 cycles

 Alpha  occ. eigenvalues --  -24.70438  -1.16711  -0.49512  -0.41609  -0.41609
 Alpha  occ. eigenvalues --   -0.34182
 Alpha virt. eigenvalues --   -0.12666   0.24506   0.32629   0.89334   0.94267
 Alpha virt. eigenvalues --    0.94267   1.06622   1.23470   1.23470   1.26577
 Alpha virt. eigenvalues --    1.36882   1.36882   1.47395   2.14328   2.31527

  Beta  occ. eigenvalues --  -24.67727  -1.09035  -0.38915  -0.38915  -0.36146
  Beta virt. eigenvalues --   -0.22517  -0.09746   0.25640   0.34647   0.94294
  Beta virt. eigenvalues --    0.95491   0.95491   1.09028   1.21904   1.21904
  Beta virt. eigenvalues --    1.37400   1.41425   1.41425   1.43283   2.13478

 Mulliken charges and spin densities:
               1          2
     1  H    0.108986  -0.825261
     2  H    0.013605   0.970405
     3  F   -0.122591   0.854855
 Sum of Mulliken charges =   0.00000   1.00000

 Dipole moment (field-independent basis, Debye):
    X=             -1.5845    Y=              0.0000    Z=              0.0000  Tot=              1.5845
 Quadrupole moment (field-independent basis, Debye-Ang):
   XX=             -9.1150   YY=             -7.5827   ZZ=             -7.5827
   XY=              0.0000   XZ=              0.0000   YZ=              0.0000

  Exact polarizability:      41.655       0.000       2.025       0.000       0.000       2.025
 Approx polarizability:      47.280       0.000       1.923       0.000      -0.000       1.923

 ******    2 imaginary frequencies (negative Signs) ******

                      1                      2                      3
                      A                      A                      A
 Frequencies --   -918.7988              -372.2994               375.4933
 Red. masses --      1.0293                 1.0836                 1.0190
 Frc consts  --      0.5120                 0.0885                 0.0846
 IR Inten    --     70.5880                21.6174                 9.7849

                      4
                      A
 Frequencies --    375.4933
 Red. masses --      1.0190
 Frc consts  --      0.0846
 IR Inten    --      9.7849

 - Thermochemistry -
 -------------------
 Temperature   298.150 Kelvin.  Pressure   1.00000 Atm.
 Atom     1 has atomic number  1 and mass   1.00783

 Molecular mass:    21.01405 amu.
 Principal axes and moments of inertia in atomic units:
                           1         2         3
     Eigenvalues --     0.00000  93.25880  93.25880
           X            1.00000  -0.00000   0.00000
           Y            0.00000   1.00000   0.00000
           Z            0.00000   0.00000   1.00000
 This molecule is a prolate symmetric top.
 Rotational symmetry number  1.
 Rotational temperature (Kelvin)      0.92875
 Rotational constant (GHZ):          19.351967
    2 imaginary frequencies ignored.
 Zero-point vibrational energy       4491.9 (Joules/Mol)
                                    1.07359 (Kcal/Mol)
 Warning -- explicit consideration of   2 degrees of freedom as
           vibrations may cause significant error
 Vibrational temperatures:    540.25   540.25
          (Kelvin)

 Zero-point correction=                           0.001711 (Hartree/Particle)
 Thermal correction to Energy=                    0.004739
 Thermal correction to Enthalpy=                  0.005683
 Thermal correction to Gibbs Free Energy=        -0.019031
 Sum of electronic and zero-point Energies=           -100.774738
 Sum of electronic and thermal Energies=              -100.771710
 Sum of electronic and thermal Enthalpies=            -100.770765
 Sum of electronic and thermal Free Energies=         -100.795480

                     E (Thermal)             CV                S
                      KCal/Mol        Cal/Mol-Kelvin    Cal/Mol-Kelvin
 Total                    2.974              8.013             52.016
 Electronic               0.000              0.000              1.377
 Translational            0.889              2.981             35.068
 Rotational               0.592              1.987             13.456
 Vibrational              1.493              3.045              2.115
 Vibration     1          0.746              1.522              1.057
 Vibration     2          0.746              1.522              1.057

 Normal termination of Gaussian 16 at Fri Aug 22 17:22:23 2025.
