 Gaussian 16, Revision C.01,
 Gaussian 16:  ES64L-G16RevC.01  3-Jul-2019

 -----------------------------------------
 # sp b3lyp/6-311g** Force nosymm scf=(qc)
 -----------------------------------------

 -------------------
 Title Card Required
 -------------------
 Symbolic Z-matrix:
 Charge =  0 Multiplicity = 2

                          Input orientation:
 ---------------------------------------------------------------------
 Center     Atomic      Atomic             Coordinates (Angstroms)
 Number     Number       Type             X           Y           Z
 ---------------------------------------------------------------------
      1          1           0        0.000000    0.000000    0.000000
      2          1           0       -3.850000    0.000000    0.000000
      3          9           0        3.150000    0.000000    0.000000
 ---------------------------------------------------------------------

 SCF Done:  E(UB3LYP) =  -100.760010357     a.u. after   24 cycles

 Alpha  occ. eigenvalues --  -24.74568  -1.20592  -0.53689  -0.45079  -0.45079
 Alpha  occ. eigenvalues --   -0.32409
 Alpha virt. eigenvalues --   -0.07319   0.23970   0.36486   0.88822   0.91984
 Alpha virt. eigenvalues --    0.91984   1.03092   1.25089   1.25089   1.25126
 Alpha virt. eigenvalues --    1.45029   1.45029   1.45368   2.14507   2.41268

  Beta  occ. eigenvalues --  -24.71507  -1.11812  -0.42014  -0.42014  -0.33383
  Beta virt. eigenvalues --   -0.25044  -0.06033   0.23769   0.38134   0.93456
  Beta virt. eigenvalues --    0.93456   0.97681   1.06921   1.23970   1.23970
  Beta virt. eigenvalues --    1.24100   1.46472   1.46628   1.46628   2.14725

 Mulliken charges and spin densities:
               1          2
     1  H    0.027183  -0.969213
     2  H    0.000141   0.999120
     3  F   -0.027324   0.970094
 Sum of Mulliken charges =  -0.00000   1.00000

 Dipole moment (field-independent basis, Debye):
    X=             -0.4448    Y=             -0.0000    Z=             -0.0000  Tot=              0.4448
 Quadrupole moment (field-independent basis, Debye-Ang):
   XX=             -8.0384   YY=             -7.6111   ZZ=             -7.6111
   XY=             -0.0000   XZ=             -0.0000   YZ=             -0.0000

  Exact polarizability:      29.722      -0.000       2.029      -0.000      -0.000       2.029
 Approx polarizability:      28.182      -0.000       1.929      -0.000       0.000       1.929

 ******    2 imaginary frequencies (negative Signs) ******

                      1                      2                      3
                      A                      A                      A
 Frequencies --   -310.8779               -80.4010               104.5846
 Red. masses --      1.0507                 1.0609                 1.0206
 Frc consts  --      0.0598                 0.0040                 0.0066
 IR Inten    --     29.5176                 0.1828                 0.6996

                      4
                      A
 Frequencies --    104.5847
 Red. masses --      1.0206
 Frc consts  --      0.0066
 IR Inten    --      0.6996

 - Thermochemistry -
 -------------------
 Temperature   298.150 Kelvin.  Pressure   1.00000 Atm.
 Atom     1 has atomic number  1 and mass   1.00783

 Molecular mass:    21.01405 amu.
 Principal axes and moments of inertia in atomic units:
                           1         2         3
     Eigenvalues --     0.00000 194.28018 194.28018
           X            1.00000  -0.00000   0.00000
           Y            0.00000   1.00000   0.00000
           Z            0.00000   0.00000   1.00000
 This molecule is a prolate symmetric top.
 Rotational symmetry number  1.
 Rotational temperature (Kelvin)      0.44582
 Rotational constant (GHZ):           9.289374
    2 imaginary frequencies ignored.
 Zero-point vibrational energy       1251.1 (Joules/Mol)
                                    0.29902 (Kcal/Mol)
 Warning -- explicit consideration of   2 degrees of freedom as
           vibrations may cause significant error
 Vibrational temperatures:    150.47   150.47
          (Kelvin)

 Zero-point correction=                           0.000477 (Hartree/Particle)
 Thermal correction to Energy=                    0.004289
 Thermal correction to Enthalpy=                  0.005233
 Thermal correction to Gibbs Free Energy=        -0.022370
 Sum of electronic and zero-point Energies=           -100.759534
 Sum of electronic and thermal Energies=              -100.755722
 Sum of electronic and thermal Enthalpies=            -100.754777
 Sum of electronic and thermal Free Energies=         -100.782380

                     E (Thermal)             CV                S
                      KCal/Mol        Cal/Mol-Kelvin    Cal/Mol-Kelvin
 Total                    2.691              8.859             58.094
 Electronic               0.000              0.000              1.377
 Translational            0.889              2.981             35.068
 Rotational               0.592              1.987             14.915
 Vibrational              1.210              3.891              6.734
 Vibration     1          0.605              1.946              3.367
 Vibration     2          0.605              1.946              3.367

 Normal termination of Gaussian 16 at Fri Aug 22 20:12:10 2025.
