 Gaussian 16, Revision C.01,
 Gaussian 16:  ES64L-G16RevC.01  3-Jul-2019

 -----------------------------------------
 # sp b3lyp/6-311g** Force nosymm scf=(qc)
 -----------------------------------------

 -------------------
 Title Card Required
 -------------------
 Symbolic Z-matrix:
 Charge =  0 Multiplicity = 2

                          Input orientation:
 ---------------------------------------------------------------------
 Center     Atomic      Atomic             Coordinates (Angstroms)
 Number     Number       Type             X           Y           Z
 ---------------------------------------------------------------------
      1          1           0        0.000000    0.000000    0.000000
      2          1           0       -2.300000    0.000000    0.000000
      3          9           0        2.900000    0.000000    0.000000
 ---------------------------------------------------------------------

 SCF Done:  E(UB3LYP) =  -100.768378170     a.u. after   22 cycles

 Alpha  occ. eigenvalues --  -24.73808  -1.19882  -0.52923  -0.44437  -0.44437
 Alpha  occ. eigenvalues --   -0.33441
 Alpha virt. eigenvalues --   -0.11284   0.25403   0.32950   0.89923   0.92447
 Alpha virt. eigenvalues --    0.92447   1.04593   1.24321   1.24321   1.25257
 Alpha virt. eigenvalues --    1.38331   1.38331   1.42458   2.14113   2.35271

  Beta  occ. eigenvalues --  -24.70803  -1.11276  -0.41430  -0.41430  -0.34045
  Beta virt. eigenvalues --   -0.24646  -0.10118   0.25852   0.33970   0.93901
  Beta virt. eigenvalues --    0.93901   0.98552   1.08484   1.23578   1.23578
  Beta virt. eigenvalues --    1.24535   1.40232   1.40232   1.44141   2.15223

 Mulliken charges and spin densities:
               1          2
     1  H    0.032533  -0.898570
     2  H    0.010232   0.946572
     3  F   -0.042765   0.951998
 Sum of Mulliken charges =  -0.00000   1.00000

 Dipole moment (field-independent basis, Debye):
    X=             -0.7482    Y=             -0.0000    Z=              0.0000  Tot=              0.7482
 Quadrupole moment (field-independent basis, Debye-Ang):
   XX=             -7.9264   YY=             -7.6661   ZZ=             -7.6661
   XY=             -0.0000   XZ=             -0.0000   YZ=              0.0000

  Exact polarizability:      50.659      -0.000       2.009      -0.000      -0.000       2.009
 Approx polarizability:      46.114      -0.000       1.921      -0.000      -0.000       1.921

 ******    2 imaginary frequencies (negative Signs) ******

                      1                      2                      3
                      A                      A                      A
 Frequencies --   -918.9966              -265.9949               351.1251
 Red. masses --      1.0089                 1.1072                 1.0154
 Frc consts  --      0.5020                 0.0462                 0.0738
 IR Inten    --     26.5606                27.7571                 0.7239

                      4
                      A
 Frequencies --    351.1251
 Red. masses --      1.0154
 Frc consts  --      0.0738
 IR Inten    --      0.7239

 - Thermochemistry -
 -------------------
 Temperature   298.150 Kelvin.  Pressure   1.00000 Atm.
 Atom     1 has atomic number  1 and mass   1.00783

 Molecular mass:    21.01405 amu.
 Principal axes and moments of inertia in atomic units:
                           1         2         3
     Eigenvalues --     0.00000 116.26011 116.26011
           X            1.00000  -0.00000   0.00000
           Y            0.00000   1.00000   0.00000
           Z            0.00000   0.00000   1.00000
 This molecule is a prolate symmetric top.
 Rotational symmetry number  1.
 Rotational temperature (Kelvin)      0.74500
 Rotational constant (GHZ):          15.523305
    2 imaginary frequencies ignored.
 Zero-point vibrational energy       4200.4 (Joules/Mol)
                                    1.00392 (Kcal/Mol)
 Warning -- explicit consideration of   2 degrees of freedom as
           vibrations may cause significant error
 Vibrational temperatures:    505.19   505.19
          (Kelvin)

 Zero-point correction=                           0.001600 (Hartree/Particle)
 Thermal correction to Energy=                    0.004680
 Thermal correction to Enthalpy=                  0.005625
 Thermal correction to Gibbs Free Energy=        -0.019397
 Sum of electronic and zero-point Energies=           -100.766778
 Sum of electronic and thermal Energies=              -100.763698
 Sum of electronic and thermal Enthalpies=            -100.762754
 Sum of electronic and thermal Free Energies=         -100.787775

                     E (Thermal)             CV                S
                      KCal/Mol        Cal/Mol-Kelvin    Cal/Mol-Kelvin
 Total                    2.937              8.114             52.662
 Electronic               0.000              0.000              1.377
 Translational            0.889              2.981             35.068
 Rotational               0.592              1.987             13.894
 Vibrational              1.456              3.146              2.322
 Vibration     1          0.728              1.573              1.161
 Vibration     2          0.728              1.573              1.161

 Normal termination of Gaussian 16 at Fri Aug 22 19:03:29 2025.
