 Gaussian 16, Revision C.01,
 Gaussian 16:  ES64L-G16RevC.01  3-Jul-2019

 -----------------------------------------
 # sp b3lyp/6-311g** Force nosymm scf=(qc)
 -----------------------------------------

 -------------------
 Title Card Required
 -------------------
 Symbolic Z-matrix:
 Charge =  0 Multiplicity = 2

                          Input orientation:
 ---------------------------------------------------------------------
 Center     Atomic      Atomic             Coordinates (Angstroms)
 Number     Number       Type             X           Y           Z
 ---------------------------------------------------------------------
      1          1           0        0.000000    0.000000    0.000000
      2          1           0       -2.700000    0.000000    0.000000
      3          9           0        2.200000    0.000000    0.000000
 ---------------------------------------------------------------------

 SCF Done:  E(UB3LYP) =  -100.778631019     a.u. after   19 cycles

 Alpha  occ. eigenvalues --  -24.69736  -1.16038  -0.48791  -0.41024  -0.41024
 Alpha  occ. eigenvalues --   -0.34019
 Alpha virt. eigenvalues --   -0.12785   0.24045   0.32528   0.88896   0.94533
 Alpha virt. eigenvalues --    0.94533   1.06417   1.23573   1.23573   1.25522
 Alpha virt. eigenvalues --    1.36913   1.36913   1.51353   2.14604   2.31310

  Beta  occ. eigenvalues --  -24.67112  -1.08635  -0.38423  -0.38423  -0.36692
  Beta virt. eigenvalues --   -0.21988  -0.09034   0.24904   0.35542   0.92546
  Beta virt. eigenvalues --    0.95621   0.95621   1.08706   1.21698   1.21698
  Beta virt. eigenvalues --    1.40876   1.42788   1.42788   1.44926   2.13230

 Mulliken charges and spin densities:
               1          2
     1  H    0.133977  -0.809075
     2  H    0.009401   0.982659
     3  F   -0.143377   0.826416
 Sum of Mulliken charges =   0.00000   1.00000

 Dipole moment (field-independent basis, Debye):
    X=             -1.7024    Y=             -0.0000    Z=              0.0000  Tot=              1.7024
 Quadrupole moment (field-independent basis, Debye-Ang):
   XX=             -9.4197   YY=             -7.5530   ZZ=             -7.5530
   XY=             -0.0000   XZ=              0.0000   YZ=              0.0000

  Exact polarizability:      36.046      -0.000       2.035       0.000      -0.000       2.035
 Approx polarizability:      43.795      -0.000       1.928       0.000      -0.000       1.928

 ******    2 imaginary frequencies (negative Signs) ******

                      1                      2                      3
                      A                      A                      A
 Frequencies --   -930.5373              -311.7610               385.1964
 Red. masses --      1.0433                 1.0686                 1.0206
 Frc consts  --      0.5322                 0.0612                 0.0892
 IR Inten    --     90.5276                 9.0395                15.5866

                      4
                      A
 Frequencies --    385.1964
 Red. masses --      1.0206
 Frc consts  --      0.0892
 IR Inten    --     15.5866

 - Thermochemistry -
 -------------------
 Temperature   298.150 Kelvin.  Pressure   1.00000 Atm.
 Atom     1 has atomic number  1 and mass   1.00783

 Molecular mass:    21.01405 amu.
 Principal axes and moments of inertia in atomic units:
                           1         2         3
     Eigenvalues --     0.00000  95.13028  95.13028
           X            1.00000  -0.00000   0.00000
           Y            0.00000   1.00000   0.00000
           Z            0.00000   0.00000   1.00000
 This molecule is a prolate symmetric top.
 Rotational symmetry number  1.
 Rotational temperature (Kelvin)      0.91048
 Rotational constant (GHZ):          18.971259
    2 imaginary frequencies ignored.
 Zero-point vibrational energy       4608.0 (Joules/Mol)
                                    1.10133 (Kcal/Mol)
 Warning -- explicit consideration of   2 degrees of freedom as
           vibrations may cause significant error
 Vibrational temperatures:    554.21   554.21
          (Kelvin)

 Zero-point correction=                           0.001755 (Hartree/Particle)
 Thermal correction to Energy=                    0.004764
 Thermal correction to Enthalpy=                  0.005708
 Thermal correction to Gibbs Free Energy=        -0.018989
 Sum of electronic and zero-point Energies=           -100.776876
 Sum of electronic and thermal Energies=              -100.773867
 Sum of electronic and thermal Enthalpies=            -100.772923
 Sum of electronic and thermal Free Energies=         -100.797620

                     E (Thermal)             CV                S
                      KCal/Mol        Cal/Mol-Kelvin    Cal/Mol-Kelvin
 Total                    2.989              7.972             51.979
 Electronic               0.000              0.000              1.377
 Translational            0.889              2.981             35.068
 Rotational               0.592              1.987             13.496
 Vibrational              1.508              3.004              2.037
 Vibration     1          0.754              1.502              1.019
 Vibration     2          0.754              1.502              1.019

 Normal termination of Gaussian 16 at Fri Aug 22 17:12:18 2025.
