 Gaussian 16, Revision C.01,
 Gaussian 16:  ES64L-G16RevC.01  3-Jul-2019

 -----------------------------------------
 # sp b3lyp/6-311g** Force nosymm scf=(qc)
 -----------------------------------------

 -------------------
 Title Card Required
 -------------------
 Symbolic Z-matrix:
 Charge =  0 Multiplicity = 2

                          Input orientation:
 ---------------------------------------------------------------------
 Center     Atomic      Atomic             Coordinates (Angstroms)
 Number     Number       Type             X           Y           Z
 ---------------------------------------------------------------------
      1          1           0        0.000000    0.000000    0.000000
      2          1           0       -1.900000    0.000000    0.000000
      3          9           0        2.600000    0.000000    0.000000
 ---------------------------------------------------------------------

 SCF Done:  E(UB3LYP) =  -100.785060705     a.u. after   23 cycles

 Alpha  occ. eigenvalues --  -24.72608  -1.18760  -0.51725  -0.43427  -0.43427
 Alpha  occ. eigenvalues --   -0.34764
 Alpha virt. eigenvalues --   -0.12524   0.24859   0.31580   0.90096   0.93144
 Alpha virt. eigenvalues --    0.93144   1.05236   1.16122   1.23103   1.23103
 Alpha virt. eigenvalues --    1.35280   1.35280   1.53751   2.11820   2.36862

  Beta  occ. eigenvalues --  -24.69699  -1.10457  -0.40523  -0.40523  -0.34837
  Beta virt. eigenvalues --   -0.24076  -0.11706   0.26442   0.31422   0.94550
  Beta virt. eigenvalues --    0.94550   0.97476   1.08129   1.18426   1.23108
  Beta virt. eigenvalues --    1.23108   1.36503   1.36503   1.54499   2.12774

 Mulliken charges and spin densities:
               1          2
     1  H    0.039815  -0.737056
     2  H    0.029234   0.816870
     3  F   -0.069049   0.920186
 Sum of Mulliken charges =  -0.00000   1.00000

 Dipole moment (field-independent basis, Debye):
    X=             -1.1821    Y=             -0.0000    Z=              0.0000  Tot=              1.1821
 Quadrupole moment (field-independent basis, Debye-Ang):
   XX=             -7.8135   YY=             -7.6857   ZZ=             -7.6857
   XY=             -0.0000   XZ=              0.0000   YZ=              0.0000

  Exact polarizability:      62.166      -0.000       2.008      -0.000      -0.000       2.008
 Approx polarizability:      67.540       0.000       1.938       0.000      -0.000       1.938

 ******    2 imaginary frequencies (negative Signs) ******

                      1                      2                      3
                      A                      A                      A
 Frequencies --  -1565.0914              -352.9927               649.4838
 Red. masses --      1.0085                 1.1077                 1.0146
 Frc consts  --      1.4554                 0.0813                 0.2522
 IR Inten    --     98.1577                48.1926                 0.6465

                      4
                      A
 Frequencies --    649.4838
 Red. masses --      1.0146
 Frc consts  --      0.2522
 IR Inten    --      0.6465

 - Thermochemistry -
 -------------------
 Temperature   298.150 Kelvin.  Pressure   1.00000 Atm.
 Atom     1 has atomic number  1 and mass   1.00783

 Molecular mass:    21.01405 amu.
 Principal axes and moments of inertia in atomic units:
                           1         2         3
     Eigenvalues --     0.00000  88.50811  88.50811
           X            1.00000  -0.00000   0.00000
           Y            0.00000   1.00000   0.00000
           Z            0.00000   0.00000   1.00000
 This molecule is a prolate symmetric top.
 Rotational symmetry number  1.
 Rotational temperature (Kelvin)      0.97860
 Rotational constant (GHZ):          20.390688
    2 imaginary frequencies ignored.
 Zero-point vibrational energy       7769.6 (Joules/Mol)
                                    1.85697 (Kcal/Mol)
 Vibrational temperatures:    934.46   934.46
          (Kelvin)

 Zero-point correction=                           0.002959 (Hartree/Particle)
 Thermal correction to Energy=                    0.005589
 Thermal correction to Enthalpy=                  0.006533
 Thermal correction to Gibbs Free Energy=        -0.017481
 Sum of electronic and zero-point Energies=           -100.782101
 Sum of electronic and thermal Energies=              -100.779472
 Sum of electronic and thermal Enthalpies=            -100.778527
 Sum of electronic and thermal Free Energies=         -100.802541

                     E (Thermal)             CV                S
                      KCal/Mol        Cal/Mol-Kelvin    Cal/Mol-Kelvin
 Total                    3.507              6.826             50.542
 Electronic               0.000              0.000              1.377
 Translational            0.889              2.981             35.068
 Rotational               0.592              1.987             13.352
 Vibrational              2.026              1.858              0.744

 Normal termination of Gaussian 16 at Fri Aug 22 18:03:37 2025.
