 Gaussian 16, Revision C.01,
 Gaussian 16:  ES64L-G16RevC.01  3-Jul-2019

 -----------------------------------------
 # sp b3lyp/6-311g** Force nosymm scf=(qc)
 -----------------------------------------

 -------------------
 Title Card Required
 -------------------
 Symbolic Z-matrix:
 Charge =  0 Multiplicity = 2

                          Input orientation:
 ---------------------------------------------------------------------
 Center     Atomic      Atomic             Coordinates (Angstroms)
 Number     Number       Type             X           Y           Z
 ---------------------------------------------------------------------
      1          1           0        0.000000    0.000000    0.000000
      2          1           0       -0.900000    0.000000    0.000000
      3          9           0        1.150000    0.000000    0.000000
 ---------------------------------------------------------------------

 SCF Done:  E(UB3LYP) =  -100.950214876     a.u. after    7 cycles

 Alpha  occ. eigenvalues --  -24.66345  -1.16233  -0.57702  -0.39841  -0.39841
 Alpha  occ. eigenvalues --   -0.37686
 Alpha virt. eigenvalues --    0.10496   0.18926   0.42192   0.88767   0.88767
 Alpha virt. eigenvalues --    0.97481   1.08140   1.08140   1.40916   1.64210
 Alpha virt. eigenvalues --    1.68144   1.68144   2.20411   2.29495   2.85257

  Beta  occ. eigenvalues --  -24.64765  -1.12182  -0.50205  -0.38383  -0.38383
  Beta virt. eigenvalues --   -0.20522   0.12642   0.20675   0.46881   0.90271
  Beta virt. eigenvalues --    0.90271   1.00878   1.12626   1.12626   1.44317
  Beta virt. eigenvalues --    1.70081   1.71657   1.71657   2.19825   2.39445

 Mulliken charges and spin densities:
               1          2
     1  H    0.262391  -0.044434
     2  H    0.017310   0.603573
     3  F   -0.279701   0.440861
 Sum of Mulliken charges =   0.00000   1.00000

 Dipole moment (field-independent basis, Debye):
    X=             -1.9016    Y=              0.0000    Z=              0.0000  Tot=              1.9016
 Quadrupole moment (field-independent basis, Debye-Ang):
   XX=             -7.5546   YY=             -6.7294   ZZ=             -6.7294
   XY=              0.0000   XZ=              0.0000   YZ=              0.0000

  Exact polarizability:      18.404      -0.000       2.524      -0.000      -0.000       2.524
 Approx polarizability:      24.039      -0.000       2.545      -0.000      -0.000       2.545

 ******    1 imaginary frequencies (negative Signs) ******

                      1                      2                      3
                      A                      A                      A
 Frequencies --  -1179.7736               386.2049               386.2049
 Red. masses --      1.0587                 1.0152                 1.0152
 Frc consts  --      0.8682                 0.0892                 0.0892
 IR Inten    --    163.5795                24.5180                24.5180

                      4
                      A
 Frequencies --   1791.8700
 Red. masses --      1.0528
 Frc consts  --      1.9917
 IR Inten    --    178.2433

 - Thermochemistry -
 -------------------
 Temperature   298.150 Kelvin.  Pressure   1.00000 Atm.
 Atom     1 has atomic number  1 and mass   1.00783

 Molecular mass:    21.01405 amu.
 Principal axes and moments of inertia in atomic units:
                           1         2         3
     Eigenvalues --     0.00000  18.11703  18.11703
           X            1.00000  -0.00000   0.00000
           Y            0.00000   1.00000   0.00000
           Z            0.00000   0.00000   1.00000
 This molecule is a prolate symmetric top.
 Rotational symmetry number  1.
 Rotational temperature (Kelvin)      4.78080
 Rotational constant (GHZ):          99.615746
    1 imaginary frequencies ignored.
 Zero-point vibrational energy      15337.8 (Joules/Mol)
                                    3.66582 (Kcal/Mol)
 Warning -- explicit consideration of   2 degrees of freedom as
           vibrations may cause significant error
 Vibrational temperatures:    555.66   555.66  2578.10
          (Kelvin)

 Zero-point correction=                           0.005842 (Hartree/Particle)
 Thermal correction to Energy=                    0.008850
 Thermal correction to Enthalpy=                  0.009794
 Thermal correction to Gibbs Free Energy=        -0.013335
 Sum of electronic and zero-point Energies=           -100.944373
 Sum of electronic and thermal Energies=              -100.941365
 Sum of electronic and thermal Enthalpies=            -100.940421
 Sum of electronic and thermal Free Energies=         -100.963550

                     E (Thermal)             CV                S
                      KCal/Mol        Cal/Mol-Kelvin    Cal/Mol-Kelvin
 Total                    5.553              7.993             48.679
 Electronic               0.000              0.000              1.377
 Translational            0.889              2.981             35.068
 Rotational               0.592              1.987             10.200
 Vibrational              4.072              3.025              2.033
 Vibration     1          0.755              1.500              1.015
 Vibration     2          0.755              1.500              1.015

 Normal termination of Gaussian 16 at Fri Aug 22 16:06:57 2025.
