 Gaussian 16, Revision C.01,
 Gaussian 16:  ES64L-G16RevC.01  3-Jul-2019

 -----------------------------------------
 # sp b3lyp/6-311g** Force nosymm scf=(qc)
 -----------------------------------------

 -------------------
 Title Card Required
 -------------------
 Symbolic Z-matrix:
 Charge =  0 Multiplicity = 2

                          Input orientation:
 ---------------------------------------------------------------------
 Center     Atomic      Atomic             Coordinates (Angstroms)
 Number     Number       Type             X           Y           Z
 ---------------------------------------------------------------------
      1          1           0        0.000000    0.000000    0.000000
      2          1           0       -2.300000    0.000000    0.000000
      3          9           0        1.000000    0.000000    0.000000
 ---------------------------------------------------------------------

 SCF Done:  E(UB3LYP) =  -100.966749174     a.u. after    6 cycles

 Alpha  occ. eigenvalues --  -24.63975  -1.15896  -0.51612  -0.38626  -0.38626
 Alpha  occ. eigenvalues --   -0.35416
 Alpha virt. eigenvalues --    0.02396   0.24901   0.34293   0.94203   0.94203
 Alpha virt. eigenvalues --    0.98451   1.17639   1.22119   1.22119   1.36119
 Alpha virt. eigenvalues --    1.36119   1.42174   1.90118   2.13424   2.34630

  Beta  occ. eigenvalues --  -24.63938  -1.15802  -0.51432  -0.38594  -0.38594
  Beta virt. eigenvalues --   -0.10970   0.04418   0.34029   0.36544   0.94206
  Beta virt. eigenvalues --    0.94206   0.98657   1.27011   1.36013   1.36013
  Beta virt. eigenvalues --    1.42942   1.42942   1.52895   1.90199   2.33376

 Mulliken charges and spin densities:
               1          2
     1  H    0.312038   0.003757
     2  H    0.010229   0.985314
     3  F   -0.322268   0.010929
 Sum of Mulliken charges =   0.00000   1.00000

 Dipole moment (field-independent basis, Debye):
    X=             -2.1514    Y=             -0.0000    Z=              0.0000  Tot=              2.1514
 Quadrupole moment (field-independent basis, Debye-Ang):
   XX=             -7.9019   YY=             -6.9467   ZZ=             -6.9467
   XY=             -0.0000   XZ=              0.0000   YZ=             -0.0000

  Exact polarizability:       9.547       0.000       2.437      -0.000       0.000       2.437
 Approx polarizability:      10.705      -0.000       2.415      -0.000       0.000       2.415

 ******    1 imaginary frequencies (negative Signs) ******

                      1                      2                      3
                      A                      A                      A
 Frequencies --    -73.2547               956.7062               956.7062
 Red. masses --      1.0526                 1.0303                 1.0303
 Frc consts  --      0.0033                 0.5556                 0.5556
 IR Inten    --      1.7675               147.9523               147.9523

                      4
                      A
 Frequencies --   3003.4315
 Red. masses --      1.0590
 Frc consts  --      5.6281
 IR Inten    --    144.9875

 - Thermochemistry -
 -------------------
 Temperature   298.150 Kelvin.  Pressure   1.00000 Atm.
 Atom     1 has atomic number  1 and mass   1.00783

 Molecular mass:    21.01405 amu.
 Principal axes and moments of inertia in atomic units:
                           1         2         3
     Eigenvalues --     0.00000  39.60071  39.60071
           X            1.00000  -0.00000   0.00000
           Y            0.00000   1.00000   0.00000
           Z            0.00000   0.00000   1.00000
 This molecule is a prolate symmetric top.
 Rotational symmetry number  1.
 Rotational temperature (Kelvin)      2.18718
 Rotational constant (GHZ):          45.573456
    1 imaginary frequencies ignored.
 Zero-point vibrational energy      29409.3 (Joules/Mol)
                                    7.02898 (Kcal/Mol)
 Vibrational temperatures:   1376.49  1376.49  4321.27
          (Kelvin)

 Zero-point correction=                           0.011201 (Hartree/Particle)
 Thermal correction to Energy=                    0.013649
 Thermal correction to Enthalpy=                  0.014593
 Thermal correction to Gibbs Free Energy=        -0.008414
 Sum of electronic and zero-point Energies=           -100.955548
 Sum of electronic and thermal Energies=              -100.953100
 Sum of electronic and thermal Enthalpies=            -100.952156
 Sum of electronic and thermal Free Energies=         -100.975163

                     E (Thermal)             CV                S
                      KCal/Mol        Cal/Mol-Kelvin    Cal/Mol-Kelvin
 Total                    8.565              5.822             48.422
 Electronic               0.000              0.000              1.377
 Translational            0.889              2.981             35.068
 Rotational               0.592              1.987             11.754
 Vibrational              7.084              0.854              0.223

 Normal termination of Gaussian 16 at Fri Aug 22 16:00:45 2025.
