 Gaussian 16, Revision C.01,
 Gaussian 16:  ES64L-G16RevC.01  3-Jul-2019

 -----------------------------------------
 # sp b3lyp/6-311g** Force nosymm scf=(qc)
 -----------------------------------------

 -------------------
 Title Card Required
 -------------------
 Symbolic Z-matrix:
 Charge =  0 Multiplicity = 2

                          Input orientation:
 ---------------------------------------------------------------------
 Center     Atomic      Atomic             Coordinates (Angstroms)
 Number     Number       Type             X           Y           Z
 ---------------------------------------------------------------------
      1          1           0        0.000000    0.000000    0.000000
      2          1           0       -2.300000    0.000000    0.000000
      3          9           0        3.800000    0.000000    0.000000
 ---------------------------------------------------------------------

 SCF Done:  E(UB3LYP) =  -100.765471962     a.u. after   37 cycles

 Alpha  occ. eigenvalues --  -24.75821  -1.21753  -0.54946  -0.46136  -0.46136
 Alpha  occ. eigenvalues --   -0.32691
 Alpha virt. eigenvalues --   -0.09943   0.25937   0.33972   0.86832   0.91201
 Alpha virt. eigenvalues --    0.91201   1.01216   1.25075   1.25075   1.25374
 Alpha virt. eigenvalues --    1.40294   1.40294   1.44176   2.14901   2.35594

  Beta  occ. eigenvalues --  -24.72682  -1.12726  -0.42989  -0.42989  -0.32820
  Beta virt. eigenvalues --   -0.25723  -0.09716   0.25775   0.34308   0.92698
  Beta virt. eigenvalues --    0.92698   0.96158   1.05326   1.24928   1.24928
  Beta virt. eigenvalues --    1.25233   1.40619   1.40619   1.44464   2.15140

 Mulliken charges and spin densities:
               1          2
     1  H    0.002007  -0.940131
     2  H    0.001955   0.944686
     3  F   -0.003961   0.995444
 Sum of Mulliken charges =   0.00000   1.00000

 Dipole moment (field-independent basis, Debye):
    X=             -0.0986    Y=              0.0000    Z=              0.0000  Tot=              0.0986
 Quadrupole moment (field-independent basis, Debye-Ang):
   XX=             -6.6636   YY=             -7.6876   ZZ=             -7.6876
   XY=              0.0000   XZ=             -0.0000   YZ=              0.0000

  Exact polarizability:      27.695       0.000       2.015      -0.000      -0.000       2.015
 Approx polarizability:      21.654       0.000       1.931      -0.000      -0.000       1.931

 ******    2 imaginary frequencies (negative Signs) ******

                      1                      2                      3
                      A                      A                      A
 Frequencies --   -882.8531               -93.7836               336.5792
 Red. masses --      1.0078                 1.1085                 1.0130
 Frc consts  --      0.4628                 0.0057                 0.0676
 IR Inten    --      1.6211                 1.7786                 0.0015

                      4
                      A
 Frequencies --    336.5792
 Red. masses --      1.0130
 Frc consts  --      0.0676
 IR Inten    --      0.0015

 - Thermochemistry -
 -------------------
 Temperature   298.150 Kelvin.  Pressure   1.00000 Atm.
 Atom     1 has atomic number  1 and mass   1.00783

 Molecular mass:    21.01405 amu.
 Principal axes and moments of inertia in atomic units:
                           1         2         3
     Eigenvalues --     0.00000 168.97159 168.97159
           X            1.00000  -0.00000   0.00000
           Y            0.00000   1.00000   0.00000
           Z            0.00000   0.00000   1.00000
 This molecule is a prolate symmetric top.
 Rotational symmetry number  1.
 Rotational temperature (Kelvin)      0.51259
 Rotational constant (GHZ):          10.680738
    2 imaginary frequencies ignored.
 Zero-point vibrational energy       4026.4 (Joules/Mol)
                                    0.96233 (Kcal/Mol)
 Warning -- explicit consideration of   2 degrees of freedom as
           vibrations may cause significant error
 Vibrational temperatures:    484.26   484.26
          (Kelvin)

 Zero-point correction=                           0.001534 (Hartree/Particle)
 Thermal correction to Energy=                    0.004647
 Thermal correction to Enthalpy=                  0.005591
 Thermal correction to Gibbs Free Energy=        -0.019847
 Sum of electronic and zero-point Energies=           -100.763938
 Sum of electronic and thermal Energies=              -100.760825
 Sum of electronic and thermal Enthalpies=            -100.759881
 Sum of electronic and thermal Free Energies=         -100.785319

                     E (Thermal)             CV                S
                      KCal/Mol        Cal/Mol-Kelvin    Cal/Mol-Kelvin
 Total                    2.916              8.173             53.540
 Electronic               0.000              0.000              1.377
 Translational            0.889              2.981             35.068
 Rotational               0.592              1.987             14.637
 Vibrational              1.435              3.205              2.457
 Vibration     1          0.717              1.602              1.228
 Vibration     2          0.717              1.602              1.228

 Normal termination of Gaussian 16 at Sat Aug 23 00:50:01 2025.
