 Gaussian 16, Revision C.01,
 Gaussian 16:  ES64L-G16RevC.01  3-Jul-2019

 -----------------------------------------
 # sp b3lyp/6-311g** Force nosymm scf=(qc)
 -----------------------------------------

 -------------------
 Title Card Required
 -------------------
 Symbolic Z-matrix:
 Charge =  0 Multiplicity = 2

                          Input orientation:
 ---------------------------------------------------------------------
 Center     Atomic      Atomic             Coordinates (Angstroms)
 Number     Number       Type             X           Y           Z
 ---------------------------------------------------------------------
      1          1           0        0.000000    0.000000    0.000000
      2          1           0       -1.350000    0.000000    0.000000
      3          9           0        3.150000    0.000000    0.000000
 ---------------------------------------------------------------------

 SCF Done:  E(UB3LYP) =  -100.845464523     a.u. after  143 cycles

 Alpha  occ. eigenvalues --  -24.76593  -1.22434  -0.55626  -0.46854  -0.46778
 Alpha  occ. eigenvalues --   -0.34716
 Alpha virt. eigenvalues --   -0.07030   0.24000   0.32115   0.85810   0.90684
 Alpha virt. eigenvalues --    0.92948   1.02578   1.13103   1.16733   1.16738
 Alpha virt. eigenvalues --    1.47302   1.47307   1.94861   2.27562   2.52185

  Beta  occ. eigenvalues --  -24.73433  -1.13351  -0.43691  -0.43610  -0.34709
  Beta virt. eigenvalues --   -0.26258  -0.07020   0.24016   0.32172   0.92183
  Beta virt. eigenvalues --    0.94538   0.95270   1.06555   1.13115   1.16732
  Beta virt. eigenvalues --    1.16737   1.47301   1.47307   1.94870   2.27564

 Mulliken charges and spin densities:
               1          2
     1  H   -0.000493   0.000290
     2  H   -0.005358  -0.001044
     3  F    0.005851   1.000754
 Sum of Mulliken charges =   0.00000   1.00000

 Dipole moment (field-independent basis, Debye):
    X=              0.0877    Y=              0.0000    Z=              0.0000  Tot=              0.0877
 Quadrupole moment (field-independent basis, Debye-Ang):
   XX=             -6.1786   YY=             -7.2117   ZZ=             -7.2124
   XY=             -0.0000   XZ=             -0.0000   YZ=              0.4319

  Exact polarizability:      19.670      -0.000       2.299      -0.000       0.231       2.298
 Approx polarizability:      32.943      -0.000       2.369      -0.000       0.290       2.368

 ******    1 imaginary frequencies (negative Signs) ******

                      1                      2                      3
                      A                      A                      A
 Frequencies --  -1086.5273                39.9206              1351.6204
 Red. masses --      1.0078                 1.1085                 1.0109
 Frc consts  --      0.7010                 0.0010                 1.0881
 IR Inten    --      0.6719                 0.4421                 0.0029

                      4
                      A
 Frequencies --   1351.7295
 Red. masses --      1.0109
 Frc consts  --      1.0883
 IR Inten    --      0.0031

 - Thermochemistry -
 -------------------
 Temperature   298.150 Kelvin.  Pressure   1.00000 Atm.
 Atom     1 has atomic number  1 and mass   1.00783

 Molecular mass:    21.01405 amu.
 Principal axes and moments of inertia in atomic units:
                           1         2         3
     Eigenvalues --     0.00000  98.48970  98.48970
           X            1.00000  -0.00000   0.00000
           Y            0.00000   1.00000   0.00000
           Z            0.00000   0.00000   1.00000
 This molecule is a prolate symmetric top.
 Rotational symmetry number  1.
 Rotational temperature (Kelvin)      0.87942
 Rotational constant (GHZ):          18.324162
    1 imaginary frequencies ignored.
 Zero-point vibrational energy      16408.4 (Joules/Mol)
                                    3.92170 (Kcal/Mol)
 Warning -- explicit consideration of   1 degrees of freedom as
           vibrations may cause significant error
 Vibrational temperatures:     57.44  1944.68  1944.84
          (Kelvin)

 Zero-point correction=                           0.006250 (Hartree/Particle)
 Thermal correction to Energy=                    0.009484
 Thermal correction to Enthalpy=                  0.010429
 Thermal correction to Gibbs Free Energy=        -0.015854
 Sum of electronic and zero-point Energies=           -100.839215
 Sum of electronic and thermal Energies=              -100.835980
 Sum of electronic and thermal Enthalpies=            -100.835036
 Sum of electronic and thermal Free Energies=         -100.861319

                     E (Thermal)             CV                S
                      KCal/Mol        Cal/Mol-Kelvin    Cal/Mol-Kelvin
 Total                    5.952              7.198             55.317
 Electronic               0.000              0.000              1.377
 Translational            0.889              2.981             35.068
 Rotational               0.592              1.987             13.565
 Vibrational              4.470              2.230              5.307
 Vibration     1          0.594              1.981              5.263

 Normal termination of Gaussian 16 at Fri Aug 22 20:06:40 2025.
