 Gaussian 16, Revision C.01,
 Gaussian 16:  ES64L-G16RevC.01  3-Jul-2019

 -----------------------------------------
 # sp b3lyp/6-311g** Force nosymm scf=(qc)
 -----------------------------------------

 -------------------
 Title Card Required
 -------------------
 Symbolic Z-matrix:
 Charge =  0 Multiplicity = 2

                          Input orientation:
 ---------------------------------------------------------------------
 Center     Atomic      Atomic             Coordinates (Angstroms)
 Number     Number       Type             X           Y           Z
 ---------------------------------------------------------------------
      1          1           0        0.000000    0.000000    0.000000
      2          1           0       -0.850000    0.000000    0.000000
      3          9           0        3.300000    0.000000    0.000000
 ---------------------------------------------------------------------

 SCF Done:  E(UB3LYP) =  -100.928124017     a.u. after  180 cycles

 Alpha  occ. eigenvalues --  -24.76457  -1.22298  -0.55495  -0.46709  -0.46647
 Alpha  occ. eigenvalues --   -0.41194
 Alpha virt. eigenvalues --    0.03808   0.20477   0.43166   0.85933   0.90808
 Alpha virt. eigenvalues --    0.93233   1.02778   1.08297   1.08301   1.49178
 Alpha virt. eigenvalues --    1.75638   1.75643   2.12588   2.38130   2.87679

  Beta  occ. eigenvalues --  -24.73298  -1.13216  -0.43562  -0.43480  -0.41171
  Beta virt. eigenvalues --   -0.26128   0.03828   0.20493   0.43235   0.92307
  Beta virt. eigenvalues --    0.94831   0.95394   1.06731   1.08296   1.08300
  Beta virt. eigenvalues --    1.49187   1.75637   1.75642   2.12607   2.38134

 Mulliken charges and spin densities:
               1          2
     1  H   -0.002379  -0.000584
     2  H   -0.003219  -0.000093
     3  F    0.005598   1.000677
 Sum of Mulliken charges =   0.00000   1.00000

 Dipole moment (field-independent basis, Debye):
    X=              0.0649    Y=              0.0000    Z=              0.0000  Tot=              0.0649
 Quadrupole moment (field-independent basis, Debye-Ang):
   XX=             -6.1716   YY=             -7.0747   ZZ=             -6.2422
   XY=             -0.0000   XZ=              0.0000   YZ=             -0.1155

  Exact polarizability:       9.877       0.000       2.015       0.000      -0.062       2.462
 Approx polarizability:      11.866      -0.000       2.086       0.000      -0.078       2.645

 ******    1 imaginary frequencies (negative Signs) ******

                      1                      2                      3
                      A                      A                      A
 Frequencies --    -18.0520              1327.2090              1328.1491
 Red. masses --      1.1085                 1.0091                 1.0091
 Frc consts  --      0.0002                 1.0473                 1.0488
 IR Inten    --      0.2031                 0.0011                 0.0008

                      4
                      A
 Frequencies --   3135.9302
 Red. masses --      1.0078
 Frc consts  --      5.8394
 IR Inten    --      0.1856

 - Thermochemistry -
 -------------------
 Temperature   298.150 Kelvin.  Pressure   1.00000 Atm.
 Atom     1 has atomic number  1 and mass   1.00783

 Molecular mass:    21.01405 amu.
 Principal axes and moments of inertia in atomic units:
                           1         2         3
     Eigenvalues --     0.00000  91.59701  91.59701
           X            1.00000  -0.00000   0.00000
           Y            0.00000   1.00000   0.00000
           Z            0.00000   0.00000   1.00000
 This molecule is a prolate symmetric top.
 Rotational symmetry number  1.
 Rotational temperature (Kelvin)      0.94560
 Rotational constant (GHZ):          19.703058
    1 imaginary frequencies ignored.
 Zero-point vibrational energy      34639.6 (Joules/Mol)
                                    8.27906 (Kcal/Mol)
 Vibrational temperatures:   1909.56  1910.91  4511.90
          (Kelvin)

 Zero-point correction=                           0.013194 (Hartree/Particle)
 Thermal correction to Energy=                    0.015574
 Thermal correction to Enthalpy=                  0.016518
 Thermal correction to Gibbs Free Energy=        -0.007198
 Sum of electronic and zero-point Energies=           -100.914930
 Sum of electronic and thermal Energies=              -100.912550
 Sum of electronic and thermal Enthalpies=            -100.911606
 Sum of electronic and thermal Free Energies=         -100.935322

                     E (Thermal)             CV                S
                      KCal/Mol        Cal/Mol-Kelvin    Cal/Mol-Kelvin
 Total                    9.773              5.238             49.915
 Electronic               0.000              0.000              1.377
 Translational            0.889              2.981             35.068
 Rotational               0.592              1.987             13.421
 Vibrational              8.292              0.270              0.049

 Normal termination of Gaussian 16 at Fri Aug 22 20:39:46 2025.
