 Gaussian 16, Revision C.01,
 Gaussian 16:  ES64L-G16RevC.01  3-Jul-2019

 -----------------------------------------
 # sp b3lyp/6-311g** Force nosymm scf=(qc)
 -----------------------------------------

 -------------------
 Title Card Required
 -------------------
 Symbolic Z-matrix:
 Charge =  0 Multiplicity = 2

                          Input orientation:
 ---------------------------------------------------------------------
 Center     Atomic      Atomic             Coordinates (Angstroms)
 Number     Number       Type             X           Y           Z
 ---------------------------------------------------------------------
      1          1           0        0.000000    0.000000    0.000000
      2          1           0       -1.300000    0.000000    0.000000
      3          9           0        4.000000    0.000000    0.000000
 ---------------------------------------------------------------------

 SCF Done:  E(UB3LYP) =  -100.853616822     a.u. after  142 cycles

 Alpha  occ. eigenvalues --  -24.76204  -1.22108  -0.55312  -0.46485  -0.46469
 Alpha  occ. eigenvalues --   -0.35306
 Alpha virt. eigenvalues --   -0.06195   0.23550   0.32694   0.86052   0.90930
 Alpha virt. eigenvalues --    0.91263   1.00859   1.15351   1.15352   1.15673
 Alpha virt. eigenvalues --    1.49449   1.49450   1.98268   2.28580   2.52504

  Beta  occ. eigenvalues --  -24.73049  -1.13035  -0.43322  -0.43305  -0.35306
  Beta virt. eigenvalues --   -0.25963  -0.06194   0.23552   0.32703   0.92430
  Beta virt. eigenvalues --    0.92758   0.95519   1.05011   1.15351   1.15352
  Beta virt. eigenvalues --    1.15675   1.49449   1.49450   1.98270   2.28580

 Mulliken charges and spin densities:
               1          2
     1  H    0.001042  -0.000028
     2  H   -0.001783  -0.000054
     3  F    0.000741   1.000082
 Sum of Mulliken charges =   0.00000   1.00000

 Dipole moment (field-independent basis, Debye):
    X=              0.0194    Y=              0.0000    Z=             -0.0000  Tot=              0.0194
 Quadrupole moment (field-independent basis, Debye-Ang):
   XX=             -6.3397   YY=             -7.4157   ZZ=             -6.9019
   XY=             -0.0000   XZ=              0.0000   YZ=             -0.3477

  Exact polarizability:      17.889      -0.000       2.169      -0.000      -0.191       2.451
 Approx polarizability:      29.284      -0.000       2.205       0.000      -0.234       2.551

 ******    2 imaginary frequencies (negative Signs) ******

                      1                      2                      3
                      A                      A                      A
 Frequencies --   -971.2658               -62.2417              1393.4533
 Red. masses --      1.0078                 1.1085                 1.0098
 Frc consts  --      0.5602                 0.0025                 1.1552
 IR Inten    --      0.0489                 0.0333                 0.0089

                      4
                      A
 Frequencies --   1397.5139
 Red. masses --      1.0098
 Frc consts  --      1.1619
 IR Inten    --      0.0013

 - Thermochemistry -
 -------------------
 Temperature   298.150 Kelvin.  Pressure   1.00000 Atm.
 Atom     1 has atomic number  1 and mass   1.00783

 Molecular mass:    21.01405 amu.
 Principal axes and moments of inertia in atomic units:
                           1         2         3
     Eigenvalues --     0.00000 143.75151 143.75151
           X            1.00000  -0.00000   0.00000
           Y            0.00000   1.00000   0.00000
           Z            0.00000   0.00000   1.00000
 This molecule is a prolate symmetric top.
 Rotational symmetry number  1.
 Rotational temperature (Kelvin)      0.60253
 Rotational constant (GHZ):          12.554589
    2 imaginary frequencies ignored.
 Zero-point vibrational energy      16693.7 (Joules/Mol)
                                    3.98989 (Kcal/Mol)
 Vibrational temperatures:   2004.87  2010.71
          (Kelvin)

 Zero-point correction=                           0.006358 (Hartree/Particle)
 Thermal correction to Energy=                    0.008734
 Thermal correction to Enthalpy=                  0.009678
 Thermal correction to Gibbs Free Energy=        -0.014458
 Sum of electronic and zero-point Energies=           -100.847259
 Sum of electronic and thermal Energies=              -100.844883
 Sum of electronic and thermal Enthalpies=            -100.843939
 Sum of electronic and thermal Free Energies=         -100.868075

                     E (Thermal)             CV                S
                      KCal/Mol        Cal/Mol-Kelvin    Cal/Mol-Kelvin
 Total                    5.481              5.183             50.798
 Electronic               0.000              0.000              1.377
 Translational            0.889              2.981             35.068
 Rotational               0.592              1.987             14.316
 Vibrational              3.999              0.215              0.037

 Normal termination of Gaussian 16 at Sat Aug 23 01:47:45 2025.
