 Gaussian 16, Revision C.01,
 Gaussian 16:  ES64L-G16RevC.01  3-Jul-2019

 -----------------------------------------
 # sp b3lyp/6-311g** Force nosymm scf=(qc)
 -----------------------------------------

 -------------------
 Title Card Required
 -------------------
 Symbolic Z-matrix:
 Charge =  0 Multiplicity = 2

                          Input orientation:
 ---------------------------------------------------------------------
 Center     Atomic      Atomic             Coordinates (Angstroms)
 Number     Number       Type             X           Y           Z
 ---------------------------------------------------------------------
      1          1           0        0.000000    0.000000    0.000000
      2          1           0       -0.750000    0.000000    0.000000
      3          9           0        0.500000    0.000000    0.000000
 ---------------------------------------------------------------------

 SCF Done:  E(UB3LYP) =  -100.129810570     a.u. after    6 cycles

 Alpha  occ. eigenvalues --  -24.68953  -1.52956  -0.72464  -0.50055  -0.50055
 Alpha  occ. eigenvalues --   -0.28442
 Alpha virt. eigenvalues --    0.16626   0.20699   0.83241   0.83241   0.83586
 Alpha virt. eigenvalues --    0.97516   1.12093   1.12093   1.46859   1.57380
 Alpha virt. eigenvalues --    1.99046   1.99046   2.25864   3.13239   3.71170

  Beta  occ. eigenvalues --  -24.68390  -1.50880  -0.70567  -0.49612  -0.49612
  Beta virt. eigenvalues --   -0.08550   0.17333   0.27871   0.84221   0.84543
  Beta virt. eigenvalues --    0.84543   1.02862   1.19076   1.19076   1.48861
  Beta virt. eigenvalues --    1.63660   2.04729   2.04729   2.35647   3.22929

 Mulliken charges and spin densities:
               1          2
     1  H    0.186164  -0.061795
     2  H   -0.154045   1.039693
     3  F   -0.032119   0.022102
 Sum of Mulliken charges =   0.00000   1.00000

 Dipole moment (field-independent basis, Debye):
    X=             -0.2396    Y=              0.0000    Z=              0.0000  Tot=              0.2396
 Quadrupole moment (field-independent basis, Debye-Ang):
   XX=             -7.4696   YY=             -6.3829   ZZ=             -6.3829
   XY=              0.0000   XZ=              0.0000   YZ=              0.0000

  Exact polarizability:       6.578      -0.000       2.406      -0.000      -0.000       2.406
 Approx polarizability:       6.204      -0.000       2.505      -0.000      -0.000       2.505

 ******    2 imaginary frequencies (negative Signs) ******

                      1                      2                      3
                      A                      A                      A
 Frequencies --  -9356.4134             -9356.4134              3827.7258
 Red. masses --      1.0235                 1.0235                 1.0559
 Frc consts  --     52.7918                52.7918                 9.1149
 IR Inten    --    192.1585               192.1585               362.4971

                      4
                      A
 Frequencies --  19307.4090
 Red. masses --      1.0557
 Frc consts  --    231.8564
 IR Inten    --      4.1132

 - Thermochemistry -
 -------------------
 Temperature   298.150 Kelvin.  Pressure   1.00000 Atm.
 Atom     1 has atomic number  1 and mass   1.00783

 Molecular mass:    21.01405 amu.
 Principal axes and moments of inertia in atomic units:
                           1         2         3
     Eigenvalues --     0.00000   5.99459   5.99459
           X            1.00000  -0.00000   0.00000
           Y            0.00000   1.00000   0.00000
           Z            0.00000   0.00000   1.00000
 This molecule is a prolate symmetric top.
 Rotational symmetry number  1.
 Rotational temperature (Kelvin)     14.44867
 Rotational constant (GHZ):         301.061442
    2 imaginary frequencies ignored.
 Zero-point vibrational energy     138378.8 (Joules/Mol)
                                   33.07334 (Kcal/Mol)
 Vibrational temperatures:   5507.24 27779.06
          (Kelvin)

 Zero-point correction=                           0.052706 (Hartree/Particle)
 Thermal correction to Energy=                    0.055066
 Thermal correction to Enthalpy=                  0.056010
 Thermal correction to Gibbs Free Energy=         0.034892
 Sum of electronic and zero-point Energies=           -100.077105
 Sum of electronic and thermal Energies=              -100.074744
 Sum of electronic and thermal Enthalpies=            -100.073800
 Sum of electronic and thermal Free Energies=         -100.094919

                     E (Thermal)             CV                S
                      KCal/Mol        Cal/Mol-Kelvin    Cal/Mol-Kelvin
 Total                   34.555              4.968             44.448
 Electronic               0.000              0.000              1.377
 Translational            0.889              2.981             35.068
 Rotational               0.592              1.987              8.002
 Vibrational             33.073              0.000              0.000

 Normal termination of Gaussian 16 at Fri Aug 22 15:36:02 2025.
