 Gaussian 16, Revision C.01,
 Gaussian 16:  ES64L-G16RevC.01  3-Jul-2019

 -----------------------------------------
 # sp b3lyp/6-311g** Force nosymm scf=(qc)
 -----------------------------------------

 -------------------
 Title Card Required
 -------------------
 Symbolic Z-matrix:
 Charge =  0 Multiplicity = 2

                          Input orientation:
 ---------------------------------------------------------------------
 Center     Atomic      Atomic             Coordinates (Angstroms)
 Number     Number       Type             X           Y           Z
 ---------------------------------------------------------------------
      1          1           0        0.000000    0.000000    0.000000
      2          1           0       -3.850000    0.000000    0.000000
      3          9           0        4.000000    0.000000    0.000000
 ---------------------------------------------------------------------

 SCF Done:  E(UB3LYP) =  -100.758420946     a.u. after   46 cycles

 Alpha  occ. eigenvalues --  -24.75877  -1.21805  -0.55002  -0.46181  -0.46181
 Alpha  occ. eigenvalues --   -0.32231
 Alpha virt. eigenvalues --   -0.06142   0.24208   0.37918   0.86561   0.91172
 Alpha virt. eigenvalues --    0.91172   1.01083   1.25265   1.25265   1.25304
 Alpha virt. eigenvalues --    1.46213   1.46377   1.46377   2.14701   2.42076

  Beta  occ. eigenvalues --  -24.72732  -1.12760  -0.43028  -0.43028  -0.32429
  Beta virt. eigenvalues --   -0.25729  -0.05948   0.24051   0.38211   0.92671
  Beta virt. eigenvalues --    0.92671   0.95938   1.05210   1.25052   1.25052
  Beta virt. eigenvalues --    1.25078   1.46534   1.46665   1.46665   2.14669

 Mulliken charges and spin densities:
               1          2
     1  H    0.002412  -0.996380
     2  H    0.000026   0.999089
     3  F   -0.002437   0.997292
 Sum of Mulliken charges =  -0.00000   1.00000

 Dipole moment (field-independent basis, Debye):
    X=             -0.0511    Y=              0.0000    Z=             -0.0000  Tot=              0.0511
 Quadrupole moment (field-independent basis, Debye-Ang):
   XX=             -6.9209   YY=             -7.6199   ZZ=             -7.6199
   XY=              0.0000   XZ=             -0.0000   YZ=             -0.0000

  Exact polarizability:      10.203       0.000       2.035      -0.000      -0.000       2.035
 Approx polarizability:       7.625       0.000       1.937      -0.000       0.000       1.937

 ******    2 imaginary frequencies (negative Signs) ******

                      1                      2                      3
                      A                      A                      A
 Frequencies --   -144.7852               -61.5705                46.5082
 Red. masses --      1.0191                 1.0952                 1.0175
 Frc consts  --      0.0126                 0.0024                 0.0013
 IR Inten    --      0.9355                 0.2242                 0.0057

                      4
                      A
 Frequencies --     46.5082
 Red. masses --      1.0175
 Frc consts  --      0.0013
 IR Inten    --      0.0057

 - Thermochemistry -
 -------------------
 Temperature   298.150 Kelvin.  Pressure   1.00000 Atm.
 Atom     1 has atomic number  1 and mass   1.00783

 Molecular mass:    21.01405 amu.
 Principal axes and moments of inertia in atomic units:
                           1         2         3
     Eigenvalues --     0.00000 255.12615 255.12615
           X            1.00000  -0.00000   0.00000
           Y            0.00000   1.00000   0.00000
           Z            0.00000   0.00000   1.00000
 This molecule is a prolate symmetric top.
 Rotational symmetry number  1.
 Rotational temperature (Kelvin)      0.33949
 Rotational constant (GHZ):           7.073917
    2 imaginary frequencies ignored.
 Zero-point vibrational energy        556.4 (Joules/Mol)
                                    0.13297 (Kcal/Mol)
 Warning -- explicit consideration of   2 degrees of freedom as
           vibrations may cause significant error
 Vibrational temperatures:     66.91    66.91
          (Kelvin)

 Zero-point correction=                           0.000212 (Hartree/Particle)
 Thermal correction to Energy=                    0.004257
 Thermal correction to Enthalpy=                  0.005201
 Thermal correction to Gibbs Free Energy=        -0.024173
 Sum of electronic and zero-point Energies=           -100.758209
 Sum of electronic and thermal Energies=              -100.754164
 Sum of electronic and thermal Enthalpies=            -100.753220
 Sum of electronic and thermal Free Energies=         -100.782594

                     E (Thermal)             CV                S
                      KCal/Mol        Cal/Mol-Kelvin    Cal/Mol-Kelvin
 Total                    2.671              8.926             61.823
 Electronic               0.000              0.000              1.377
 Translational            0.889              2.981             35.068
 Rotational               0.592              1.987             15.456
 Vibrational              1.190              3.958              9.921
 Vibration     1          0.595              1.979              4.961
 Vibration     2          0.595              1.979              4.961

 Normal termination of Gaussian 16 at Sat Aug 23 01:59:13 2025.
