 Gaussian 16, Revision C.01,
 Gaussian 16:  ES64L-G16RevC.01  3-Jul-2019

 -----------------------------------------
 # sp b3lyp/6-311g** Force nosymm scf=(qc)
 -----------------------------------------

 -------------------
 Title Card Required
 -------------------
 Symbolic Z-matrix:
 Charge =  0 Multiplicity = 2

                          Input orientation:
 ---------------------------------------------------------------------
 Center     Atomic      Atomic             Coordinates (Angstroms)
 Number     Number       Type             X           Y           Z
 ---------------------------------------------------------------------
      1          1           0        0.000000    0.000000    0.000000
      2          1           0       -0.650000    0.000000    0.000000
      3          9           0        1.100000    0.000000    0.000000
 ---------------------------------------------------------------------

 SCF Done:  E(UB3LYP) =  -100.915427103     a.u. after    6 cycles

 Alpha  occ. eigenvalues --  -24.67878  -1.18984  -0.63271  -0.41564  -0.41564
 Alpha  occ. eigenvalues --   -0.37059
 Alpha virt. eigenvalues --    0.13014   0.18624   0.56922   0.87152   0.87152
 Alpha virt. eigenvalues --    0.95188   1.11228   1.11228   1.48066   1.67816
 Alpha virt. eigenvalues --    1.83160   1.83160   1.92247   2.44373   3.79325

  Beta  occ. eigenvalues --  -24.65883  -1.13901  -0.54974  -0.39728  -0.39728
  Beta virt. eigenvalues --   -0.18851   0.14800   0.19528   0.61503   0.88858
  Beta virt. eigenvalues --    0.88858   0.99299   1.14919   1.14919   1.50593
  Beta virt. eigenvalues --    1.74332   1.86449   1.86449   1.93282   2.50446

 Mulliken charges and spin densities:
               1          2
     1  H    0.266161  -0.017672
     2  H   -0.036567   0.483886
     3  F   -0.229595   0.533786
 Sum of Mulliken charges =   0.00000   1.00000

 Dipole moment (field-independent basis, Debye):
    X=             -1.4196    Y=              0.0000    Z=             -0.0000  Tot=              1.4196
 Quadrupole moment (field-independent basis, Debye-Ang):
   XX=             -7.2958   YY=             -6.5094   ZZ=             -6.5094
   XY=             -0.0000   XZ=             -0.0000   YZ=              0.0000

  Exact polarizability:      14.036      -0.000       2.473       0.000      -0.000       2.473
 Approx polarizability:      17.252      -0.000       2.529       0.000      -0.000       2.529

 ******    2 imaginary frequencies (negative Signs) ******

                      1                      2                      3
                      A                      A                      A
 Frequencies --  -2613.5066             -2613.5066              1499.2489
 Red. masses --      1.0128                 1.0128                 1.1081
 Frc consts  --      4.0760                 4.0760                 1.4675
 IR Inten    --     13.9207                13.9207                 2.3144

                      4
                      A
 Frequencies --   5445.6843
 Red. masses --      1.0082
 Frc consts  --     17.6153
 IR Inten    --    284.8092

 - Thermochemistry -
 -------------------
 Temperature   298.150 Kelvin.  Pressure   1.00000 Atm.
 Atom     1 has atomic number  1 and mass   1.00783

 Molecular mass:    21.01405 amu.
 Principal axes and moments of inertia in atomic units:
                           1         2         3
     Eigenvalues --     0.00000  13.97476  13.97476
           X            1.00000  -0.00000   0.00000
           Y            0.00000   1.00000   0.00000
           Z            0.00000   0.00000   1.00000
 This molecule is a prolate symmetric top.
 Rotational symmetry number  1.
 Rotational temperature (Kelvin)      6.19788
 Rotational constant (GHZ):         129.142872
    2 imaginary frequencies ignored.
 Zero-point vibrational energy      41539.9 (Joules/Mol)
                                    9.92828 (Kcal/Mol)
 Vibrational temperatures:   2157.08  7835.13
          (Kelvin)

 Zero-point correction=                           0.015822 (Hartree/Particle)
 Thermal correction to Energy=                    0.018187
 Thermal correction to Enthalpy=                  0.019131
 Thermal correction to Gibbs Free Energy=        -0.002792
 Sum of electronic and zero-point Energies=           -100.899605
 Sum of electronic and thermal Energies=              -100.897240
 Sum of electronic and thermal Enthalpies=            -100.896296
 Sum of electronic and thermal Free Energies=         -100.918219

                     E (Thermal)             CV                S
                      KCal/Mol        Cal/Mol-Kelvin    Cal/Mol-Kelvin
 Total                   11.413              5.043             46.142
 Electronic               0.000              0.000              1.377
 Translational            0.889              2.981             35.068
 Rotational               0.592              1.987              9.684
 Vibrational              9.931              0.075              0.012

 Normal termination of Gaussian 16 at Fri Aug 22 16:04:23 2025.
