 Gaussian 16, Revision C.01,
 Gaussian 16:  ES64L-G16RevC.01  3-Jul-2019

 -----------------------------------------
 # sp b3lyp/6-311g** Force nosymm scf=(qc)
 -----------------------------------------

 -------------------
 Title Card Required
 -------------------
 Symbolic Z-matrix:
 Charge =  0 Multiplicity = 2

                          Input orientation:
 ---------------------------------------------------------------------
 Center     Atomic      Atomic             Coordinates (Angstroms)
 Number     Number       Type             X           Y           Z
 ---------------------------------------------------------------------
      1          1           0        0.000000    0.000000    0.000000
      2          1           0       -3.550000    0.000000    0.000000
      3          9           0        2.950000    0.000000    0.000000
 ---------------------------------------------------------------------

 SCF Done:  E(UB3LYP) =  -100.761397454     a.u. after   21 cycles

 Alpha  occ. eigenvalues --  -24.73897  -1.19971  -0.53016  -0.44517  -0.44517
 Alpha  occ. eigenvalues --   -0.32559
 Alpha virt. eigenvalues --   -0.08280   0.23946   0.36055   0.89530   0.92388
 Alpha virt. eigenvalues --    0.92388   1.04183   1.24946   1.24946   1.25080
 Alpha virt. eigenvalues --    1.43799   1.43799   1.44158   2.14724   2.39849

  Beta  occ. eigenvalues --  -24.70883  -1.11337  -0.41501  -0.41501  -0.33860
  Beta virt. eigenvalues --   -0.24666  -0.06505   0.23932   0.37930   0.93845
  Beta virt. eigenvalues --    0.93845   0.98132   1.07851   1.23465   1.23465
  Beta virt. eigenvalues --    1.24085   1.45908   1.46161   1.46161   2.14781

 Mulliken charges and spin densities:
               1          2
     1  H    0.040609  -0.953112
     2  H    0.000427   0.998179
     3  F   -0.041035   0.954933
 Sum of Mulliken charges =  -0.00000   1.00000

 Dipole moment (field-independent basis, Debye):
    X=             -0.6287    Y=             -0.0000    Z=              0.0000  Tot=              0.6287
 Quadrupole moment (field-independent basis, Debye-Ang):
   XX=             -8.4136   YY=             -7.6064   ZZ=             -7.6064
   XY=             -0.0000   XZ=              0.0000   YZ=              0.0000

  Exact polarizability:      31.948      -0.000       2.025       0.000       0.000       2.025
 Approx polarizability:      33.383      -0.000       1.925       0.000      -0.000       1.925

 ******    2 imaginary frequencies (negative Signs) ******

                      1                      2                      3
                      A                      A                      A
 Frequencies --   -394.3609              -112.3200               139.9843
 Red. masses --      1.0487                 1.0629                 1.0203
 Frc consts  --      0.0961                 0.0079                 0.0118
 IR Inten    --     42.9213                 0.4803                 1.5544

                      4
                      A
 Frequencies --    139.9843
 Red. masses --      1.0203
 Frc consts  --      0.0118
 IR Inten    --      1.5544

 - Thermochemistry -
 -------------------
 Temperature   298.150 Kelvin.  Pressure   1.00000 Atm.
 Atom     1 has atomic number  1 and mass   1.00783

 Molecular mass:    21.01405 amu.
 Principal axes and moments of inertia in atomic units:
                           1         2         3
     Eigenvalues --     0.00000 167.96425 167.96425
           X            1.00000  -0.00000   0.00000
           Y            0.00000   1.00000   0.00000
           Z            0.00000   0.00000   1.00000
 This molecule is a prolate symmetric top.
 Rotational symmetry number  1.
 Rotational temperature (Kelvin)      0.51567
 Rotational constant (GHZ):          10.744793
    2 imaginary frequencies ignored.
 Zero-point vibrational energy       1674.6 (Joules/Mol)
                                    0.40024 (Kcal/Mol)
 Warning -- explicit consideration of   2 degrees of freedom as
           vibrations may cause significant error
 Vibrational temperatures:    201.41   201.41
          (Kelvin)

 Zero-point correction=                           0.000638 (Hartree/Particle)
 Thermal correction to Energy=                    0.004320
 Thermal correction to Enthalpy=                  0.005264
 Thermal correction to Gibbs Free Energy=        -0.021666
 Sum of electronic and zero-point Energies=           -100.760760
 Sum of electronic and thermal Energies=              -100.757077
 Sum of electronic and thermal Enthalpies=            -100.756133
 Sum of electronic and thermal Free Energies=         -100.783063

                     E (Thermal)             CV                S
                      KCal/Mol        Cal/Mol-Kelvin    Cal/Mol-Kelvin
 Total                    2.711              8.795             56.679
 Electronic               0.000              0.000              1.377
 Translational            0.889              2.981             35.068
 Rotational               0.592              1.987             14.626
 Vibrational              1.230              3.827              5.608
 Vibration     1          0.615              1.913              2.804
 Vibration     2          0.615              1.913              2.804

 Normal termination of Gaussian 16 at Fri Aug 22 19:19:02 2025.
