 Gaussian 16, Revision C.01,
 Gaussian 16:  ES64L-G16RevC.01  3-Jul-2019

 -----------------------------------------
 # sp b3lyp/6-311g** Force nosymm scf=(qc)
 -----------------------------------------

 -------------------
 Title Card Required
 -------------------
 Symbolic Z-matrix:
 Charge =  0 Multiplicity = 2

                          Input orientation:
 ---------------------------------------------------------------------
 Center     Atomic      Atomic             Coordinates (Angstroms)
 Number     Number       Type             X           Y           Z
 ---------------------------------------------------------------------
      1          1           0        0.000000    0.000000    0.000000
      2          1           0       -3.500000    0.000000    0.000000
      3          9           0        2.400000    0.000000    0.000000
 ---------------------------------------------------------------------

 SCF Done:  E(UB3LYP) =  -100.769310476     a.u. after   21 cycles

 Alpha  occ. eigenvalues --  -24.68268  -1.09417  -0.39367  -0.39367  -0.35834
 Alpha  occ. eigenvalues --   -0.32874
 Alpha virt. eigenvalues --   -0.22884   0.21054   0.28076   0.94534   0.95278
 Alpha virt. eigenvalues --    0.95278   1.08450   1.21816   1.21816   1.24544
 Alpha virt. eigenvalues --    1.24544   1.24614   1.33102   2.11319   2.15860

  Beta  occ. eigenvalues --  -24.71046  -1.17302  -0.50138  -0.42131  -0.42131
  Beta virt. eigenvalues --   -0.11240  -0.04383   0.32608   0.40396   0.89331
  Beta virt. eigenvalues --    0.93975   0.93975   1.06392   1.39561   1.39561
  Beta virt. eigenvalues --    1.46063   1.48305   1.48305   1.48498   2.35483

 Mulliken charges and spin densities:
               1          2
     1  H    0.106688   0.877640
     2  H    0.000966   0.999050
     3  F   -0.107654  -0.876690
 Sum of Mulliken charges =   0.00000   1.00000

 Dipole moment (field-independent basis, Debye):
    X=             -1.3247    Y=             -0.0000    Z=             -0.0000  Tot=              1.3247
 Quadrupole moment (field-independent basis, Debye-Ang):
   XX=             -9.5576   YY=             -7.5465   ZZ=             -7.5465
   XY=             -0.0000   XZ=             -0.0000   YZ=              0.0000

  Exact polarizability:      30.920      -0.000       2.030      -0.000      -0.000       2.030
 Approx polarizability:      40.703      -0.000       1.923      -0.000      -0.000       1.923

 ******    1 imaginary frequencies (negative Signs) ******

                      1                      2                      3
                      A                      A                      A
 Frequencies --   -669.7219                83.7781               268.5251
 Red. masses --      1.0603                 1.0513                 1.0231
 Frc consts  --      0.2802                 0.0043                 0.0435
 IR Inten    --     82.6318                 0.1135                10.8427

                      4
                      A
 Frequencies --    268.5251
 Red. masses --      1.0231
 Frc consts  --      0.0435
 IR Inten    --     10.8427

 - Thermochemistry -
 -------------------
 Temperature   298.150 Kelvin.  Pressure   1.00000 Atm.
 Atom     1 has atomic number  1 and mass   1.00783

 Molecular mass:    21.01405 amu.
 Principal axes and moments of inertia in atomic units:
                           1         2         3
     Eigenvalues --     0.00000 134.12089 134.12089
           X            1.00000  -0.00000   0.00000
           Y            0.00000   1.00000   0.00000
           Z            0.00000   0.00000   1.00000
 This molecule is a prolate symmetric top.
 Rotational symmetry number  1.
 Rotational temperature (Kelvin)      0.64579
 Rotational constant (GHZ):          13.456079
    1 imaginary frequencies ignored.
 Zero-point vibrational energy       3713.4 (Joules/Mol)
                                    0.88752 (Kcal/Mol)
 Warning -- explicit consideration of   3 degrees of freedom as
           vibrations may cause significant error
 Vibrational temperatures:    120.54   386.35   386.35
          (Kelvin)

 Zero-point correction=                           0.001414 (Hartree/Particle)
 Thermal correction to Energy=                    0.005463
 Thermal correction to Enthalpy=                  0.006407
 Thermal correction to Gibbs Free Energy=        -0.020977
 Sum of electronic and zero-point Energies=           -100.767896
 Sum of electronic and thermal Energies=              -100.763848
 Sum of electronic and thermal Enthalpies=            -100.762903
 Sum of electronic and thermal Free Energies=         -100.790288

                     E (Thermal)             CV                S
                      KCal/Mol        Cal/Mol-Kelvin    Cal/Mol-Kelvin
 Total                    3.428             10.390             57.636
 Electronic               0.000              0.000              1.377
 Translational            0.889              2.981             35.068
 Rotational               0.592              1.987             14.178
 Vibrational              1.947              5.422              7.012
 Vibration     1          0.601              1.960              3.800
 Vibration     2          0.673              1.731              1.606
 Vibration     3          0.673              1.731              1.606

 Normal termination of Gaussian 16 at Fri Aug 22 17:33:33 2025.
