 Gaussian 16, Revision C.01,
 Gaussian 16:  ES64L-G16RevC.01  3-Jul-2019

 -----------------------------------------
 # sp b3lyp/6-311g** Force nosymm scf=(qc)
 -----------------------------------------

 -------------------
 Title Card Required
 -------------------
 Symbolic Z-matrix:
 Charge =  0 Multiplicity = 2

                          Input orientation:
 ---------------------------------------------------------------------
 Center     Atomic      Atomic             Coordinates (Angstroms)
 Number     Number       Type             X           Y           Z
 ---------------------------------------------------------------------
      1          1           0        0.000000    0.000000    0.000000
      2          1           0       -1.850000    0.000000    0.000000
      3          9           0        3.500000    0.000000    0.000000
 ---------------------------------------------------------------------

 SCF Done:  E(UB3LYP) =  -100.782715823     a.u. after   33 cycles

 Alpha  occ. eigenvalues --  -24.75675  -1.21619  -0.54799  -0.46017  -0.46017
 Alpha  occ. eigenvalues --   -0.33272
 Alpha virt. eigenvalues --   -0.11166   0.25755   0.31309   0.87579   0.91278
 Alpha virt. eigenvalues --    0.91278   1.01681   1.11352   1.24538   1.24538
 Alpha virt. eigenvalues --    1.37285   1.37285   1.58242   2.13969   2.38519

  Beta  occ. eigenvalues --  -24.72550  -1.12637  -0.42885  -0.42885  -0.33288
  Beta virt. eigenvalues --   -0.25705  -0.10997   0.25680   0.31674   0.92770
  Beta virt. eigenvalues --    0.92770   0.96758   1.05736   1.11390   1.24519
  Beta virt. eigenvalues --    1.24519   1.37488   1.37488   1.58415   2.14464

 Mulliken charges and spin densities:
               1          2
     1  H    0.000723  -0.758181
     2  H    0.006990   0.767386
     3  F   -0.007713   0.990795
 Sum of Mulliken charges =   0.00000   1.00000

 Dipole moment (field-independent basis, Debye):
    X=             -0.1990    Y=             -0.0000    Z=              0.0000  Tot=              0.1990
 Quadrupole moment (field-independent basis, Debye-Ang):
   XX=             -6.3536   YY=             -7.7476   ZZ=             -7.7476
   XY=             -0.0000   XZ=              0.0000   YZ=             -0.0000

  Exact polarizability:      43.669       0.000       2.006      -0.000      -0.000       2.006
 Approx polarizability:      43.777      -0.000       1.952       0.000      -0.000       1.952

 ******    2 imaginary frequencies (negative Signs) ******

                      1                      2                      3
                      A                      A                      A
 Frequencies --  -1637.5581              -128.0432               708.2082
 Red. masses --      1.0078                 1.1085                 1.0121
 Frc consts  --      1.5923                 0.0107                 0.2991
 IR Inten    --     13.5967                 5.9522                 0.0034

                      4
                      A
 Frequencies --    708.2082
 Red. masses --      1.0121
 Frc consts  --      0.2991
 IR Inten    --      0.0034

 - Thermochemistry -
 -------------------
 Temperature   298.150 Kelvin.  Pressure   1.00000 Atm.
 Atom     1 has atomic number  1 and mass   1.00783

 Molecular mass:    21.01405 amu.
 Principal axes and moments of inertia in atomic units:
                           1         2         3
     Eigenvalues --     0.00000 133.58147 133.58147
           X            1.00000  -0.00000   0.00000
           Y            0.00000   1.00000   0.00000
           Z            0.00000   0.00000   1.00000
 This molecule is a prolate symmetric top.
 Rotational symmetry number  1.
 Rotational temperature (Kelvin)      0.64840
 Rotational constant (GHZ):          13.510416
    2 imaginary frequencies ignored.
 Zero-point vibrational energy       8472.1 (Joules/Mol)
                                    2.02487 (Kcal/Mol)
 Vibrational temperatures:   1018.95  1018.95
          (Kelvin)

 Zero-point correction=                           0.003227 (Hartree/Particle)
 Thermal correction to Energy=                    0.005806
 Thermal correction to Enthalpy=                  0.006750
 Thermal correction to Gibbs Free Energy=        -0.017581
 Sum of electronic and zero-point Energies=           -100.779489
 Sum of electronic and thermal Energies=              -100.776910
 Sum of electronic and thermal Enthalpies=            -100.775966
 Sum of electronic and thermal Free Energies=         -100.800297

                     E (Thermal)             CV                S
                      KCal/Mol        Cal/Mol-Kelvin    Cal/Mol-Kelvin
 Total                    3.643              6.595             51.209
 Electronic               0.000              0.000              1.377
 Translational            0.889              2.981             35.068
 Rotational               0.592              1.987             14.170
 Vibrational              2.162              1.627              0.593

 Normal termination of Gaussian 16 at Fri Aug 22 22:08:43 2025.
