 Gaussian 16, Revision C.01,
 Gaussian 16:  ES64L-G16RevC.01  3-Jul-2019

 -----------------------------------------
 # sp b3lyp/6-311g** Force nosymm scf=(qc)
 -----------------------------------------

 -------------------
 Title Card Required
 -------------------
 Symbolic Z-matrix:
 Charge =  0 Multiplicity = 2

                          Input orientation:
 ---------------------------------------------------------------------
 Center     Atomic      Atomic             Coordinates (Angstroms)
 Number     Number       Type             X           Y           Z
 ---------------------------------------------------------------------
      1          1           0        0.000000    0.000000    0.000000
      2          1           0       -3.900000    0.000000    0.000000
      3          9           0        2.400000    0.000000    0.000000
 ---------------------------------------------------------------------

 SCF Done:  E(UB3LYP) =  -100.769426014     a.u. after   16 cycles

 Alpha  occ. eigenvalues --  -24.68313  -1.09453  -0.39404  -0.39404  -0.35792
 Alpha  occ. eigenvalues --   -0.32788
 Alpha virt. eigenvalues --   -0.22909   0.21114   0.27502   0.94372   0.95248
 Alpha virt. eigenvalues --    0.95248   1.08338   1.21813   1.21813   1.24681
 Alpha virt. eigenvalues --    1.24684   1.24684   1.33059   2.10327   2.16195

  Beta  occ. eigenvalues --  -24.71093  -1.17347  -0.50185  -0.42172  -0.42172
  Beta virt. eigenvalues --   -0.11106  -0.04326   0.32389   0.40271   0.89184
  Beta virt. eigenvalues --    0.93944   0.93944   1.06220   1.39562   1.39562
  Beta virt. eigenvalues --    1.46123   1.48376   1.48376   1.48437   2.34902

 Mulliken charges and spin densities:
               1          2
     1  H    0.106568   0.877919
     2  H    0.000317   0.999688
     3  F   -0.106885  -0.877607
 Sum of Mulliken charges =  -0.00000   1.00000

 Dipole moment (field-independent basis, Debye):
    X=             -1.3048    Y=              0.0000    Z=             -0.0000  Tot=              1.3048
 Quadrupole moment (field-independent basis, Debye-Ang):
   XX=             -9.5638   YY=             -7.5486   ZZ=             -7.5486
   XY=              0.0000   XZ=             -0.0000   YZ=              0.0000

  Exact polarizability:      29.314       0.000       2.030      -0.000       0.000       2.030
 Approx polarizability:      38.945       0.000       1.922      -0.000      -0.000       1.922

 ******    1 imaginary frequencies (negative Signs) ******

                      1                      2                      3
                      A                      A                      A
 Frequencies --   -674.2108                50.3620               272.1705
 Red. masses --      1.0591                 1.0525                 1.0248
 Frc consts  --      0.2836                 0.0016                 0.0447
 IR Inten    --     87.2705                 0.0147                11.0737

                      4
                      A
 Frequencies --    272.1705
 Red. masses --      1.0248
 Frc consts  --      0.0447
 IR Inten    --     11.0737

 - Thermochemistry -
 -------------------
 Temperature   298.150 Kelvin.  Pressure   1.00000 Atm.
 Atom     1 has atomic number  1 and mass   1.00783

 Molecular mass:    21.01405 amu.
 Principal axes and moments of inertia in atomic units:
                           1         2         3
     Eigenvalues --     0.00000 150.51032 150.51032
           X            1.00000  -0.00000   0.00000
           Y            0.00000   1.00000   0.00000
           Z            0.00000   0.00000   1.00000
 This molecule is a prolate symmetric top.
 Rotational symmetry number  1.
 Rotational temperature (Kelvin)      0.57547
 Rotational constant (GHZ):          11.990814
    1 imaginary frequencies ignored.
 Zero-point vibrational energy       3557.1 (Joules/Mol)
                                    0.85017 (Kcal/Mol)
 Warning -- explicit consideration of   3 degrees of freedom as
           vibrations may cause significant error
 Vibrational temperatures:     72.46   391.59   391.59
          (Kelvin)

 Zero-point correction=                           0.001355 (Hartree/Particle)
 Thermal correction to Energy=                    0.005462
 Thermal correction to Enthalpy=                  0.006406
 Thermal correction to Gibbs Free Energy=        -0.021542
 Sum of electronic and zero-point Energies=           -100.768071
 Sum of electronic and thermal Energies=              -100.763964
 Sum of electronic and thermal Enthalpies=            -100.763020
 Sum of electronic and thermal Free Energies=         -100.790968

                     E (Thermal)             CV                S
                      KCal/Mol        Cal/Mol-Kelvin    Cal/Mol-Kelvin
 Total                    3.427             10.395             58.821
 Electronic               0.000              0.000              1.377
 Translational            0.889              2.981             35.068
 Rotational               0.592              1.987             14.408
 Vibrational              1.946              5.427              7.968
 Vibration     1          0.595              1.977              4.803
 Vibration     2          0.675              1.725              1.582
 Vibration     3          0.675              1.725              1.582

 Normal termination of Gaussian 16 at Fri Aug 22 17:33:55 2025.
