 Gaussian 16, Revision C.01,
 Gaussian 16:  ES64L-G16RevC.01  3-Jul-2019

 -----------------------------------------
 # sp b3lyp/6-311g** Force nosymm scf=(qc)
 -----------------------------------------

 -------------------
 Title Card Required
 -------------------
 Symbolic Z-matrix:
 Charge =  0 Multiplicity = 2

                          Input orientation:
 ---------------------------------------------------------------------
 Center     Atomic      Atomic             Coordinates (Angstroms)
 Number     Number       Type             X           Y           Z
 ---------------------------------------------------------------------
      1          1           0        0.000000    0.000000    0.000000
      2          1           0       -2.600000    0.000000    0.000000
      3          9           0        3.600000    0.000000    0.000000
 ---------------------------------------------------------------------

 SCF Done:  E(UB3LYP) =  -100.761871024     a.u. after   31 cycles

 Alpha  occ. eigenvalues --  -24.75583  -1.21531  -0.54706  -0.45933  -0.45933
 Alpha  occ. eigenvalues --   -0.32573
 Alpha virt. eigenvalues --   -0.09101   0.25600   0.34771   0.87308   0.91355
 Alpha virt. eigenvalues --    0.91355   1.01556   1.25042   1.25042   1.26575
 Alpha virt. eigenvalues --    1.42079   1.42079   1.43109   2.15968   2.37499

  Beta  occ. eigenvalues --  -24.72458  -1.12548  -0.42800  -0.42800  -0.32850
  Beta virt. eigenvalues --   -0.25594  -0.08684   0.25397   0.35386   0.92848
  Beta virt. eigenvalues --    0.92848   0.96536   1.05622   1.24719   1.24719
  Beta virt. eigenvalues --    1.26196   1.42718   1.42718   1.43748   2.16323

 Mulliken charges and spin densities:
               1          2
     1  H    0.006599  -0.968346
     2  H    0.001480   0.977406
     3  F   -0.008080   0.990940
 Sum of Mulliken charges =   0.00000   1.00000

 Dipole moment (field-independent basis, Debye):
    X=             -0.1678    Y=              0.0000    Z=              0.0000  Tot=              0.1678
 Quadrupole moment (field-independent basis, Debye-Ang):
   XX=             -7.0390   YY=             -7.6577   ZZ=             -7.6577
   XY=              0.0000   XZ=              0.0000   YZ=             -0.0000

  Exact polarizability:      28.190      -0.000       1.952      -0.000       0.000       1.952
 Approx polarizability:      20.945       0.000       1.930       0.000       0.000       1.930

 ******    2 imaginary frequencies (negative Signs) ******

                      1                      2                      3
                      A                      A                      A
 Frequencies --   -581.1145              -124.0818               221.7603
 Red. masses --      1.0081                 1.1082                 1.0145
 Frc consts  --      0.2006                 0.0101                 0.0294
 IR Inten    --      4.1357                 4.0815                 0.0830

                      4
                      A
 Frequencies --    221.7608
 Red. masses --      1.0145
 Frc consts  --      0.0294
 IR Inten    --      0.0830

 - Thermochemistry -
 -------------------
 Temperature   298.150 Kelvin.  Pressure   1.00000 Atm.
 Atom     1 has atomic number  1 and mass   1.00783

 Molecular mass:    21.01405 amu.
 Principal axes and moments of inertia in atomic units:
                           1         2         3
     Eigenvalues --     0.00000 168.41187 168.41187
           X            1.00000  -0.00000   0.00000
           Y            0.00000   1.00000   0.00000
           Z            0.00000   0.00000   1.00000
 This molecule is a prolate symmetric top.
 Rotational symmetry number  1.
 Rotational temperature (Kelvin)      0.51430
 Rotational constant (GHZ):          10.716235
    2 imaginary frequencies ignored.
 Zero-point vibrational energy       2652.8 (Joules/Mol)
                                    0.63405 (Kcal/Mol)
 Warning -- explicit consideration of   2 degrees of freedom as
           vibrations may cause significant error
 Vibrational temperatures:    319.06   319.06
          (Kelvin)

 Zero-point correction=                           0.001010 (Hartree/Particle)
 Thermal correction to Energy=                    0.004426
 Thermal correction to Enthalpy=                  0.005370
 Thermal correction to Gibbs Free Energy=        -0.020746
 Sum of electronic and zero-point Energies=           -100.760861
 Sum of electronic and thermal Energies=              -100.757445
 Sum of electronic and thermal Enthalpies=            -100.756501
 Sum of electronic and thermal Free Energies=         -100.782617

                     E (Thermal)             CV                S
                      KCal/Mol        Cal/Mol-Kelvin    Cal/Mol-Kelvin
 Total                    2.777              8.584             54.966
 Electronic               0.000              0.000              1.377
 Translational            0.889              2.981             35.068
 Rotational               0.592              1.987             14.631
 Vibrational              1.296              3.616              3.889
 Vibration     1          0.648              1.808              1.945
 Vibration     2          0.648              1.808              1.945

 Normal termination of Gaussian 16 at Fri Aug 22 23:06:32 2025.
