 Gaussian 16, Revision C.01,
 Gaussian 16:  ES64L-G16RevC.01  3-Jul-2019

 -----------------------------------------
 # sp b3lyp/6-311g** Force nosymm scf=(qc)
 -----------------------------------------

 -------------------
 Title Card Required
 -------------------
 Symbolic Z-matrix:
 Charge =  0 Multiplicity = 2

                          Input orientation:
 ---------------------------------------------------------------------
 Center     Atomic      Atomic             Coordinates (Angstroms)
 Number     Number       Type             X           Y           Z
 ---------------------------------------------------------------------
      1          1           0        0.000000    0.000000    0.000000
      2          1           0       -0.850000    0.000000    0.000000
      3          9           0        1.650000    0.000000    0.000000
 ---------------------------------------------------------------------

 SCF Done:  E(UB3LYP) =  -100.933521270     a.u. after    7 cycles

 Alpha  occ. eigenvalues --  -24.71859  -1.18494  -0.54106  -0.43104  -0.43104
 Alpha  occ. eigenvalues --   -0.42757
 Alpha virt. eigenvalues --    0.05997   0.20254   0.39562   0.89731   0.89731
 Alpha virt. eigenvalues --    0.96555   1.07173   1.07173   1.18648   1.67566
 Alpha virt. eigenvalues --    1.73806   1.73806   2.10739   2.37663   2.82222

  Beta  occ. eigenvalues --  -24.69138  -1.10911  -0.44904  -0.40430  -0.40430
  Beta virt. eigenvalues --   -0.24253   0.07500   0.21215   0.41016   0.90881
  Beta virt. eigenvalues --    0.90881   1.03349   1.09057   1.09057   1.21896
  Beta virt. eigenvalues --    1.70352   1.74897   1.74897   2.12111   2.39667

 Mulliken charges and spin densities:
               1          2
     1  H    0.086754  -0.057868
     2  H    0.036039   0.220131
     3  F   -0.122793   0.837737
 Sum of Mulliken charges =   0.00000   1.00000

 Dipole moment (field-independent basis, Debye):
    X=             -1.1153    Y=             -0.0000    Z=             -0.0000  Tot=              1.1153
 Quadrupole moment (field-independent basis, Debye-Ang):
   XX=             -6.8078   YY=             -6.9469   ZZ=             -6.9469
   XY=             -0.0000   XZ=             -0.0000   YZ=              0.0000

  Exact polarizability:      24.138       0.000       2.264      -0.000       0.000       2.264
 Approx polarizability:      31.534       0.000       2.292      -0.000       0.000       2.292

 ******    1 imaginary frequencies (negative Signs) ******

                      1                      2                      3
                      A                      A                      A
 Frequencies --   -548.4304              1054.0344              1054.0344
 Red. masses --      1.1069                 1.0119                 1.0119
 Frc consts  --      0.1962                 0.6624                 0.6624
 IR Inten    --    140.6778                 0.3038                 0.3038

                      4
                      A
 Frequencies --   2777.8252
 Red. masses --      1.0091
 Frc consts  --      4.5878
 IR Inten    --    708.9508

 - Thermochemistry -
 -------------------
 Temperature   298.150 Kelvin.  Pressure   1.00000 Atm.
 Atom     1 has atomic number  1 and mass   1.00783

 Molecular mass:    21.01405 amu.
 Principal axes and moments of inertia in atomic units:
                           1         2         3
     Eigenvalues --     0.00000  29.31938  29.31938
           X            1.00000  -0.00000   0.00000
           Y            0.00000   1.00000   0.00000
           Z            0.00000   0.00000   1.00000
 This molecule is a prolate symmetric top.
 Rotational symmetry number  1.
 Rotational temperature (Kelvin)      2.95415
 Rotational constant (GHZ):          61.554545
    1 imaginary frequencies ignored.
 Zero-point vibrational energy      29224.1 (Joules/Mol)
                                    6.98474 (Kcal/Mol)
 Vibrational temperatures:   1516.52  1516.52  3996.67
          (Kelvin)

 Zero-point correction=                           0.011131 (Hartree/Particle)
 Thermal correction to Energy=                    0.013551
 Thermal correction to Enthalpy=                  0.014495
 Thermal correction to Gibbs Free Energy=        -0.008194
 Sum of electronic and zero-point Energies=           -100.922390
 Sum of electronic and thermal Energies=              -100.919970
 Sum of electronic and thermal Enthalpies=            -100.919026
 Sum of electronic and thermal Free Energies=         -100.941715

                     E (Thermal)             CV                S
                      KCal/Mol        Cal/Mol-Kelvin    Cal/Mol-Kelvin
 Total                    8.503              5.612             47.753
 Electronic               0.000              0.000              1.377
 Translational            0.889              2.981             35.068
 Rotational               0.592              1.987             11.157
 Vibrational              7.022              0.644              0.150

 Normal termination of Gaussian 16 at Fri Aug 22 16:33:14 2025.
