 Gaussian 16, Revision C.01,
 Gaussian 16:  ES64L-G16RevC.01  3-Jul-2019

 -----------------------------------------
 # sp b3lyp/6-311g** Force nosymm scf=(qc)
 -----------------------------------------

 -------------------
 Title Card Required
 -------------------
 Symbolic Z-matrix:
 Charge =  0 Multiplicity = 2

                          Input orientation:
 ---------------------------------------------------------------------
 Center     Atomic      Atomic             Coordinates (Angstroms)
 Number     Number       Type             X           Y           Z
 ---------------------------------------------------------------------
      1          1           0        0.000000    0.000000    0.000000
      2          1           0       -2.600000    0.000000    0.000000
      3          9           0        1.600000    0.000000    0.000000
 ---------------------------------------------------------------------

 SCF Done:  E(UB3LYP) =  -100.835732436     a.u. after   13 cycles

 Alpha  occ. eigenvalues --  -24.64704  -1.10467  -0.43435  -0.36670  -0.36670
 Alpha  occ. eigenvalues --   -0.35485
 Alpha virt. eigenvalues --   -0.14603   0.22787   0.27554   0.94352   0.94352
 Alpha virt. eigenvalues --    1.00793   1.07718   1.22060   1.22060   1.24138
 Alpha virt. eigenvalues --    1.32520   1.32520   1.75111   2.13153   2.21820

  Beta  occ. eigenvalues --  -24.63776  -1.07975  -0.41113  -0.35779  -0.35779
  Beta virt. eigenvalues --   -0.17518  -0.08809   0.24082   0.35433   0.94054
  Beta virt. eigenvalues --    0.94054   1.02097   1.08083   1.27870   1.27870
  Beta virt. eigenvalues --    1.42238   1.42238   1.42962   1.73279   2.14982

 Mulliken charges and spin densities:
               1          2
     1  H    0.312561  -0.272050
     2  H    0.017026   0.979233
     3  F   -0.329587   0.292816
 Sum of Mulliken charges =   0.00000   1.00000

 Dipole moment (field-independent basis, Debye):
    X=             -2.7863    Y=              0.0000    Z=              0.0000  Tot=              2.7863
 Quadrupole moment (field-independent basis, Debye-Ang):
   XX=             -9.5895   YY=             -7.3801   ZZ=             -7.3801
   XY=              0.0000   XZ=              0.0000   YZ=              0.0000

  Exact polarizability:      26.608      -0.000       2.158      -0.000       0.000       2.158
 Approx polarizability:      39.514      -0.000       2.073       0.000       0.000       2.073

 ******    2 imaginary frequencies (negative Signs) ******

                      1                      2                      3
                      A                      A                      A
 Frequencies --  -1888.3021              -280.8522               889.4129
 Red. masses --      1.0527                 1.0589                 1.0248
 Frc consts  --      2.2115                 0.0492                 0.4776
 IR Inten    --     24.7630                 6.0626                84.7192

                      4
                      A
 Frequencies --    889.4129
 Red. masses --      1.0248
 Frc consts  --      0.4776
 IR Inten    --     84.7192

 - Thermochemistry -
 -------------------
 Temperature   298.150 Kelvin.  Pressure   1.00000 Atm.
 Atom     1 has atomic number  1 and mass   1.00783

 Molecular mass:    21.01405 amu.
 Principal axes and moments of inertia in atomic units:
                           1         2         3
     Eigenvalues --     0.00000  66.89348  66.89348
           X            1.00000  -0.00000   0.00000
           Y            0.00000   1.00000   0.00000
           Z            0.00000   0.00000   1.00000
 This molecule is a prolate symmetric top.
 Rotational symmetry number  1.
 Rotational temperature (Kelvin)      1.29480
 Rotational constant (GHZ):          26.979331
    2 imaginary frequencies ignored.
 Zero-point vibrational energy      10639.7 (Joules/Mol)
                                    2.54296 (Kcal/Mol)
 Vibrational temperatures:   1279.67  1279.67
          (Kelvin)

 Zero-point correction=                           0.004052 (Hartree/Particle)
 Thermal correction to Energy=                    0.006525
 Thermal correction to Enthalpy=                  0.007470
 Thermal correction to Gibbs Free Energy=        -0.016065
 Sum of electronic and zero-point Energies=           -100.831680
 Sum of electronic and thermal Energies=              -100.829207
 Sum of electronic and thermal Enthalpies=            -100.828263
 Sum of electronic and thermal Free Energies=         -100.851798

                     E (Thermal)             CV                S
                      KCal/Mol        Cal/Mol-Kelvin    Cal/Mol-Kelvin
 Total                    4.095              5.997             49.533
 Electronic               0.000              0.000              1.377
 Translational            0.889              2.981             35.068
 Rotational               0.592              1.987             12.796
 Vibrational              2.613              1.029              0.291

 Normal termination of Gaussian 16 at Fri Aug 22 16:31:43 2025.
