 Gaussian 16, Revision C.01,
 Gaussian 16:  ES64L-G16RevC.01  3-Jul-2019

 -----------------------------------------
 # sp b3lyp/6-311g** Force nosymm scf=(qc)
 -----------------------------------------

 -------------------
 Title Card Required
 -------------------
 Symbolic Z-matrix:
 Charge =  0 Multiplicity = 2

                          Input orientation:
 ---------------------------------------------------------------------
 Center     Atomic      Atomic             Coordinates (Angstroms)
 Number     Number       Type             X           Y           Z
 ---------------------------------------------------------------------
      1          1           0        0.000000    0.000000    0.000000
      2          1           0       -1.850000    0.000000    0.000000
      3          9           0        1.150000    0.000000    0.000000
 ---------------------------------------------------------------------

 SCF Done:  E(UB3LYP) =  -100.939918106     a.u. after    6 cycles

 Alpha  occ. eigenvalues --  -24.63620  -1.12558  -0.48940  -0.37240  -0.37240
 Alpha  occ. eigenvalues --   -0.36894
 Alpha virt. eigenvalues --   -0.00346   0.23089   0.29636   0.93864   0.93864
 Alpha virt. eigenvalues --    1.00406   1.10395   1.19828   1.19828   1.36261
 Alpha virt. eigenvalues --    1.36261   1.50061   1.75488   2.17458   2.34149

  Beta  occ. eigenvalues --  -24.63428  -1.12075  -0.47841  -0.37066  -0.37066
  Beta virt. eigenvalues --   -0.15096   0.02761   0.28744   0.33276   0.93880
  Beta virt. eigenvalues --    0.93880   1.00999   1.19149   1.33269   1.33269
  Beta virt. eigenvalues --    1.40638   1.40638   1.56321   1.79424   2.30067

 Mulliken charges and spin densities:
               1          2
     1  H    0.323712  -0.007914
     2  H    0.030915   0.951899
     3  F   -0.354627   0.056015
 Sum of Mulliken charges =   0.00000   1.00000

 Dipole moment (field-independent basis, Debye):
    X=             -2.5443    Y=              0.0000    Z=             -0.0000  Tot=              2.5443
 Quadrupole moment (field-independent basis, Debye-Ang):
   XX=             -8.0454   YY=             -7.0265   ZZ=             -7.0265
   XY=              0.0000   XZ=             -0.0000   YZ=             -0.0000

  Exact polarizability:      15.175      -0.000       2.416       0.000      -0.000       2.416
 Approx polarizability:      18.039      -0.000       2.387       0.000      -0.000       2.387

 ******    1 imaginary frequencies (negative Signs) ******

                      1                      2                      3
                      A                      A                      A
 Frequencies --   -400.4905              1148.6791              1148.6791
 Red. masses --      1.0329                 1.0246                 1.0246
 Frc consts  --      0.0976                 0.7965                 0.7965
 IR Inten    --     30.4019               105.3486               105.3486

                      4
                      A
 Frequencies --   1221.9954
 Red. masses --      1.0796
 Frc consts  --      0.9499
 IR Inten    --    200.4041

 - Thermochemistry -
 -------------------
 Temperature   298.150 Kelvin.  Pressure   1.00000 Atm.
 Atom     1 has atomic number  1 and mass   1.00783

 Molecular mass:    21.01405 amu.
 Principal axes and moments of inertia in atomic units:
                           1         2         3
     Eigenvalues --     0.00000  34.17804  34.17804
           X            1.00000  -0.00000   0.00000
           Y            0.00000   1.00000   0.00000
           Z            0.00000   0.00000   1.00000
 This molecule is a prolate symmetric top.
 Rotational symmetry number  1.
 Rotational temperature (Kelvin)      2.53420
 Rotational constant (GHZ):          52.804112
    1 imaginary frequencies ignored.
 Zero-point vibrational energy      21050.4 (Joules/Mol)
                                    5.03117 (Kcal/Mol)
 Vibrational temperatures:   1652.69  1652.69  1758.18
          (Kelvin)

 Zero-point correction=                           0.008018 (Hartree/Particle)
 Thermal correction to Energy=                    0.010435
 Thermal correction to Enthalpy=                  0.011379
 Thermal correction to Gibbs Free Energy=        -0.011450
 Sum of electronic and zero-point Energies=           -100.931900
 Sum of electronic and thermal Energies=              -100.929483
 Sum of electronic and thermal Enthalpies=            -100.928539
 Sum of electronic and thermal Free Energies=         -100.951368

                     E (Thermal)             CV                S
                      KCal/Mol        Cal/Mol-Kelvin    Cal/Mol-Kelvin
 Total                    6.548              5.641             48.047
 Electronic               0.000              0.000              1.377
 Translational            0.889              2.981             35.068
 Rotational               0.592              1.987             11.462
 Vibrational              5.067              0.673              0.140

 Normal termination of Gaussian 16 at Fri Aug 22 16:07:38 2025.
