 Gaussian 16, Revision C.01,
 Gaussian 16:  ES64L-G16RevC.01  3-Jul-2019

 -----------------------------------------
 # sp b3lyp/6-311g** Force nosymm scf=(qc)
 -----------------------------------------

 -------------------
 Title Card Required
 -------------------
 Symbolic Z-matrix:
 Charge =  0 Multiplicity = 2

                          Input orientation:
 ---------------------------------------------------------------------
 Center     Atomic      Atomic             Coordinates (Angstroms)
 Number     Number       Type             X           Y           Z
 ---------------------------------------------------------------------
      1          1           0        0.000000    0.000000    0.000000
      2          1           0       -1.000000    0.000000    0.000000
      3          9           0        0.750000    0.000000    0.000000
 ---------------------------------------------------------------------

 SCF Done:  E(UB3LYP) =  -100.887422522     a.u. after    6 cycles

 Alpha  occ. eigenvalues --  -24.64783  -1.27818  -0.62458  -0.42530  -0.42530
 Alpha  occ. eigenvalues --   -0.34697
 Alpha virt. eigenvalues --    0.15934   0.19094   0.63662   0.89638   0.89638
 Alpha virt. eigenvalues --    0.94222   1.08845   1.08845   1.46139   1.65716
 Alpha virt. eigenvalues --    1.65716   1.77794   2.04457   2.36787   3.60851

  Beta  occ. eigenvalues --  -24.64274  -1.26385  -0.59361  -0.42100  -0.42100
  Beta virt. eigenvalues --   -0.14300   0.16871   0.24468   0.69265   0.91135
  Beta virt. eigenvalues --    0.91135   0.95304   1.15887   1.15887   1.47346
  Beta virt. eigenvalues --    1.71516   1.71516   1.87257   2.08296   2.51306

 Mulliken charges and spin densities:
               1          2
     1  H    0.257817  -0.004509
     2  H   -0.014202   0.910107
     3  F   -0.243614   0.094401
 Sum of Mulliken charges =   0.00000   1.00000

 Dipole moment (field-independent basis, Debye):
    X=             -1.4107    Y=             -0.0000    Z=             -0.0000  Tot=              1.4107
 Quadrupole moment (field-independent basis, Debye-Ang):
   XX=             -7.4272   YY=             -6.5255   ZZ=             -6.5255
   XY=             -0.0000   XZ=             -0.0000   YZ=             -0.0000

  Exact polarizability:       9.012       0.000       2.570      -0.000       0.000       2.570
 Approx polarizability:       9.127       0.000       2.619       0.000       0.000       2.619

 ******    2 imaginary frequencies (negative Signs) ******

                      1                      2                      3
                      A                      A                      A
 Frequencies --  -2859.7607             -2859.7607              1935.5096
 Red. masses --      1.0218                 1.0218                 1.0556
 Frc consts  --      4.9234                 4.9234                 2.3299
 IR Inten    --    110.4867               110.4867                70.7371

                      4
                      A
 Frequencies --   7461.0812
 Red. masses --      1.0559
 Frc consts  --     34.6330
 IR Inten    --     79.8159

 - Thermochemistry -
 -------------------
 Temperature   298.150 Kelvin.  Pressure   1.00000 Atm.
 Atom     1 has atomic number  1 and mass   1.00783

 Molecular mass:    21.01405 amu.
 Principal axes and moments of inertia in atomic units:
                           1         2         3
     Eigenvalues --     0.00000  11.96761  11.96761
           X            1.00000  -0.00000   0.00000
           Y            0.00000   1.00000   0.00000
           Z            0.00000   0.00000   1.00000
 This molecule is a prolate symmetric top.
 Rotational symmetry number  1.
 Rotational temperature (Kelvin)      7.23736
 Rotational constant (GHZ):         150.802106
    2 imaginary frequencies ignored.
 Zero-point vibrational energy      56204.1 (Joules/Mol)
                                   13.43310 (Kcal/Mol)
 Vibrational temperatures:   2784.77 10734.83
          (Kelvin)

 Zero-point correction=                           0.021407 (Hartree/Particle)
 Thermal correction to Energy=                    0.023768
 Thermal correction to Enthalpy=                  0.024712
 Thermal correction to Gibbs Free Energy=         0.002940
 Sum of electronic and zero-point Energies=           -100.866016
 Sum of electronic and thermal Energies=              -100.863654
 Sum of electronic and thermal Enthalpies=            -100.862710
 Sum of electronic and thermal Free Energies=         -100.884482

                     E (Thermal)             CV                S
                      KCal/Mol        Cal/Mol-Kelvin    Cal/Mol-Kelvin
 Total                   14.915              4.983             45.824
 Electronic               0.000              0.000              1.377
 Translational            0.889              2.981             35.068
 Rotational               0.592              1.987              9.376
 Vibrational             13.434              0.015              0.002

 Normal termination of Gaussian 16 at Fri Aug 22 15:48:04 2025.
