 Gaussian 16, Revision C.01,
 Gaussian 16:  ES64L-G16RevC.01  3-Jul-2019

 -----------------------------------------
 # sp b3lyp/6-311g** Force nosymm scf=(qc)
 -----------------------------------------

 -------------------
 Title Card Required
 -------------------
 Symbolic Z-matrix:
 Charge =  0 Multiplicity = 2

                          Input orientation:
 ---------------------------------------------------------------------
 Center     Atomic      Atomic             Coordinates (Angstroms)
 Number     Number       Type             X           Y           Z
 ---------------------------------------------------------------------
      1          1           0        0.000000    0.000000    0.000000
      2          1           0       -3.200000    0.000000    0.000000
      3          9           0        1.400000    0.000000    0.000000
 ---------------------------------------------------------------------

 SCF Done:  E(UB3LYP) =  -100.877451630     a.u. after    7 cycles

 Alpha  occ. eigenvalues --  -24.64331  -1.10256  -0.44546  -0.36676  -0.36676
 Alpha  occ. eigenvalues --   -0.34290
 Alpha virt. eigenvalues --   -0.11778   0.21215   0.27946   0.93151   0.93151
 Alpha virt. eigenvalues --    1.03172   1.15553   1.23229   1.23229   1.23471
 Alpha virt. eigenvalues --    1.32677   1.32677   1.71863   2.13803   2.21342

  Beta  occ. eigenvalues --  -24.64307  -1.10195  -0.44480  -0.36654  -0.36654
  Beta virt. eigenvalues --   -0.12541  -0.06617   0.24403   0.37878   0.93144
  Beta virt. eigenvalues --    0.93144   1.03237   1.15651   1.32591   1.32591
  Beta virt. eigenvalues --    1.45305   1.45769   1.45769   1.71903   2.21196

 Mulliken charges and spin densities:
               1          2
     1  H    0.354561  -0.003807
     2  H    0.003360   0.996340
     3  F   -0.357921   0.007467
 Sum of Mulliken charges =   0.00000   1.00000

 Dipole moment (field-independent basis, Debye):
    X=             -2.5448    Y=             -0.0000    Z=             -0.0000  Tot=              2.5448
 Quadrupole moment (field-independent basis, Debye-Ang):
   XX=             -9.4508   YY=             -7.2648   ZZ=             -7.2648
   XY=             -0.0000   XZ=             -0.0000   YZ=             -0.0000

  Exact polarizability:      14.239       0.000       2.236      -0.000      -0.000       2.236
 Approx polarizability:      23.375      -0.000       2.170       0.000       0.000       2.170

 ******    2 imaginary frequencies (negative Signs) ******

                      1                      2                      3
                      A                      A                      A
 Frequencies --  -1026.3117              -102.9831              1086.3884
 Red. masses --      1.0564                 1.0551                 1.0302
 Frc consts  --      0.6556                 0.0066                 0.7164
 IR Inten    --     61.2942                 0.3744               123.4675

                      4
                      A
 Frequencies --   1086.3884
 Red. masses --      1.0302
 Frc consts  --      0.7164
 IR Inten    --    123.4675

 - Thermochemistry -
 -------------------
 Temperature   298.150 Kelvin.  Pressure   1.00000 Atm.
 Atom     1 has atomic number  1 and mass   1.00783

 Molecular mass:    21.01405 amu.
 Principal axes and moments of inertia in atomic units:
                           1         2         3
     Eigenvalues --     0.00000  76.99523  76.99523
           X            1.00000  -0.00000   0.00000
           Y            0.00000   1.00000   0.00000
           Z            0.00000   0.00000   1.00000
 This molecule is a prolate symmetric top.
 Rotational symmetry number  1.
 Rotational temperature (Kelvin)      1.12493
 Rotational constant (GHZ):          23.439650
    2 imaginary frequencies ignored.
 Zero-point vibrational energy      12996.1 (Joules/Mol)
                                    3.10614 (Kcal/Mol)
 Vibrational temperatures:   1563.07  1563.07
          (Kelvin)

 Zero-point correction=                           0.004950 (Hartree/Particle)
 Thermal correction to Energy=                    0.007363
 Thermal correction to Enthalpy=                  0.008307
 Thermal correction to Gibbs Free Energy=        -0.015284
 Sum of electronic and zero-point Energies=           -100.872502
 Sum of electronic and thermal Energies=              -100.870089
 Sum of electronic and thermal Enthalpies=            -100.869144
 Sum of electronic and thermal Free Energies=         -100.892736

                     E (Thermal)             CV                S
                      KCal/Mol        Cal/Mol-Kelvin    Cal/Mol-Kelvin
 Total                    4.620              5.552             49.653
 Electronic               0.000              0.000              1.377
 Translational            0.889              2.981             35.068
 Rotational               0.592              1.987             13.076
 Vibrational              3.139              0.584              0.132

 Normal termination of Gaussian 16 at Fri Aug 22 16:21:00 2025.
