 Gaussian 16, Revision C.01,
 Gaussian 16:  ES64L-G16RevC.01  3-Jul-2019

 -----------------------------------------
 # sp b3lyp/6-311g** Force nosymm scf=(qc)
 -----------------------------------------

 -------------------
 Title Card Required
 -------------------
 Symbolic Z-matrix:
 Charge =  0 Multiplicity = 2

                          Input orientation:
 ---------------------------------------------------------------------
 Center     Atomic      Atomic             Coordinates (Angstroms)
 Number     Number       Type             X           Y           Z
 ---------------------------------------------------------------------
      1          1           0        0.000000    0.000000    0.000000
      2          1           0       -3.300000    0.000000    0.000000
      3          9           0        2.700000    0.000000    0.000000
 ---------------------------------------------------------------------

 SCF Done:  E(UB3LYP) =  -100.764260166     a.u. after   20 cycles

 Alpha  occ. eigenvalues --  -24.72817  -1.18966  -0.51930  -0.43613  -0.43613
 Alpha  occ. eigenvalues --   -0.32816
 Alpha virt. eigenvalues --   -0.09536   0.23934   0.35439   0.90009   0.93021
 Alpha virt. eigenvalues --    0.93021   1.05642   1.24701   1.24701   1.25051
 Alpha virt. eigenvalues --    1.42087   1.42087   1.43391   2.14897   2.37575

  Beta  occ. eigenvalues --  -24.69884  -1.10588  -0.40682  -0.40682  -0.34615
  Beta virt. eigenvalues --   -0.24025  -0.07050   0.24239   0.37528   0.94444
  Beta virt. eigenvalues --    0.94444   0.97859   1.08774   1.22728   1.22728
  Beta virt. eigenvalues --    1.25638   1.45314   1.45563   1.45563   2.14289

 Mulliken charges and spin densities:
               1          2
     1  H    0.063469  -0.924813
     2  H    0.001155   0.996597
     3  F   -0.064624   0.928216
 Sum of Mulliken charges =  -0.00000   1.00000

 Dipole moment (field-independent basis, Debye):
    X=             -0.9111    Y=             -0.0000    Z=              0.0000  Tot=              0.9111
 Quadrupole moment (field-independent basis, Debye-Ang):
   XX=             -8.8772   YY=             -7.5945   ZZ=             -7.5945
   XY=             -0.0000   XZ=              0.0000   YZ=             -0.0000

  Exact polarizability:      33.016      -0.000       2.022       0.000       0.000       2.022
 Approx polarizability:      38.079       0.000       1.921      -0.000      -0.000       1.921

 ******    2 imaginary frequencies (negative Signs) ******

                      1                      2                      3
                      A                      A                      A
 Frequencies --   -517.1254              -150.3861               193.4827
 Red. masses --      1.0481                 1.0635                 1.0206
 Frc consts  --      0.1651                 0.0142                 0.0225
 IR Inten    --     62.1206                 1.0080                 3.7712

                      4
                      A
 Frequencies --    193.4827
 Red. masses --      1.0206
 Frc consts  --      0.0225
 IR Inten    --      3.7712

 - Thermochemistry -
 -------------------
 Temperature   298.150 Kelvin.  Pressure   1.00000 Atm.
 Atom     1 has atomic number  1 and mass   1.00783

 Molecular mass:    21.01405 amu.
 Principal axes and moments of inertia in atomic units:
                           1         2         3
     Eigenvalues --     0.00000 142.73646 142.73646
           X            1.00000  -0.00000   0.00000
           Y            0.00000   1.00000   0.00000
           Z            0.00000   0.00000   1.00000
 This molecule is a prolate symmetric top.
 Rotational symmetry number  1.
 Rotational temperature (Kelvin)      0.60681
 Rotational constant (GHZ):          12.643870
    2 imaginary frequencies ignored.
 Zero-point vibrational energy       2314.6 (Joules/Mol)
                                    0.55319 (Kcal/Mol)
 Warning -- explicit consideration of   2 degrees of freedom as
           vibrations may cause significant error
 Vibrational temperatures:    278.38   278.38
          (Kelvin)

 Zero-point correction=                           0.000882 (Hartree/Particle)
 Thermal correction to Energy=                    0.004384
 Thermal correction to Enthalpy=                  0.005328
 Thermal correction to Gibbs Free Energy=        -0.020869
 Sum of electronic and zero-point Energies=           -100.763379
 Sum of electronic and thermal Energies=              -100.759876
 Sum of electronic and thermal Enthalpies=            -100.758932
 Sum of electronic and thermal Free Energies=         -100.785129

                     E (Thermal)             CV                S
                      KCal/Mol        Cal/Mol-Kelvin    Cal/Mol-Kelvin
 Total                    2.751              8.666             55.136
 Electronic               0.000              0.000              1.377
 Translational            0.889              2.981             35.068
 Rotational               0.592              1.987             14.302
 Vibrational              1.270              3.698              4.388
 Vibration     1          0.635              1.849              2.194
 Vibration     2          0.635              1.849              2.194

 Normal termination of Gaussian 16 at Fri Aug 22 18:26:42 2025.
