 Gaussian 16, Revision C.01,
 Gaussian 16:  ES64L-G16RevC.01  3-Jul-2019

 -----------------------------------------
 # sp b3lyp/6-311g** Force nosymm scf=(qc)
 -----------------------------------------

 -------------------
 Title Card Required
 -------------------
 Symbolic Z-matrix:
 Charge =  0 Multiplicity = 2

                          Input orientation:
 ---------------------------------------------------------------------
 Center     Atomic      Atomic             Coordinates (Angstroms)
 Number     Number       Type             X           Y           Z
 ---------------------------------------------------------------------
      1          1           0        0.000000    0.000000    0.000000
      2          1           0       -3.400000    0.000000    0.000000
      3          9           0        3.950000    0.000000    0.000000
 ---------------------------------------------------------------------

 SCF Done:  E(UB3LYP) =  -100.758764771     a.u. after   34 cycles

 Alpha  occ. eigenvalues --  -24.75856  -1.21785  -0.54981  -0.46163  -0.46163
 Alpha  occ. eigenvalues --   -0.32274
 Alpha virt. eigenvalues --   -0.06831   0.24488   0.37514   0.86623   0.91185
 Alpha virt. eigenvalues --    0.91185   1.01117   1.25233   1.25233   1.25445
 Alpha virt. eigenvalues --    1.45363   1.45600   1.45600   2.15239   2.40923

  Beta  occ. eigenvalues --  -24.72712  -1.12745  -0.43011  -0.43011  -0.32478
  Beta virt. eigenvalues --   -0.25720  -0.06611   0.24331   0.37817   0.92683
  Beta virt. eigenvalues --    0.92683   0.95987   1.05238   1.25013   1.25013
  Beta virt. eigenvalues --    1.25210   1.45703   1.45932   1.45932   2.15236

 Mulliken charges and spin densities:
               1          2
     1  H    0.002758  -0.994065
     2  H    0.000095   0.997242
     3  F   -0.002853   0.996823
 Sum of Mulliken charges =  -0.00000   1.00000

 Dipole moment (field-independent basis, Debye):
    X=             -0.0600    Y=              0.0000    Z=              0.0000  Tot=              0.0600
 Quadrupole moment (field-independent basis, Debye-Ang):
   XX=             -6.9200   YY=             -7.6255   ZZ=             -7.6255
   XY=              0.0000   XZ=              0.0000   YZ=              0.0000

  Exact polarizability:      12.173       0.000       2.033       0.000       0.000       2.033
 Approx polarizability:       9.086       0.000       1.936       0.000       0.000       1.936

 ******    2 imaginary frequencies (negative Signs) ******

                      1                      2                      3
                      A                      A                      A
 Frequencies --   -214.1814               -73.2677                72.8160
 Red. masses --      1.0099                 1.1060                 1.0162
 Frc consts  --      0.0273                 0.0035                 0.0032
 IR Inten    --      0.9405                 0.5733                 0.0071

                      4
                      A
 Frequencies --     72.8160
 Red. masses --      1.0162
 Frc consts  --      0.0032
 IR Inten    --      0.0071

 - Thermochemistry -
 -------------------
 Temperature   298.150 Kelvin.  Pressure   1.00000 Atm.
 Atom     1 has atomic number  1 and mass   1.00783

 Molecular mass:    21.01405 amu.
 Principal axes and moments of inertia in atomic units:
                           1         2         3
     Eigenvalues --     0.00000 228.54079 228.54079
           X            1.00000  -0.00000   0.00000
           Y            0.00000   1.00000   0.00000
           Z            0.00000   0.00000   1.00000
 This molecule is a prolate symmetric top.
 Rotational symmetry number  1.
 Rotational temperature (Kelvin)      0.37899
 Rotational constant (GHZ):           7.896801
    2 imaginary frequencies ignored.
 Zero-point vibrational energy        871.1 (Joules/Mol)
                                    0.20819 (Kcal/Mol)
 Warning -- explicit consideration of   2 degrees of freedom as
           vibrations may cause significant error
 Vibrational temperatures:    104.77   104.77
          (Kelvin)

 Zero-point correction=                           0.000332 (Hartree/Particle)
 Thermal correction to Energy=                    0.004268
 Thermal correction to Enthalpy=                  0.005212
 Thermal correction to Gibbs Free Energy=        -0.023217
 Sum of electronic and zero-point Energies=           -100.758433
 Sum of electronic and thermal Energies=              -100.754497
 Sum of electronic and thermal Enthalpies=            -100.753552
 Sum of electronic and thermal Free Energies=         -100.781982

                     E (Thermal)             CV                S
                      KCal/Mol        Cal/Mol-Kelvin    Cal/Mol-Kelvin
 Total                    2.678              8.902             59.835
 Electronic               0.000              0.000              1.377
 Translational            0.889              2.981             35.068
 Rotational               0.592              1.987             15.238
 Vibrational              1.197              3.934              8.151
 Vibration     1          0.599              1.967              4.076
 Vibration     2          0.599              1.967              4.076

 Normal termination of Gaussian 16 at Sat Aug 23 01:41:39 2025.
