 Gaussian 16, Revision C.01,
 Gaussian 16:  ES64L-G16RevC.01  3-Jul-2019

 -----------------------------------------
 # sp b3lyp/6-311g** Force nosymm scf=(qc)
 -----------------------------------------

 -------------------
 Title Card Required
 -------------------
 Symbolic Z-matrix:
 Charge =  0 Multiplicity = 2

                          Input orientation:
 ---------------------------------------------------------------------
 Center     Atomic      Atomic             Coordinates (Angstroms)
 Number     Number       Type             X           Y           Z
 ---------------------------------------------------------------------
      1          1           0        0.000000    0.000000    0.000000
      2          1           0       -2.200000    0.000000    0.000000
      3          9           0        3.000000    0.000000    0.000000
 ---------------------------------------------------------------------

 SCF Done:  E(UB3LYP) =  -100.769755321     a.u. after   23 cycles

 Alpha  occ. eigenvalues --  -24.74231  -1.20276  -0.53349  -0.44794  -0.44794
 Alpha  occ. eigenvalues --   -0.33431
 Alpha virt. eigenvalues --   -0.11325   0.25524   0.32690   0.89593   0.92190
 Alpha virt. eigenvalues --    0.92190   1.03966   1.23321   1.24406   1.24406
 Alpha virt. eigenvalues --    1.38018   1.38018   1.44256   2.13464   2.35443

  Beta  occ. eigenvalues --  -24.71197  -1.11578  -0.41756  -0.41756  -0.33825
  Beta virt. eigenvalues --   -0.24895  -0.10443   0.25859   0.33544   0.93653
  Beta virt. eigenvalues --    0.93653   0.98359   1.07899   1.22851   1.23897
  Beta virt. eigenvalues --    1.23897   1.39434   1.39434   1.45481   2.14660

 Mulliken charges and spin densities:
               1          2
     1  H    0.023520  -0.888208
     2  H    0.010739   0.926776
     3  F   -0.034259   0.961432
 Sum of Mulliken charges =  -0.00000   1.00000

 Dipole moment (field-independent basis, Debye):
    X=             -0.6399    Y=             -0.0000    Z=             -0.0000  Tot=              0.6399
 Quadrupole moment (field-independent basis, Debye-Ang):
   XX=             -7.6276   YY=             -7.6835   ZZ=             -7.6835
   XY=             -0.0000   XZ=             -0.0000   YZ=             -0.0000

  Exact polarizability:      52.989      -0.000       2.008      -0.000      -0.000       2.008
 Approx polarizability:      46.522      -0.000       1.924      -0.000       0.000       1.924

 ******    2 imaginary frequencies (negative Signs) ******

                      1                      2                      3
                      A                      A                      A
 Frequencies --  -1043.1188              -243.0108               402.6790
 Red. masses --      1.0083                 1.1080                 1.0146
 Frc consts  --      0.6464                 0.0386                 0.0969
 IR Inten    --     25.0668                25.7982                 0.3254

                      4
                      A
 Frequencies --    402.6790
 Red. masses --      1.0146
 Frc consts  --      0.0969
 IR Inten    --      0.3254

 - Thermochemistry -
 -------------------
 Temperature   298.150 Kelvin.  Pressure   1.00000 Atm.
 Atom     1 has atomic number  1 and mass   1.00783

 Molecular mass:    21.01405 amu.
 Principal axes and moments of inertia in atomic units:
                           1         2         3
     Eigenvalues --     0.00000 118.10218 118.10218
           X            1.00000  -0.00000   0.00000
           Y            0.00000   1.00000   0.00000
           Z            0.00000   0.00000   1.00000
 This molecule is a prolate symmetric top.
 Rotational symmetry number  1.
 Rotational temperature (Kelvin)      0.73338
 Rotational constant (GHZ):          15.281185
    2 imaginary frequencies ignored.
 Zero-point vibrational energy       4817.1 (Joules/Mol)
                                    1.15132 (Kcal/Mol)
 Warning -- explicit consideration of   2 degrees of freedom as
           vibrations may cause significant error
 Vibrational temperatures:    579.37   579.37
          (Kelvin)

 Zero-point correction=                           0.001835 (Hartree/Particle)
 Thermal correction to Energy=                    0.004809
 Thermal correction to Enthalpy=                  0.005753
 Thermal correction to Gibbs Free Energy=        -0.019086
 Sum of electronic and zero-point Energies=           -100.767921
 Sum of electronic and thermal Energies=              -100.764947
 Sum of electronic and thermal Enthalpies=            -100.764002
 Sum of electronic and thermal Free Energies=         -100.788841

                     E (Thermal)             CV                S
                      KCal/Mol        Cal/Mol-Kelvin    Cal/Mol-Kelvin
 Total                    3.018              7.897             52.277
 Electronic               0.000              0.000              1.377
 Translational            0.889              2.981             35.068
 Rotational               0.592              1.987             13.926
 Vibrational              1.536              2.929              1.906
 Vibration     1          0.768              1.464              0.953
 Vibration     2          0.768              1.464              0.953

 Normal termination of Gaussian 16 at Fri Aug 22 19:31:42 2025.
