 Gaussian 16, Revision C.01,
 Gaussian 16:  ES64L-G16RevC.01  3-Jul-2019

 -----------------------------------------
 # sp b3lyp/6-311g** Force nosymm scf=(qc)
 -----------------------------------------

 -------------------
 Title Card Required
 -------------------
 Symbolic Z-matrix:
 Charge =  0 Multiplicity = 2

                          Input orientation:
 ---------------------------------------------------------------------
 Center     Atomic      Atomic             Coordinates (Angstroms)
 Number     Number       Type             X           Y           Z
 ---------------------------------------------------------------------
      1          1           0        0.000000    0.000000    0.000000
      2          1           0       -2.200000    0.000000    0.000000
      3          9           0        3.700000    0.000000    0.000000
 ---------------------------------------------------------------------

 SCF Done:  E(UB3LYP) =  -100.767709035     a.u. after   38 cycles

 Alpha  occ. eigenvalues --  -24.75758  -1.21694  -0.54882  -0.46083  -0.46083
 Alpha  occ. eigenvalues --   -0.32805
 Alpha virt. eigenvalues --   -0.10335   0.25954   0.33461   0.87037   0.91239
 Alpha virt. eigenvalues --    0.91239   1.01339   1.23550   1.25039   1.25039
 Alpha virt. eigenvalues --    1.39454   1.39454   1.45513   2.14145   2.35447

  Beta  occ. eigenvalues --  -24.72623  -1.12682  -0.42940  -0.42940  -0.32926
  Beta virt. eigenvalues --   -0.25699  -0.10092   0.25796   0.33846   0.92735
  Beta virt. eigenvalues --    0.92735   0.96321   1.05433   1.23439   1.24896
  Beta virt. eigenvalues --    1.24896   1.39801   1.39801   1.45796   2.14492

 Mulliken charges and spin densities:
               1          2
     1  H    0.002367  -0.918569
     2  H    0.002901   0.924646
     3  F   -0.005268   0.993923
 Sum of Mulliken charges =   0.00000   1.00000

 Dipole moment (field-independent basis, Debye):
    X=             -0.1302    Y=              0.0000    Z=              0.0000  Tot=              0.1302
 Quadrupole moment (field-independent basis, Debye-Ang):
   XX=             -6.6516   YY=             -7.6996   ZZ=             -7.6996
   XY=              0.0000   XZ=              0.0000   YZ=             -0.0000

  Exact polarizability:      32.788       0.000       2.011      -0.000      -0.000       2.011
 Approx polarizability:      26.211       0.000       1.931       0.000       0.000       1.931

 ******    2 imaginary frequencies (negative Signs) ******

                      1                      2                      3
                      A                      A                      A
 Frequencies --  -1021.8388              -106.8745               396.1983
 Red. masses --      1.0078                 1.1085                 1.0129
 Frc consts  --      0.6200                 0.0075                 0.0937
 IR Inten    --      2.9086                 2.8624                 0.0015

                      4
                      A
 Frequencies --    396.1983
 Red. masses --      1.0129
 Frc consts  --      0.0937
 IR Inten    --      0.0015

 - Thermochemistry -
 -------------------
 Temperature   298.150 Kelvin.  Pressure   1.00000 Atm.
 Atom     1 has atomic number  1 and mass   1.00783

 Molecular mass:    21.01405 amu.
 Principal axes and moments of inertia in atomic units:
                           1         2         3
     Eigenvalues --     0.00000 158.64446 158.64446
           X            1.00000  -0.00000   0.00000
           Y            0.00000   1.00000   0.00000
           Z            0.00000   0.00000   1.00000
 This molecule is a prolate symmetric top.
 Rotational symmetry number  1.
 Rotational temperature (Kelvin)      0.54596
 Rotational constant (GHZ):          11.376011
    2 imaginary frequencies ignored.
 Zero-point vibrational energy       4739.6 (Joules/Mol)
                                    1.13279 (Kcal/Mol)
 Warning -- explicit consideration of   2 degrees of freedom as
           vibrations may cause significant error
 Vibrational temperatures:    570.04   570.04
          (Kelvin)

 Zero-point correction=                           0.001805 (Hartree/Particle)
 Thermal correction to Energy=                    0.004792
 Thermal correction to Enthalpy=                  0.005736
 Thermal correction to Gibbs Free Energy=        -0.019404
 Sum of electronic and zero-point Energies=           -100.765904
 Sum of electronic and thermal Energies=              -100.762917
 Sum of electronic and thermal Enthalpies=            -100.761973
 Sum of electronic and thermal Free Energies=         -100.787113

                     E (Thermal)             CV                S
                      KCal/Mol        Cal/Mol-Kelvin    Cal/Mol-Kelvin
 Total                    3.007              7.925             52.911
 Electronic               0.000              0.000              1.377
 Translational            0.889              2.981             35.068
 Rotational               0.592              1.987             14.512
 Vibrational              1.526              2.957              1.953
 Vibration     1          0.763              1.478              0.977
 Vibration     2          0.763              1.478              0.977

 Normal termination of Gaussian 16 at Sat Aug 23 00:02:51 2025.
