 Gaussian 16, Revision C.01,
 Gaussian 16:  ES64L-G16RevC.01  3-Jul-2019

 -----------------------------------------
 # sp b3lyp/6-311g** Force nosymm scf=(qc)
 -----------------------------------------

 -------------------
 Title Card Required
 -------------------
 Symbolic Z-matrix:
 Charge =  0 Multiplicity = 2

                          Input orientation:
 ---------------------------------------------------------------------
 Center     Atomic      Atomic             Coordinates (Angstroms)
 Number     Number       Type             X           Y           Z
 ---------------------------------------------------------------------
      1          1           0        0.000000    0.000000    0.000000
      2          1           0       -0.800000    0.000000    0.000000
      3          9           0        2.750000    0.000000    0.000000
 ---------------------------------------------------------------------

 SCF Done:  E(UB3LYP) =  -100.932699039     a.u. after  101 cycles

 Alpha  occ. eigenvalues --  -24.76786  -1.22572  -0.55756  -0.47104  -0.46904
 Alpha  occ. eigenvalues --   -0.41857
 Alpha virt. eigenvalues --    0.05380   0.20511   0.45869   0.85730   0.90599
 Alpha virt. eigenvalues --    0.93724   1.08507   1.08518   1.08635   1.52530
 Alpha virt. eigenvalues --    1.79174   1.79186   2.06370   2.39347   3.05609

  Beta  occ. eigenvalues --  -24.73623  -1.13481  -0.44101  -0.43732  -0.41684
  Beta virt. eigenvalues --   -0.26371   0.05440   0.20552   0.45979   0.92096
  Beta virt. eigenvalues --    0.95181   0.95637   1.08509   1.08517   1.12205
  Beta virt. eigenvalues --    1.52535   1.79172   1.79185   2.06390   2.39355

 Mulliken charges and spin densities:
               1          2
     1  H   -0.006431  -0.001451
     2  H   -0.005949  -0.000307
     3  F    0.012380   1.001757
 Sum of Mulliken charges =   0.00000   1.00000

 Dipole moment (field-independent basis, Debye):
    X=              0.1255    Y=             -0.0000    Z=             -0.0000  Tot=              0.1255
 Quadrupole moment (field-independent basis, Debye-Ang):
   XX=             -6.0544   YY=             -6.5979   ZZ=             -6.5995
   XY=              0.0000   XZ=              0.0000   YZ=              0.4316

  Exact polarizability:       9.532       0.000       2.224       0.000       0.227       2.223
 Approx polarizability:      11.052       0.000       2.357       0.000       0.286       2.356

                      1                      2                      3
                      A                      A                      A
 Frequencies --    102.2710              1081.6014              1082.6142
 Red. masses --      1.1085                 1.0094                 1.0094
 Frc consts  --      0.0068                 0.6958                 0.6971
 IR Inten    --      0.4489                 0.0068                 0.0082

                      4
                      A
 Frequencies --   3695.6243
 Red. masses --      1.0078
 Frc consts  --      8.1098
 IR Inten    --      1.3666

 - Thermochemistry -
 -------------------
 Temperature   298.150 Kelvin.  Pressure   1.00000 Atm.
 Atom     1 has atomic number  1 and mass   1.00783

 Molecular mass:    21.01405 amu.
 Principal axes and moments of inertia in atomic units:
                           1         2         3
     Eigenvalues --     0.00000  65.72324  65.72324
           X            1.00000  -0.00000   0.00000
           Y            0.00000   1.00000   0.00000
           Z            0.00000   0.00000   1.00000
 This molecule is a prolate symmetric top.
 Rotational symmetry number  1.
 Rotational temperature (Kelvin)      1.31786
 Rotational constant (GHZ):          27.459712
 Zero-point vibrational energy      35661.3 (Joules/Mol)
                                    8.52327 (Kcal/Mol)
 Warning -- explicit consideration of   1 degrees of freedom as
           vibrations may cause significant error
 Vibrational temperatures:    147.15  1556.18  1557.64  5317.18
          (Kelvin)

 Zero-point correction=                           0.013583 (Hartree/Particle)
 Thermal correction to Energy=                    0.016727
 Thermal correction to Enthalpy=                  0.017671
 Thermal correction to Gibbs Free Energy=        -0.007393
 Sum of electronic and zero-point Energies=           -100.919116
 Sum of electronic and thermal Energies=              -100.915972
 Sum of electronic and thermal Enthalpies=            -100.915028
 Sum of electronic and thermal Free Energies=         -100.940092

                     E (Thermal)             CV                S
                      KCal/Mol        Cal/Mol-Kelvin    Cal/Mol-Kelvin
 Total                   10.496              7.507             52.751
 Electronic               0.000              0.000              1.377
 Translational            0.889              2.981             35.068
 Rotational               0.592              1.987             12.761
 Vibrational              9.015              2.539              3.545
 Vibration     1          0.604              1.947              3.411

 Normal termination of Gaussian 16 at Fri Aug 22 18:29:01 2025.
