 Gaussian 16, Revision C.01,
 Gaussian 16:  ES64L-G16RevC.01  3-Jul-2019

 -----------------------------------------
 # sp b3lyp/6-311g** Force nosymm scf=(qc)
 -----------------------------------------

 -------------------
 Title Card Required
 -------------------
 Symbolic Z-matrix:
 Charge =  0 Multiplicity = 2

                          Input orientation:
 ---------------------------------------------------------------------
 Center     Atomic      Atomic             Coordinates (Angstroms)
 Number     Number       Type             X           Y           Z
 ---------------------------------------------------------------------
      1          1           0        0.000000    0.000000    0.000000
      2          1           0       -1.150000    0.000000    0.000000
      3          9           0        3.100000    0.000000    0.000000
 ---------------------------------------------------------------------

 SCF Done:  E(UB3LYP) =  -100.881210143     a.u. after  135 cycles

 Alpha  occ. eigenvalues --  -24.76610  -1.22440  -0.55632  -0.46867  -0.46783
 Alpha  occ. eigenvalues --   -0.36782
 Alpha virt. eigenvalues --   -0.02809   0.22606   0.35401   0.85814   0.90687
 Alpha virt. eigenvalues --    0.93278   1.03308   1.11896   1.11901   1.25980
 Alpha virt. eigenvalues --    1.57197   1.57202   2.13040   2.33580   2.55607

  Beta  occ. eigenvalues --  -24.73450  -1.13356  -0.43707  -0.43614  -0.36771
  Beta virt. eigenvalues --   -0.26260  -0.02793   0.22625   0.35471   0.92187
  Beta virt. eigenvalues --    0.94924   0.95273   1.07216   1.11895   1.11900
  Beta virt. eigenvalues --    1.25989   1.57196   1.57202   2.13051   2.33584

 Mulliken charges and spin densities:
               1          2
     1  H   -0.001475  -0.000380
     2  H   -0.005381  -0.000501
     3  F    0.006856   1.000881
 Sum of Mulliken charges =   0.00000   1.00000

 Dipole moment (field-independent basis, Debye):
    X=              0.0902    Y=             -0.0000    Z=              0.0000  Tot=              0.0902
 Quadrupole moment (field-independent basis, Debye-Ang):
   XX=             -6.1658   YY=             -6.7779   ZZ=             -7.2556
   XY=             -0.0000   XZ=              0.0000   YZ=             -0.3598

  Exact polarizability:      15.391       0.000       2.438       0.000      -0.192       2.183
 Approx polarizability:      22.097      -0.000       2.564       0.000      -0.242       2.244

                      1                      2                      3
                      A                      A                      A
 Frequencies --     35.6517               584.7449              1501.6904
 Red. masses --      1.1085                 1.0078                 1.0102
 Frc consts  --      0.0008                 0.2030                 1.3423
 IR Inten    --      0.4044                 0.6572                 0.0008

                      4
                      A
 Frequencies --   1502.7117
 Red. masses --      1.0102
 Frc consts  --      1.3441
 IR Inten    --      0.0009

 - Thermochemistry -
 -------------------
 Temperature   298.150 Kelvin.  Pressure   1.00000 Atm.
 Atom     1 has atomic number  1 and mass   1.00783

 Molecular mass:    21.01405 amu.
 Principal axes and moments of inertia in atomic units:
                           1         2         3
     Eigenvalues --     0.00000  90.26891  90.26891
           X            1.00000  -0.00000   0.00000
           Y            0.00000   1.00000   0.00000
           Z            0.00000   0.00000   1.00000
 This molecule is a prolate symmetric top.
 Rotational symmetry number  1.
 Rotational temperature (Kelvin)      0.95951
 Rotational constant (GHZ):          19.992944
 Zero-point vibrational energy      21681.1 (Joules/Mol)
                                    5.18191 (Kcal/Mol)
 Warning -- explicit consideration of   2 degrees of freedom as
           vibrations may cause significant error
 Vibrational temperatures:     51.29   841.32  2160.60  2162.07
          (Kelvin)

 Zero-point correction=                           0.008258 (Hartree/Particle)
 Thermal correction to Energy=                    0.011662
 Thermal correction to Enthalpy=                  0.012606
 Thermal correction to Gibbs Free Energy=        -0.013918
 Sum of electronic and zero-point Energies=           -100.872952
 Sum of electronic and thermal Energies=              -100.869548
 Sum of electronic and thermal Enthalpies=            -100.868604
 Sum of electronic and thermal Free Energies=         -100.895128

                     E (Thermal)             CV                S
                      KCal/Mol        Cal/Mol-Kelvin    Cal/Mol-Kelvin
 Total                    7.318              8.163             55.824
 Electronic               0.000              0.000              1.377
 Translational            0.889              2.981             35.068
 Rotational               0.592              1.987             13.392
 Vibrational              5.837              3.195              5.987
 Vibration     1          0.594              1.982              5.487
 Vibration     2          0.942              1.064              0.477

 Normal termination of Gaussian 16 at Fri Aug 22 19:50:16 2025.
