 Gaussian 16, Revision C.01,
 Gaussian 16:  ES64L-G16RevC.01  3-Jul-2019

 -----------------------------------------
 # sp b3lyp/6-311g** Force nosymm scf=(qc)
 -----------------------------------------

 -------------------
 Title Card Required
 -------------------
 Symbolic Z-matrix:
 Charge =  0 Multiplicity = 2

                          Input orientation:
 ---------------------------------------------------------------------
 Center     Atomic      Atomic             Coordinates (Angstroms)
 Number     Number       Type             X           Y           Z
 ---------------------------------------------------------------------
      1          1           0        0.000000    0.000000    0.000000
      2          1           0       -3.150000    0.000000    0.000000
      3          9           0        2.700000    0.000000    0.000000
 ---------------------------------------------------------------------

 SCF Done:  E(UB3LYP) =  -100.764508804     a.u. after   21 cycles

 Alpha  occ. eigenvalues --  -24.72822  -1.18970  -0.51935  -0.43616  -0.43616
 Alpha  occ. eigenvalues --   -0.32890
 Alpha virt. eigenvalues --   -0.09761   0.24133   0.35138   0.90049   0.93018
 Alpha virt. eigenvalues --    0.93018   1.05677   1.24637   1.24637   1.25208
 Alpha virt. eigenvalues --    1.41764   1.41764   1.43108   2.15089   2.37226

  Beta  occ. eigenvalues --  -24.69889  -1.10592  -0.40686  -0.40686  -0.34618
  Beta virt. eigenvalues --   -0.24030  -0.07384   0.24476   0.37152   0.94442
  Beta virt. eigenvalues --    0.94442   0.97934   1.08859   1.22736   1.22736
  Beta virt. eigenvalues --    1.25718   1.44952   1.45121   1.45121   2.14601

 Mulliken charges and spin densities:
               1          2
     1  H    0.062780  -0.923287
     2  H    0.001696   0.995004
     3  F   -0.064476   0.928283
 Sum of Mulliken charges =  -0.00000   1.00000

 Dipole moment (field-independent basis, Debye):
    X=             -0.9163    Y=             -0.0000    Z=              0.0000  Tot=              0.9163
 Quadrupole moment (field-independent basis, Debye-Ang):
   XX=             -8.8382   YY=             -7.5982   ZZ=             -7.5982
   XY=             -0.0000   XZ=             -0.0000   YZ=             -0.0000

  Exact polarizability:      34.031      -0.000       2.021      -0.000      -0.000       2.021
 Approx polarizability:      38.695      -0.000       1.921      -0.000       0.000       1.921

 ******    2 imaginary frequencies (negative Signs) ******

                      1                      2                      3
                      A                      A                      A
 Frequencies --   -529.9434              -176.8029               199.5497
 Red. masses --      1.0439                 1.0679                 1.0199
 Frc consts  --      0.1727                 0.0197                 0.0239
 IR Inten    --     60.9838                 2.0418                 3.6381

                      4
                      A
 Frequencies --    199.5497
 Red. masses --      1.0199
 Frc consts  --      0.0239
 IR Inten    --      3.6381

 - Thermochemistry -
 -------------------
 Temperature   298.150 Kelvin.  Pressure   1.00000 Atm.
 Atom     1 has atomic number  1 and mass   1.00783

 Molecular mass:    21.01405 amu.
 Principal axes and moments of inertia in atomic units:
                           1         2         3
     Eigenvalues --     0.00000 136.78585 136.78585
           X            1.00000  -0.00000   0.00000
           Y            0.00000   1.00000   0.00000
           Z            0.00000   0.00000   1.00000
 This molecule is a prolate symmetric top.
 Rotational symmetry number  1.
 Rotational temperature (Kelvin)      0.63321
 Rotational constant (GHZ):          13.193918
    2 imaginary frequencies ignored.
 Zero-point vibrational energy       2387.1 (Joules/Mol)
                                    0.57054 (Kcal/Mol)
 Warning -- explicit consideration of   2 degrees of freedom as
           vibrations may cause significant error
 Vibrational temperatures:    287.11   287.11
          (Kelvin)

 Zero-point correction=                           0.000909 (Hartree/Particle)
 Thermal correction to Energy=                    0.004393
 Thermal correction to Enthalpy=                  0.005337
 Thermal correction to Gibbs Free Energy=        -0.020766
 Sum of electronic and zero-point Energies=           -100.763600
 Sum of electronic and thermal Energies=              -100.760116
 Sum of electronic and thermal Enthalpies=            -100.759172
 Sum of electronic and thermal Free Energies=         -100.785275

                     E (Thermal)             CV                S
                      KCal/Mol        Cal/Mol-Kelvin    Cal/Mol-Kelvin
 Total                    2.756              8.649             54.937
 Electronic               0.000              0.000              1.377
 Translational            0.889              2.981             35.068
 Rotational               0.592              1.987             14.218
 Vibrational              1.275              3.681              4.274
 Vibration     1          0.638              1.841              2.137
 Vibration     2          0.638              1.841              2.137

 Normal termination of Gaussian 16 at Fri Aug 22 18:26:34 2025.
