 Gaussian 16, Revision C.01,
 Gaussian 16:  ES64L-G16RevC.01  3-Jul-2019

 -----------------------------------------
 # sp b3lyp/6-311g** Force nosymm scf=(qc)
 -----------------------------------------

 -------------------
 Title Card Required
 -------------------
 Symbolic Z-matrix:
 Charge =  0 Multiplicity = 2

                          Input orientation:
 ---------------------------------------------------------------------
 Center     Atomic      Atomic             Coordinates (Angstroms)
 Number     Number       Type             X           Y           Z
 ---------------------------------------------------------------------
      1          1           0        0.000000    0.000000    0.000000
      2          1           0       -1.950000    0.000000    0.000000
      3          9           0        1.050000    0.000000    0.000000
 ---------------------------------------------------------------------

 SCF Done:  E(UB3LYP) =  -100.959576630     a.u. after    6 cycles

 Alpha  occ. eigenvalues --  -24.63762  -1.14539  -0.50698  -0.38043  -0.38043
 Alpha  occ. eigenvalues --   -0.36384
 Alpha virt. eigenvalues --    0.02510   0.23790   0.32069   0.94161   0.94161
 Alpha virt. eigenvalues --    0.99086   1.13458   1.20780   1.20780   1.36242
 Alpha virt. eigenvalues --    1.36242   1.49554   1.82173   2.18005   2.34598

  Beta  occ. eigenvalues --  -24.63655  -1.14272  -0.50093  -0.37948  -0.37948
  Beta virt. eigenvalues --   -0.13348   0.05096   0.31506   0.34440   0.94174
  Beta virt. eigenvalues --    0.94174   0.99539   1.22790   1.34850   1.34850
  Beta virt. eigenvalues --    1.41166   1.41166   1.57196   1.85170   2.33247

 Mulliken charges and spin densities:
               1          2
     1  H    0.314087   0.002321
     2  H    0.021031   0.967702
     3  F   -0.335118   0.029977
 Sum of Mulliken charges =   0.00000   1.00000

 Dipole moment (field-independent basis, Debye):
    X=             -2.3222    Y=              0.0000    Z=             -0.0000  Tot=              2.3222
 Quadrupole moment (field-independent basis, Debye-Ang):
   XX=             -7.8736   YY=             -6.9591   ZZ=             -6.9591
   XY=              0.0000   XZ=             -0.0000   YZ=              0.0000

  Exact polarizability:      11.999      -0.000       2.446      -0.000      -0.000       2.446
 Approx polarizability:      13.498      -0.000       2.425       0.000      -0.000       2.425

 ******    1 imaginary frequencies (negative Signs) ******

                      1                      2                      3
                      A                      A                      A
 Frequencies --   -125.8828              1070.4249              1070.4249
 Red. masses --      1.0501                 1.0269                 1.0269
 Frc consts  --      0.0098                 0.6932                 0.6932
 IR Inten    --      5.4487               125.0585               125.0585

                      4
                      A
 Frequencies --   2364.7673
 Red. masses --      1.0615
 Frc consts  --      3.4974
 IR Inten    --    199.1486

 - Thermochemistry -
 -------------------
 Temperature   298.150 Kelvin.  Pressure   1.00000 Atm.
 Atom     1 has atomic number  1 and mass   1.00783

 Molecular mass:    21.01405 amu.
 Principal axes and moments of inertia in atomic units:
                           1         2         3
     Eigenvalues --     0.00000  33.52780  33.52780
           X            1.00000  -0.00000   0.00000
           Y            0.00000   1.00000   0.00000
           Z            0.00000   0.00000   1.00000
 This molecule is a prolate symmetric top.
 Rotational symmetry number  1.
 Rotational temperature (Kelvin)      2.58335
 Rotational constant (GHZ):          53.828204
    1 imaginary frequencies ignored.
 Zero-point vibrational energy      26949.6 (Joules/Mol)
                                    6.44110 (Kcal/Mol)
 Vibrational temperatures:   1540.10  1540.10  3402.37
          (Kelvin)

 Zero-point correction=                           0.010265 (Hartree/Particle)
 Thermal correction to Energy=                    0.012681
 Thermal correction to Enthalpy=                  0.013625
 Thermal correction to Gibbs Free Energy=        -0.009186
 Sum of electronic and zero-point Energies=           -100.949312
 Sum of electronic and thermal Energies=              -100.946895
 Sum of electronic and thermal Enthalpies=            -100.945951
 Sum of electronic and thermal Free Energies=         -100.968762

                     E (Thermal)             CV                S
                      KCal/Mol        Cal/Mol-Kelvin    Cal/Mol-Kelvin
 Total                    7.958              5.583             48.010
 Electronic               0.000              0.000              1.377
 Translational            0.889              2.981             35.068
 Rotational               0.592              1.987             11.423
 Vibrational              6.476              0.615              0.141

 Normal termination of Gaussian 16 at Fri Aug 22 16:02:53 2025.
