 Gaussian 16, Revision C.01,
 Gaussian 16:  ES64L-G16RevC.01  3-Jul-2019

 -----------------------------------------
 # sp b3lyp/6-311g** Force nosymm scf=(qc)
 -----------------------------------------

 -------------------
 Title Card Required
 -------------------
 Symbolic Z-matrix:
 Charge =  0 Multiplicity = 2

                          Input orientation:
 ---------------------------------------------------------------------
 Center     Atomic      Atomic             Coordinates (Angstroms)
 Number     Number       Type             X           Y           Z
 ---------------------------------------------------------------------
      1          1           0        0.000000    0.000000    0.000000
      2          1           0       -2.600000    0.000000    0.000000
      3          9           0        1.850000    0.000000    0.000000
 ---------------------------------------------------------------------

 SCF Done:  E(UB3LYP) =  -100.790955441     a.u. after   12 cycles

 Alpha  occ. eigenvalues --  -24.63441  -1.07843  -0.39500  -0.35625  -0.35205
 Alpha  occ. eigenvalues --   -0.35205
 Alpha virt. eigenvalues --   -0.20644   0.21602   0.26490   0.92860   0.96521
 Alpha virt. eigenvalues --    0.96521   1.08858   1.21545   1.21545   1.23582
 Alpha virt. eigenvalues --    1.25329   1.25329   1.63493   2.12584   2.15482

  Beta  occ. eigenvalues --  -24.63506  -1.08024  -0.39127  -0.35269  -0.35269
  Beta virt. eigenvalues --   -0.21051  -0.09492   0.24935   0.35064   0.93214
  Beta virt. eigenvalues --    0.96569   0.96569   1.09033   1.26193   1.26193
  Beta virt. eigenvalues --    1.41788   1.41788   1.42574   1.64219   2.16694

 Mulliken charges and spin densities:
               1          2
     1  H    0.288329   0.050664
     2  H    0.027947   0.970363
     3  F   -0.316276  -0.021027
 Sum of Mulliken charges =   0.00000   1.00000

 Dipole moment (field-independent basis, Debye):
    X=             -3.2649    Y=             -0.0000    Z=              0.0000  Tot=              3.2649
 Quadrupole moment (field-independent basis, Debye-Ang):
   XX=            -10.4987   YY=             -7.4836   ZZ=             -7.4836
   XY=             -0.0000   XZ=              0.0000   YZ=             -0.0000

  Exact polarizability:      36.735       0.000       2.053       0.000       0.000       2.053
 Approx polarizability:      80.648       0.000       1.964       0.000       0.000       1.964

 ******    2 imaginary frequencies (negative Signs) ******

                      1                      2                      3
                      A                      A                      A
 Frequencies --  -1215.0353              -260.1775               755.6899
 Red. masses --      1.0492                 1.0624                 1.0225
 Frc consts  --      0.9126                 0.0424                 0.3440
 IR Inten    --    195.3815                11.3677                71.6273

                      4
                      A
 Frequencies --    755.6899
 Red. masses --      1.0225
 Frc consts  --      0.3440
 IR Inten    --     71.6273

 - Thermochemistry -
 -------------------
 Temperature   298.150 Kelvin.  Pressure   1.00000 Atm.
 Atom     1 has atomic number  1 and mass   1.00783

 Molecular mass:    21.01405 amu.
 Principal axes and moments of inertia in atomic units:
                           1         2         3
     Eigenvalues --     0.00000  76.73620  76.73620
           X            1.00000  -0.00000   0.00000
           Y            0.00000   1.00000   0.00000
           Z            0.00000   0.00000   1.00000
 This molecule is a prolate symmetric top.
 Rotational symmetry number  1.
 Rotational temperature (Kelvin)      1.12872
 Rotational constant (GHZ):          23.518771
    2 imaginary frequencies ignored.
 Zero-point vibrational energy       9040.1 (Joules/Mol)
                                    2.16063 (Kcal/Mol)
 Vibrational temperatures:   1087.27  1087.27
          (Kelvin)

 Zero-point correction=                           0.003443 (Hartree/Particle)
 Thermal correction to Energy=                    0.005988
 Thermal correction to Enthalpy=                  0.006932
 Thermal correction to Gibbs Free Energy=        -0.016828
 Sum of electronic and zero-point Energies=           -100.787512
 Sum of electronic and thermal Energies=              -100.784967
 Sum of electronic and thermal Enthalpies=            -100.784023
 Sum of electronic and thermal Free Energies=         -100.807783

                     E (Thermal)             CV                S
                      KCal/Mol        Cal/Mol-Kelvin    Cal/Mol-Kelvin
 Total                    3.758              6.421             50.007
 Electronic               0.000              0.000              1.377
 Translational            0.889              2.981             35.068
 Rotational               0.592              1.987             13.069
 Vibrational              2.276              1.453              0.493

 Normal termination of Gaussian 16 at Fri Aug 22 16:47:19 2025.
