 Gaussian 16, Revision C.01,
 Gaussian 16:  ES64L-G16RevC.01  3-Jul-2019

 -----------------------------------------
 # sp b3lyp/6-311g** Force nosymm scf=(qc)
 -----------------------------------------

 -------------------
 Title Card Required
 -------------------
 Symbolic Z-matrix:
 Charge =  0 Multiplicity = 2

                          Input orientation:
 ---------------------------------------------------------------------
 Center     Atomic      Atomic             Coordinates (Angstroms)
 Number     Number       Type             X           Y           Z
 ---------------------------------------------------------------------
      1          1           0        0.000000    0.000000    0.000000
      2          1           0       -3.150000    0.000000    0.000000
      3          9           0        0.500000    0.000000    0.000000
 ---------------------------------------------------------------------

 SCF Done:  E(UB3LYP) =  -100.269013996     a.u. after    6 cycles

 Alpha  occ. eigenvalues --  -24.63027  -1.42345  -0.63504  -0.44329  -0.44329
 Alpha  occ. eigenvalues --   -0.33496
 Alpha virt. eigenvalues --    0.08237   0.25483   0.62300   0.89000   0.90159
 Alpha virt. eigenvalues --    0.90159   1.23216   1.24022   1.24022   1.39317
 Alpha virt. eigenvalues --    1.58523   1.58523   2.00299   2.15383   3.76638

  Beta  occ. eigenvalues --  -24.63026  -1.42342  -0.63504  -0.44328  -0.44328
  Beta virt. eigenvalues --   -0.05545   0.09033   0.39420   0.62342   0.89003
  Beta virt. eigenvalues --    0.90155   0.90155   1.36509   1.50247   1.50247
  Beta virt. eigenvalues --    1.52352   1.58526   1.58526   2.00168   2.45355

 Mulliken charges and spin densities:
               1          2
     1  H    0.124754   0.000811
     2  H    0.001457   0.998290
     3  F   -0.126211   0.000898
 Sum of Mulliken charges =   0.00000   1.00000

 Dipole moment (field-independent basis, Debye):
    X=             -1.3115    Y=              0.0000    Z=             -0.0000  Tot=              1.3115
 Quadrupole moment (field-independent basis, Debye-Ang):
   XX=             -6.6060   YY=             -6.4385   ZZ=             -6.4385
   XY=              0.0000   XZ=             -0.0000   YZ=             -0.0000

  Exact polarizability:       3.371      -0.000       2.418       0.000       0.000       2.418
 Approx polarizability:       3.485      -0.000       2.396       0.000       0.000       2.396

 ******    3 imaginary frequencies (negative Signs) ******

                      1                      2                      3
                      A                      A                      A
 Frequencies --  -9583.1892             -9583.1892               -10.1658
 Red. masses --      1.0448                 1.0448                 1.0532
 Frc consts  --     56.5311                56.5311                 0.0001
 IR Inten    --    279.9761               279.9761                 0.0533

                      4
                      A
 Frequencies --  19159.2750
 Red. masses --      1.0583
 Frc consts  --    228.8873
 IR Inten    --     78.7583

 - Thermochemistry -
 -------------------
 Temperature   298.150 Kelvin.  Pressure   1.00000 Atm.
 Atom     1 has atomic number  1 and mass   1.00783

 Molecular mass:    21.01405 amu.
 Principal axes and moments of inertia in atomic units:
                           1         2         3
     Eigenvalues --     0.00000  45.87482  45.87482
           X            1.00000  -0.00000   0.00000
           Y            0.00000   1.00000   0.00000
           Z            0.00000   0.00000   1.00000
 This molecule is a prolate symmetric top.
 Rotational symmetry number  1.
 Rotational temperature (Kelvin)      1.88805
 Rotational constant (GHZ):          39.340561
    3 imaginary frequencies ignored.
 Zero-point vibrational energy     114597.9 (Joules/Mol)
                                   27.38956 (Kcal/Mol)
 Vibrational temperatures:  27565.92
          (Kelvin)

 Zero-point correction=                           0.043648 (Hartree/Particle)
 Thermal correction to Energy=                    0.046009
 Thermal correction to Enthalpy=                  0.046953
 Thermal correction to Gibbs Free Energy=         0.023913
 Sum of electronic and zero-point Energies=           -100.225366
 Sum of electronic and thermal Energies=              -100.223005
 Sum of electronic and thermal Enthalpies=            -100.222061
 Sum of electronic and thermal Free Energies=         -100.245101

                     E (Thermal)             CV                S
                      KCal/Mol        Cal/Mol-Kelvin    Cal/Mol-Kelvin
 Total                   28.871              4.968             48.492
 Electronic               0.000              0.000              1.377
 Translational            0.889              2.981             35.068
 Rotational               0.592              1.987             12.047
 Vibrational             27.390              0.000              0.000

 Normal termination of Gaussian 16 at Fri Aug 22 15:37:42 2025.
