 Gaussian 16, Revision C.01,
 Gaussian 16:  ES64L-G16RevC.01  3-Jul-2019

 -----------------------------------------
 # sp b3lyp/6-311g** Force nosymm scf=(qc)
 -----------------------------------------

 -------------------
 Title Card Required
 -------------------
 Symbolic Z-matrix:
 Charge =  0 Multiplicity = 2

                          Input orientation:
 ---------------------------------------------------------------------
 Center     Atomic      Atomic             Coordinates (Angstroms)
 Number     Number       Type             X           Y           Z
 ---------------------------------------------------------------------
      1          1           0        0.000000    0.000000    0.000000
      2          1           0       -3.600000    0.000000    0.000000
      3          9           0        0.800000    0.000000    0.000000
 ---------------------------------------------------------------------

 SCF Done:  E(UB3LYP) =  -100.950301094     a.u. after    6 cycles

 Alpha  occ. eigenvalues --  -24.63677  -1.23043  -0.56190  -0.40652  -0.40652
 Alpha  occ. eigenvalues --   -0.33449
 Alpha virt. eigenvalues --    0.05075   0.24565   0.45907   0.94202   0.94202
 Alpha virt. eigenvalues --    0.97002   1.23871   1.24061   1.24061   1.29804
 Alpha virt. eigenvalues --    1.39814   1.39814   2.02410   2.14458   2.53071

  Beta  occ. eigenvalues --  -24.63677  -1.23041  -0.56189  -0.40651  -0.40651
  Beta virt. eigenvalues --   -0.05261   0.05486   0.39227   0.45897   0.94203
  Beta virt. eigenvalues --    0.94203   0.96995   1.29490   1.39815   1.39815
  Beta virt. eigenvalues --    1.50711   1.50949   1.50949   2.02489   2.44586

 Mulliken charges and spin densities:
               1          2
     1  H    0.274746   0.000522
     2  H    0.000668   0.999198
     3  F   -0.275414   0.000281
 Sum of Mulliken charges =   0.00000   1.00000

 Dipole moment (field-independent basis, Debye):
    X=             -1.7411    Y=              0.0000    Z=              0.0000  Tot=              1.7411
 Quadrupole moment (field-independent basis, Debye-Ang):
   XX=             -7.6080   YY=             -6.7692   ZZ=             -6.7692
   XY=              0.0000   XZ=              0.0000   YZ=             -0.0000

  Exact polarizability:       4.614      -0.000       2.441       0.000      -0.000       2.441
 Approx polarizability:       5.186      -0.000       2.422      -0.000      -0.000       2.422

 ******    3 imaginary frequencies (negative Signs) ******

                      1                      2                      3
                      A                      A                      A
 Frequencies --  -1981.6002             -1981.6002               -39.1383
 Red. masses --      1.0406                 1.0406                 1.0532
 Frc consts  --      2.4074                 2.4074                 0.0010
 IR Inten    --    196.6473               196.6473                 0.0244

                      4
                      A
 Frequencies --   6349.8167
 Red. masses --      1.0583
 Frc consts  --     25.1412
 IR Inten    --    105.0920

 - Thermochemistry -
 -------------------
 Temperature   298.150 Kelvin.  Pressure   1.00000 Atm.
 Atom     1 has atomic number  1 and mass   1.00783

 Molecular mass:    21.01405 amu.
 Principal axes and moments of inertia in atomic units:
                           1         2         3
     Eigenvalues --     0.00000  67.31288  67.31288
           X            1.00000  -0.00000   0.00000
           Y            0.00000   1.00000   0.00000
           Z            0.00000   0.00000   1.00000
 This molecule is a prolate symmetric top.
 Rotational symmetry number  1.
 Rotational temperature (Kelvin)      1.28674
 Rotational constant (GHZ):          26.811231
    3 imaginary frequencies ignored.
 Zero-point vibrational energy      37980.3 (Joules/Mol)
                                    9.07752 (Kcal/Mol)
 Vibrational temperatures:   9135.97
          (Kelvin)

 Zero-point correction=                           0.014466 (Hartree/Particle)
 Thermal correction to Energy=                    0.016826
 Thermal correction to Enthalpy=                  0.017771
 Thermal correction to Gibbs Free Energy=        -0.005632
 Sum of electronic and zero-point Energies=           -100.935835
 Sum of electronic and thermal Energies=              -100.933475
 Sum of electronic and thermal Enthalpies=            -100.932531
 Sum of electronic and thermal Free Energies=         -100.955933

                     E (Thermal)             CV                S
                      KCal/Mol        Cal/Mol-Kelvin    Cal/Mol-Kelvin
 Total                   10.559              4.968             49.254
 Electronic               0.000              0.000              1.377
 Translational            0.889              2.981             35.068
 Rotational               0.592              1.987             12.808
 Vibrational              9.078              0.000              0.000

 Normal termination of Gaussian 16 at Fri Aug 22 15:52:08 2025.
