 Gaussian 16, Revision C.01,
 Gaussian 16:  ES64L-G16RevC.01  3-Jul-2019

 -----------------------------------------
 # sp b3lyp/6-311g** Force nosymm scf=(qc)
 -----------------------------------------

 -------------------
 Title Card Required
 -------------------
 Symbolic Z-matrix:
 Charge =  0 Multiplicity = 2

                          Input orientation:
 ---------------------------------------------------------------------
 Center     Atomic      Atomic             Coordinates (Angstroms)
 Number     Number       Type             X           Y           Z
 ---------------------------------------------------------------------
      1          1           0        0.000000    0.000000    0.000000
      2          1           0       -3.350000    0.000000    0.000000
      3          9           0        2.450000    0.000000    0.000000
 ---------------------------------------------------------------------

 SCF Done:  E(UB3LYP) =  -100.768781378     a.u. after   16 cycles

 Alpha  occ. eigenvalues --  -24.71440  -1.17673  -0.50538  -0.42460  -0.42460
 Alpha  occ. eigenvalues --   -0.33023
 Alpha virt. eigenvalues --   -0.10675   0.23526   0.34941   0.89523   0.93769
 Alpha virt. eigenvalues --    0.93769   1.06364   1.24494   1.24494   1.24785
 Alpha virt. eigenvalues --    1.40091   1.40091   1.45329   2.14622   2.35580

  Beta  occ. eigenvalues --  -24.68627  -1.09675  -0.39658  -0.39658  -0.35569
  Beta virt. eigenvalues --   -0.23144  -0.07061   0.24031   0.37653   0.95107
  Beta virt. eigenvalues --    0.95107   0.95401   1.08586   1.21960   1.21960
  Beta virt. eigenvalues --    1.31240   1.45382   1.45626   1.45626   2.12885

 Mulliken charges and spin densities:
               1          2
     1  H    0.096535  -0.885517
     2  H    0.001394   0.996945
     3  F   -0.097929   0.888572
 Sum of Mulliken charges =  -0.00000   1.00000

 Dipole moment (field-independent basis, Debye):
    X=             -1.2405    Y=              0.0000    Z=             -0.0000  Tot=              1.2405
 Quadrupole moment (field-independent basis, Debye-Ang):
   XX=             -9.3585   YY=             -7.5678   ZZ=             -7.5678
   XY=              0.0000   XZ=             -0.0000   YZ=              0.0000

  Exact polarizability:      31.239       0.000       2.026      -0.000       0.000       2.026
 Approx polarizability:      39.525       0.000       1.920      -0.000      -0.000       1.920

 ******    2 imaginary frequencies (negative Signs) ******

                      1                      2                      3
                      A                      A                      A
 Frequencies --   -657.1431              -143.9377               259.9742
 Red. masses --      1.0530                 1.0586                 1.0221
 Frc consts  --      0.2679                 0.0129                 0.0407
 IR Inten    --     84.0572                 0.5709                 8.7983

                      4
                      A
 Frequencies --    259.9742
 Red. masses --      1.0221
 Frc consts  --      0.0407
 IR Inten    --      8.7983

 - Thermochemistry -
 -------------------
 Temperature   298.150 Kelvin.  Pressure   1.00000 Atm.
 Atom     1 has atomic number  1 and mass   1.00783

 Molecular mass:    21.01405 amu.
 Principal axes and moments of inertia in atomic units:
                           1         2         3
     Eigenvalues --     0.00000 130.92564 130.92564
           X            1.00000  -0.00000   0.00000
           Y            0.00000   1.00000   0.00000
           Z            0.00000   0.00000   1.00000
 This molecule is a prolate symmetric top.
 Rotational symmetry number  1.
 Rotational temperature (Kelvin)      0.66155
 Rotational constant (GHZ):          13.784475
    2 imaginary frequencies ignored.
 Zero-point vibrational energy       3110.0 (Joules/Mol)
                                    0.74330 (Kcal/Mol)
 Warning -- explicit consideration of   2 degrees of freedom as
           vibrations may cause significant error
 Vibrational temperatures:    374.04   374.04
          (Kelvin)

 Zero-point correction=                           0.001185 (Hartree/Particle)
 Thermal correction to Energy=                    0.004490
 Thermal correction to Enthalpy=                  0.005434
 Thermal correction to Gibbs Free Energy=        -0.020175
 Sum of electronic and zero-point Energies=           -100.767597
 Sum of electronic and thermal Energies=              -100.764291
 Sum of electronic and thermal Enthalpies=            -100.763347
 Sum of electronic and thermal Free Energies=         -100.788957

                     E (Thermal)             CV                S
                      KCal/Mol        Cal/Mol-Kelvin    Cal/Mol-Kelvin
 Total                    2.818              8.460             53.900
 Electronic               0.000              0.000              1.377
 Translational            0.889              2.981             35.068
 Rotational               0.592              1.987             14.131
 Vibrational              1.336              3.492              3.324
 Vibration     1          0.668              1.746              1.662
 Vibration     2          0.668              1.746              1.662

 Normal termination of Gaussian 16 at Fri Aug 22 17:39:37 2025.
