 Gaussian 16, Revision C.01,
 Gaussian 16:  ES64L-G16RevC.01  3-Jul-2019

 -----------------------------------------
 # sp b3lyp/6-311g** Force nosymm scf=(qc)
 -----------------------------------------

 -------------------
 Title Card Required
 -------------------
 Symbolic Z-matrix:
 Charge =  0 Multiplicity = 2

                          Input orientation:
 ---------------------------------------------------------------------
 Center     Atomic      Atomic             Coordinates (Angstroms)
 Number     Number       Type             X           Y           Z
 ---------------------------------------------------------------------
      1          1           0        0.000000    0.000000    0.000000
      2          1           0       -3.350000    0.000000    0.000000
      3          9           0        0.950000    0.000000    0.000000
 ---------------------------------------------------------------------

 SCF Done:  E(UB3LYP) =  -100.971044199     a.u. after    6 cycles

 Alpha  occ. eigenvalues --  -24.64099  -1.17436  -0.52736  -0.39207  -0.39207
 Alpha  occ. eigenvalues --   -0.33785
 Alpha virt. eigenvalues --    0.01986   0.24414   0.36821   0.94227   0.94227
 Alpha virt. eigenvalues --    0.98141   1.23501   1.23733   1.23733   1.30075
 Alpha virt. eigenvalues --    1.36483   1.36483   1.96027   2.14351   2.34925

  Beta  occ. eigenvalues --  -24.64097  -1.17430  -0.52730  -0.39205  -0.39205
  Beta virt. eigenvalues --   -0.06090   0.02745   0.36060   0.39422   0.94227
  Beta virt. eigenvalues --    0.94227   0.98139   1.29614   1.36482   1.36482
  Beta virt. eigenvalues --    1.50051   1.50242   1.50242   1.96063   2.34863

 Mulliken charges and spin densities:
               1          2
     1  H    0.307457   0.000760
     2  H    0.001269   0.998448
     3  F   -0.308726   0.000793
 Sum of Mulliken charges =   0.00000   1.00000

 Dipole moment (field-independent basis, Debye):
    X=             -1.9723    Y=             -0.0000    Z=              0.0000  Tot=              1.9723
 Quadrupole moment (field-independent basis, Debye-Ang):
   XX=             -8.0419   YY=             -6.9161   ZZ=             -6.9161
   XY=              0.0000   XZ=              0.0000   YZ=             -0.0000

  Exact polarizability:       6.300       0.000       2.415      -0.000       0.000       2.415
 Approx polarizability:       7.460      -0.000       2.391      -0.000       0.000       2.391

 ******    1 imaginary frequencies (negative Signs) ******

                      1                      2                      3
                      A                      A                      A
 Frequencies --    -55.1130               674.9347               674.9347
 Red. masses --      1.0532                 1.0371                 1.0371
 Frc consts  --      0.0019                 0.2783                 0.2783
 IR Inten    --      0.0745               173.7955               173.7955

                      4
                      A
 Frequencies --   3679.1827
 Red. masses --      1.0583
 Frc consts  --      8.4407
 IR Inten    --     97.1838

 - Thermochemistry -
 -------------------
 Temperature   298.150 Kelvin.  Pressure   1.00000 Atm.
 Atom     1 has atomic number  1 and mass   1.00783

 Molecular mass:    21.01405 amu.
 Principal axes and moments of inertia in atomic units:
                           1         2         3
     Eigenvalues --     0.00000  65.03630  65.03630
           X            1.00000  -0.00000   0.00000
           Y            0.00000   1.00000   0.00000
           Z            0.00000   0.00000   1.00000
 This molecule is a prolate symmetric top.
 Rotational symmetry number  1.
 Rotational temperature (Kelvin)      1.33178
 Rotational constant (GHZ):          27.749754
    1 imaginary frequencies ignored.
 Zero-point vibrational energy      30080.4 (Joules/Mol)
                                    7.18939 (Kcal/Mol)
 Vibrational temperatures:    971.08   971.08  5293.52
          (Kelvin)

 Zero-point correction=                           0.011457 (Hartree/Particle)
 Thermal correction to Energy=                    0.014064
 Thermal correction to Enthalpy=                  0.015008
 Thermal correction to Gibbs Free Energy=        -0.008682
 Sum of electronic and zero-point Energies=           -100.959587
 Sum of electronic and thermal Energies=              -100.956980
 Sum of electronic and thermal Enthalpies=            -100.956036
 Sum of electronic and thermal Free Energies=         -100.979726

                     E (Thermal)             CV                S
                      KCal/Mol        Cal/Mol-Kelvin    Cal/Mol-Kelvin
 Total                    8.825              6.724             49.860
 Electronic               0.000              0.000              1.377
 Translational            0.889              2.981             35.068
 Rotational               0.592              1.987             12.740
 Vibrational              7.344              1.756              0.674

 Normal termination of Gaussian 16 at Fri Aug 22 15:59:02 2025.
