 Gaussian 16, Revision C.01,
 Gaussian 16:  ES64L-G16RevC.01  3-Jul-2019

 -----------------------------------------
 # sp b3lyp/6-311g** Force nosymm scf=(qc)
 -----------------------------------------

 -------------------
 Title Card Required
 -------------------
 Symbolic Z-matrix:
 Charge =  0 Multiplicity = 2

                          Input orientation:
 ---------------------------------------------------------------------
 Center     Atomic      Atomic             Coordinates (Angstroms)
 Number     Number       Type             X           Y           Z
 ---------------------------------------------------------------------
      1          1           0        0.000000    0.000000    0.000000
      2          1           0       -0.850000    0.000000    0.000000
      3          9           0        3.400000    0.000000    0.000000
 ---------------------------------------------------------------------

 SCF Done:  E(UB3LYP) =  -100.928034100     a.u. after   51 cycles

 Alpha  occ. eigenvalues --  -24.76404  -1.22255  -0.55454  -0.46658  -0.46607
 Alpha  occ. eigenvalues --   -0.41217
 Alpha virt. eigenvalues --    0.03768   0.20457   0.43124   0.85963   0.90838
 Alpha virt. eigenvalues --    0.92952   1.02242   1.08279   1.08283   1.49119
 Alpha virt. eigenvalues --    1.75619   1.75624   2.12261   2.38004   2.87658

  Beta  occ. eigenvalues --  -24.73245  -1.13175  -0.43506  -0.43440  -0.41200
  Beta virt. eigenvalues --   -0.26090   0.03784   0.20469   0.43184   0.92338
  Beta virt. eigenvalues --    0.94507   0.95426   1.06254   1.08279   1.08282
  Beta virt. eigenvalues --    1.49127   1.75619   1.75623   2.12277   2.38007

 Mulliken charges and spin densities:
               1          2
     1  H   -0.001740  -0.000487
     2  H   -0.002881  -0.000059
     3  F    0.004621   1.000545
 Sum of Mulliken charges =   0.00000   1.00000

 Dipole moment (field-independent basis, Debye):
    X=              0.0559    Y=              0.0000    Z=             -0.0000  Tot=              0.0559
 Quadrupole moment (field-independent basis, Debye-Ang):
   XX=             -6.1979   YY=             -7.0892   ZZ=             -6.2253
   XY=              0.0000   XZ=             -0.0000   YZ=             -0.0092

  Exact polarizability:       9.794       0.000       2.007      -0.000      -0.005       2.470
 Approx polarizability:      11.800       0.000       2.075      -0.000      -0.006       2.656

                      1                      2                      3
                      A                      A                      A
 Frequencies --     20.8380              1326.5859              1327.4642
 Red. masses --      1.1085                 1.0091                 1.0091
 Frc consts  --      0.0003                 1.0463                 1.0476
 IR Inten    --      0.1714                 0.0006                 0.0004

                      4
                      A
 Frequencies --   3136.0097
 Red. masses --      1.0078
 Frc consts  --      5.8397
 IR Inten    --      0.1404

 - Thermochemistry -
 -------------------
 Temperature   298.150 Kelvin.  Pressure   1.00000 Atm.
 Atom     1 has atomic number  1 and mass   1.00783

 Molecular mass:    21.01405 amu.
 Principal axes and moments of inertia in atomic units:
                           1         2         3
     Eigenvalues --     0.00000  96.51024  96.51024
           X            1.00000  -0.00000   0.00000
           Y            0.00000   1.00000   0.00000
           Z            0.00000   0.00000   1.00000
 This molecule is a prolate symmetric top.
 Rotational symmetry number  1.
 Rotational temperature (Kelvin)      0.89746
 Rotational constant (GHZ):          18.699997
 Zero-point vibrational energy      34756.9 (Joules/Mol)
                                    8.30710 (Kcal/Mol)
 Warning -- explicit consideration of   1 degrees of freedom as
           vibrations may cause significant error
 Vibrational temperatures:     29.98  1908.66  1909.92  4512.02
          (Kelvin)

 Zero-point correction=                           0.013238 (Hartree/Particle)
 Thermal correction to Energy=                    0.016516
 Thermal correction to Enthalpy=                  0.017460
 Thermal correction to Gibbs Free Energy=        -0.009418
 Sum of electronic and zero-point Energies=           -100.914796
 Sum of electronic and thermal Energies=              -100.911518
 Sum of electronic and thermal Enthalpies=            -100.910574
 Sum of electronic and thermal Free Energies=         -100.937453

                     E (Thermal)             CV                S
                      KCal/Mol        Cal/Mol-Kelvin    Cal/Mol-Kelvin
 Total                   10.364              7.224             56.571
 Electronic               0.000              0.000              1.377
 Translational            0.889              2.981             35.068
 Rotational               0.592              1.987             13.524
 Vibrational              8.883              2.256              6.601
 Vibration     1          0.593              1.986              6.553

 Normal termination of Gaussian 16 at Fri Aug 22 21:07:41 2025.
