 Gaussian 16, Revision C.01,
 Gaussian 16:  ES64L-G16RevC.01  3-Jul-2019

 -----------------------------------------
 # sp b3lyp/6-311g** Force nosymm scf=(qc)
 -----------------------------------------

 -------------------
 Title Card Required
 -------------------
 Symbolic Z-matrix:
 Charge =  0 Multiplicity = 2

                          Input orientation:
 ---------------------------------------------------------------------
 Center     Atomic      Atomic             Coordinates (Angstroms)
 Number     Number       Type             X           Y           Z
 ---------------------------------------------------------------------
      1          1           0        0.000000    0.000000    0.000000
      2          1           0       -1.150000    0.000000    0.000000
      3          9           0        3.200000    0.000000    0.000000
 ---------------------------------------------------------------------

 SCF Done:  E(UB3LYP) =  -100.881125631     a.u. after  233 cycles

 Alpha  occ. eigenvalues --  -24.76544  -1.22384  -0.55578  -0.46800  -0.46730
 Alpha  occ. eigenvalues --   -0.36810
 Alpha virt. eigenvalues --   -0.02856   0.22565   0.35295   0.85855   0.90729
 Alpha virt. eigenvalues --    0.93063   1.02653   1.11873   1.11878   1.25970
 Alpha virt. eigenvalues --    1.57174   1.57179   2.12848   2.33463   2.55455

  Beta  occ. eigenvalues --  -24.73384  -1.13302  -0.43638  -0.43563  -0.36802
  Beta virt. eigenvalues --   -0.26210  -0.02843   0.22582   0.35356   0.92229
  Beta virt. eigenvalues --    0.94657   0.95316   1.06625   1.11873   1.11877
  Beta virt. eigenvalues --    1.25980   1.57173   1.57178   2.12858   2.33467

 Mulliken charges and spin densities:
               1          2
     1  H   -0.001115  -0.000342
     2  H   -0.004653  -0.000379
     3  F    0.005767   1.000721
 Sum of Mulliken charges =   0.00000   1.00000

 Dipole moment (field-independent basis, Debye):
    X=              0.0778    Y=              0.0000    Z=             -0.0000  Tot=              0.0778
 Quadrupole moment (field-independent basis, Debye-Ang):
   XX=             -6.1876   YY=             -6.7651   ZZ=             -7.2659
   XY=              0.0000   XZ=             -0.0000   YZ=             -0.3520

  Exact polarizability:      15.296       0.000       2.444      -0.000      -0.188       2.176
 Approx polarizability:      22.012       0.000       2.571      -0.000      -0.237       2.235

                      1                      2                      3
                      A                      A                      A
 Frequencies --     42.0877               585.2594              1502.1934
 Red. masses --      1.1085                 1.0078                 1.0101
 Frc consts  --      0.0012                 0.2034                 1.3430
 IR Inten    --      0.3081                 0.4447                 0.0006

                      4
                      A
 Frequencies --   1503.0544
 Red. masses --      1.0101
 Frc consts  --      1.3445
 IR Inten    --      0.0007

 - Thermochemistry -
 -------------------
 Temperature   298.150 Kelvin.  Pressure   1.00000 Atm.
 Atom     1 has atomic number  1 and mass   1.00783

 Molecular mass:    21.01405 amu.
 Principal axes and moments of inertia in atomic units:
                           1         2         3
     Eigenvalues --     0.00000  95.11706  95.11706
           X            1.00000  -0.00000   0.00000
           Y            0.00000   1.00000   0.00000
           Z            0.00000   0.00000   1.00000
 This molecule is a prolate symmetric top.
 Rotational symmetry number  1.
 Rotational temperature (Kelvin)      0.91060
 Rotational constant (GHZ):          18.973896
 Zero-point vibrational energy      21727.7 (Joules/Mol)
                                    5.19306 (Kcal/Mol)
 Warning -- explicit consideration of   2 degrees of freedom as
           vibrations may cause significant error
 Vibrational temperatures:     60.55   842.06  2161.32  2162.56
          (Kelvin)

 Zero-point correction=                           0.008276 (Hartree/Particle)
 Thermal correction to Energy=                    0.011666
 Thermal correction to Enthalpy=                  0.012610
 Thermal correction to Gibbs Free Energy=        -0.013807
 Sum of electronic and zero-point Energies=           -100.872850
 Sum of electronic and thermal Energies=              -100.869460
 Sum of electronic and thermal Enthalpies=            -100.868516
 Sum of electronic and thermal Free Energies=         -100.894932

                     E (Thermal)             CV                S
                      KCal/Mol        Cal/Mol-Kelvin    Cal/Mol-Kelvin
 Total                    7.320              8.160             55.598
 Electronic               0.000              0.000              1.377
 Translational            0.889              2.981             35.068
 Rotational               0.592              1.987             13.496
 Vibrational              5.839              3.192              5.657
 Vibration     1          0.595              1.980              5.158
 Vibration     2          0.942              1.063              0.476

 Normal termination of Gaussian 16 at Fri Aug 22 20:18:49 2025.
