 Gaussian 16, Revision C.01,
 Gaussian 16:  ES64L-G16RevC.01  3-Jul-2019

 -----------------------------------------
 # sp b3lyp/6-311g** Force nosymm scf=(qc)
 -----------------------------------------

 -------------------
 Title Card Required
 -------------------
 Symbolic Z-matrix:
 Charge =  0 Multiplicity = 2

                          Input orientation:
 ---------------------------------------------------------------------
 Center     Atomic      Atomic             Coordinates (Angstroms)
 Number     Number       Type             X           Y           Z
 ---------------------------------------------------------------------
      1          1           0        0.000000    0.000000    0.000000
      2          1           0       -3.950000    0.000000    0.000000
      3          9           0        3.300000    0.000000    0.000000
 ---------------------------------------------------------------------

 SCF Done:  E(UB3LYP) =  -100.759383884     a.u. after   24 cycles

 Alpha  occ. eigenvalues --  -24.74969  -1.20964  -0.54091  -0.45416  -0.45416
 Alpha  occ. eigenvalues --   -0.32345
 Alpha virt. eigenvalues --   -0.06751   0.24044   0.36820   0.88262   0.91739
 Alpha virt. eigenvalues --    0.91739   1.02445   1.25151   1.25151   1.25174
 Alpha virt. eigenvalues --    1.45836   1.45836   1.46171   2.14493   2.41952

  Beta  occ. eigenvalues --  -24.71882  -1.12100  -0.42323  -0.42323  -0.33099
  Beta virt. eigenvalues --   -0.25262  -0.05890   0.23778   0.38166   0.93219
  Beta virt. eigenvalues --    0.93219   0.97252   1.06359   1.24284   1.24284
  Beta virt. eigenvalues --    1.24319   1.46640   1.46752   1.46752   2.14715

 Mulliken charges and spin densities:
               1          2
     1  H    0.019355  -0.978031
     2  H    0.000082   0.999305
     3  F   -0.019437   0.978726
 Sum of Mulliken charges =  -0.00000   1.00000

 Dipole moment (field-independent basis, Debye):
    X=             -0.3311    Y=             -0.0000    Z=             -0.0000  Tot=              0.3311
 Quadrupole moment (field-independent basis, Debye-Ang):
   XX=             -7.7607   YY=             -7.6141   ZZ=             -7.6141
   XY=             -0.0000   XZ=             -0.0000   YZ=             -0.0000

  Exact polarizability:      27.308      -0.000       2.032      -0.000      -0.000       2.032
 Approx polarizability:      23.910      -0.000       1.932      -0.000       0.000       1.932

 ******    2 imaginary frequencies (negative Signs) ******

                      1                      2                      3
                      A                      A                      A
 Frequencies --   -267.9556               -71.9418                82.5393
 Red. masses --      1.0501                 1.0615                 1.0203
 Frc consts  --      0.0444                 0.0032                 0.0041
 IR Inten    --     20.9138                 0.1462                 0.3521

                      4
                      A
 Frequencies --     82.5393
 Red. masses --      1.0203
 Frc consts  --      0.0041
 IR Inten    --      0.3521

 - Thermochemistry -
 -------------------
 Temperature   298.150 Kelvin.  Pressure   1.00000 Atm.
 Atom     1 has atomic number  1 and mass   1.00783

 Molecular mass:    21.01405 amu.
 Principal axes and moments of inertia in atomic units:
                           1         2         3
     Eigenvalues --     0.00000 209.15451 209.15451
           X            1.00000  -0.00000   0.00000
           Y            0.00000   1.00000   0.00000
           Z            0.00000   0.00000   1.00000
 This molecule is a prolate symmetric top.
 Rotational symmetry number  1.
 Rotational temperature (Kelvin)      0.41411
 Rotational constant (GHZ):           8.628746
    2 imaginary frequencies ignored.
 Zero-point vibrational energy        987.4 (Joules/Mol)
                                    0.23599 (Kcal/Mol)
 Warning -- explicit consideration of   2 degrees of freedom as
           vibrations may cause significant error
 Vibrational temperatures:    118.76   118.76
          (Kelvin)

 Zero-point correction=                           0.000376 (Hartree/Particle)
 Thermal correction to Energy=                    0.004274
 Thermal correction to Enthalpy=                  0.005218
 Thermal correction to Gibbs Free Energy=        -0.022894
 Sum of electronic and zero-point Energies=           -100.759008
 Sum of electronic and thermal Energies=              -100.755110
 Sum of electronic and thermal Enthalpies=            -100.754166
 Sum of electronic and thermal Free Energies=         -100.782278

                     E (Thermal)             CV                S
                      KCal/Mol        Cal/Mol-Kelvin    Cal/Mol-Kelvin
 Total                    2.682              8.890             59.166
 Electronic               0.000              0.000              1.377
 Translational            0.889              2.981             35.068
 Rotational               0.592              1.987             15.061
 Vibrational              1.201              3.922              7.659
 Vibration     1          0.600              1.961              3.830
 Vibration     2          0.600              1.961              3.830

 Normal termination of Gaussian 16 at Fri Aug 22 20:50:35 2025.
