 Gaussian 16, Revision C.01,
 Gaussian 16:  ES64L-G16RevC.01  3-Jul-2019

 -----------------------------------------
 # sp b3lyp/6-311g** Force nosymm scf=(qc)
 -----------------------------------------

 -------------------
 Title Card Required
 -------------------
 Symbolic Z-matrix:
 Charge =  0 Multiplicity = 2

                          Input orientation:
 ---------------------------------------------------------------------
 Center     Atomic      Atomic             Coordinates (Angstroms)
 Number     Number       Type             X           Y           Z
 ---------------------------------------------------------------------
      1          1           0        0.000000    0.000000    0.000000
      2          1           0       -3.450000    0.000000    0.000000
      3          9           0        1.750000    0.000000    0.000000
 ---------------------------------------------------------------------

 SCF Done:  E(UB3LYP) =  -100.810668435     a.u. after   17 cycles

 Alpha  occ. eigenvalues --  -24.66171  -1.12272  -0.44890  -0.37965  -0.37965
 Alpha  occ. eigenvalues --   -0.33829
 Alpha virt. eigenvalues --   -0.15132   0.21461   0.29697   0.94410   0.94671
 Alpha virt. eigenvalues --    0.94671   1.05949   1.23688   1.23688   1.23788
 Alpha virt. eigenvalues --    1.33363   1.33363   1.71579   2.13712   2.24789

  Beta  occ. eigenvalues --  -24.64451  -1.07559  -0.39771  -0.36292  -0.36292
  Beta virt. eigenvalues --   -0.18845  -0.07174   0.21970   0.37761   0.94536
  Beta virt. eigenvalues --    0.94536   0.94999   1.07790   1.24469   1.24469
  Beta virt. eigenvalues --    1.45263   1.45704   1.45704   1.67240   2.12381

 Mulliken charges and spin densities:
               1          2
     1  H    0.273001  -0.538715
     2  H    0.002294   0.997164
     3  F   -0.275294   0.541551
 Sum of Mulliken charges =   0.00000   1.00000

 Dipole moment (field-independent basis, Debye):
    X=             -2.3867    Y=              0.0000    Z=              0.0000  Tot=              2.3867
 Quadrupole moment (field-independent basis, Debye-Ang):
   XX=            -10.1577   YY=             -7.4247   ZZ=             -7.4247
   XY=              0.0000   XZ=              0.0000   YZ=             -0.0000

  Exact polarizability:      22.979      -0.000       2.108      -0.000       0.000       2.108
 Approx polarizability:      36.188      -0.000       2.002       0.000       0.000       2.002

 ******    2 imaginary frequencies (negative Signs) ******

                      1                      2                      3
                      A                      A                      A
 Frequencies --  -1624.8498              -120.7308               711.1859
 Red. masses --      1.0575                 1.0540                 1.0278
 Frc consts  --      1.6450                 0.0091                 0.3063
 IR Inten    --    125.3446                 0.4038                69.0828

                      4
                      A
 Frequencies --    711.1859
 Red. masses --      1.0278
 Frc consts  --      0.3063
 IR Inten    --     69.0828

 - Thermochemistry -
 -------------------
 Temperature   298.150 Kelvin.  Pressure   1.00000 Atm.
 Atom     1 has atomic number  1 and mass   1.00783

 Molecular mass:    21.01405 amu.
 Principal axes and moments of inertia in atomic units:
                           1         2         3
     Eigenvalues --     0.00000 100.00181 100.00181
           X            1.00000  -0.00000   0.00000
           Y            0.00000   1.00000   0.00000
           Z            0.00000   0.00000   1.00000
 This molecule is a prolate symmetric top.
 Rotational symmetry number  1.
 Rotational temperature (Kelvin)      0.86612
 Rotational constant (GHZ):          18.047086
    2 imaginary frequencies ignored.
 Zero-point vibrational energy       8507.7 (Joules/Mol)
                                    2.03338 (Kcal/Mol)
 Vibrational temperatures:   1023.24  1023.24
          (Kelvin)

 Zero-point correction=                           0.003240 (Hartree/Particle)
 Thermal correction to Energy=                    0.005817
 Thermal correction to Enthalpy=                  0.006762
 Thermal correction to Gibbs Free Energy=        -0.017293
 Sum of electronic and zero-point Energies=           -100.807428
 Sum of electronic and thermal Energies=              -100.804851
 Sum of electronic and thermal Enthalpies=            -100.803907
 Sum of electronic and thermal Free Energies=         -100.827961

                     E (Thermal)             CV                S
                      KCal/Mol        Cal/Mol-Kelvin    Cal/Mol-Kelvin
 Total                    3.650              6.584             50.627
 Electronic               0.000              0.000              1.377
 Translational            0.889              2.981             35.068
 Rotational               0.592              1.987             13.595
 Vibrational              2.169              1.616              0.586

 Normal termination of Gaussian 16 at Fri Aug 22 16:41:45 2025.
