 Gaussian 16, Revision C.01,
 Gaussian 16:  ES64L-G16RevC.01  3-Jul-2019

 -----------------------------------------
 # sp b3lyp/6-311g** Force nosymm scf=(qc)
 -----------------------------------------

 -------------------
 Title Card Required
 -------------------
 Symbolic Z-matrix:
 Charge =  0 Multiplicity = 2

                          Input orientation:
 ---------------------------------------------------------------------
 Center     Atomic      Atomic             Coordinates (Angstroms)
 Number     Number       Type             X           Y           Z
 ---------------------------------------------------------------------
      1          1           0        0.000000    0.000000    0.000000
      2          1           0       -2.850000    0.000000    0.000000
      3          9           0        2.550000    0.000000    0.000000
 ---------------------------------------------------------------------

 SCF Done:  E(UB3LYP) =  -100.767807691     a.u. after   21 cycles

 Alpha  occ. eigenvalues --  -24.72037  -1.18232  -0.51141  -0.42957  -0.42957
 Alpha  occ. eigenvalues --   -0.33271
 Alpha virt. eigenvalues --   -0.10937   0.24407   0.34128   0.90025   0.93460
 Alpha virt. eigenvalues --    0.93460   1.06373   1.24291   1.24291   1.25668
 Alpha virt. eigenvalues --    1.39911   1.39911   1.43260   2.15192   2.35171

  Beta  occ. eigenvalues --  -24.69170  -1.10062  -0.40096  -0.40096  -0.35155
  Beta virt. eigenvalues --   -0.23546  -0.08288   0.25047   0.36135   0.94844
  Beta virt. eigenvalues --    0.94844   0.97102   1.09134   1.22316   1.22316
  Beta virt. eigenvalues --    1.28601   1.43838   1.43838   1.44177   2.14426

 Mulliken charges and spin densities:
               1          2
     1  H    0.078303  -0.895433
     2  H    0.004386   0.988902
     3  F   -0.082689   0.906531
 Sum of Mulliken charges =  -0.00000   1.00000

 Dipole moment (field-independent basis, Debye):
    X=             -1.1343    Y=             -0.0000    Z=              0.0000  Tot=              1.1343
 Quadrupole moment (field-independent basis, Debye-Ang):
   XX=             -8.9973   YY=             -7.5952   ZZ=             -7.5952
   XY=             -0.0000   XZ=              0.0000   YZ=              0.0000

  Exact polarizability:      36.622      -0.000       2.020       0.000       0.000       2.020
 Approx polarizability:      42.030      -0.000       1.919       0.000      -0.000       1.919

 ******    2 imaginary frequencies (negative Signs) ******

                      1                      2                      3
                      A                      A                      A
 Frequencies --   -651.8192              -248.7224               255.0519
 Red. masses --      1.0367                 1.0755                 1.0193
 Frc consts  --      0.2595                 0.0392                 0.0391
 IR Inten    --     67.8137                 6.7600                 5.4708

                      4
                      A
 Frequencies --    255.0519
 Red. masses --      1.0193
 Frc consts  --      0.0391
 IR Inten    --      5.4708

 - Thermochemistry -
 -------------------
 Temperature   298.150 Kelvin.  Pressure   1.00000 Atm.
 Atom     1 has atomic number  1 and mass   1.00783

 Molecular mass:    21.01405 amu.
 Principal axes and moments of inertia in atomic units:
                           1         2         3
     Eigenvalues --     0.00000 117.44045 117.44045
           X            1.00000  -0.00000   0.00000
           Y            0.00000   1.00000   0.00000
           Z            0.00000   0.00000   1.00000
 This molecule is a prolate symmetric top.
 Rotational symmetry number  1.
 Rotational temperature (Kelvin)      0.73751
 Rotational constant (GHZ):          15.367287
    2 imaginary frequencies ignored.
 Zero-point vibrational energy       3051.1 (Joules/Mol)
                                    0.72923 (Kcal/Mol)
 Warning -- explicit consideration of   2 degrees of freedom as
           vibrations may cause significant error
 Vibrational temperatures:    366.96   366.96
          (Kelvin)

 Zero-point correction=                           0.001162 (Hartree/Particle)
 Thermal correction to Energy=                    0.004481
 Thermal correction to Enthalpy=                  0.005426
 Thermal correction to Gibbs Free Energy=        -0.020113
 Sum of electronic and zero-point Energies=           -100.766646
 Sum of electronic and thermal Energies=              -100.763326
 Sum of electronic and thermal Enthalpies=            -100.762382
 Sum of electronic and thermal Free Energies=         -100.787921

                     E (Thermal)             CV                S
                      KCal/Mol        Cal/Mol-Kelvin    Cal/Mol-Kelvin
 Total                    2.812              8.477             53.751
 Electronic               0.000              0.000              1.377
 Translational            0.889              2.981             35.068
 Rotational               0.592              1.987             13.915
 Vibrational              1.331              3.509              3.391
 Vibration     1          0.665              1.754              1.695
 Vibration     2          0.665              1.754              1.695

 Normal termination of Gaussian 16 at Fri Aug 22 17:54:39 2025.
