 Gaussian 16, Revision C.01,
 Gaussian 16:  ES64L-G16RevC.01  3-Jul-2019

 -----------------------------------------
 # sp b3lyp/6-311g** Force nosymm scf=(qc)
 -----------------------------------------

 -------------------
 Title Card Required
 -------------------
 Symbolic Z-matrix:
 Charge =  0 Multiplicity = 2

                          Input orientation:
 ---------------------------------------------------------------------
 Center     Atomic      Atomic             Coordinates (Angstroms)
 Number     Number       Type             X           Y           Z
 ---------------------------------------------------------------------
      1          1           0        0.000000    0.000000    0.000000
      2          1           0       -2.350000    0.000000    0.000000
      3          9           0        2.250000    0.000000    0.000000
 ---------------------------------------------------------------------

 SCF Done:  E(UB3LYP) =  -100.780011055     a.u. after   15 cycles

 Alpha  occ. eigenvalues --  -24.70065  -1.16351  -0.49133  -0.41291  -0.41291
 Alpha  occ. eigenvalues --   -0.34627
 Alpha virt. eigenvalues --   -0.13073   0.24540   0.32222   0.89176   0.94435
 Alpha virt. eigenvalues --    0.94435   1.06483   1.23098   1.23098   1.27102
 Alpha virt. eigenvalues --    1.35914   1.35914   1.48705   2.13315   2.30796

  Beta  occ. eigenvalues --  -24.67395  -1.08804  -0.38641  -0.38641  -0.36316
  Beta virt. eigenvalues --   -0.22302  -0.10421   0.25924   0.33916   0.93751
  Beta virt. eigenvalues --    0.95605   0.95605   1.09018   1.22017   1.22017
  Beta virt. eigenvalues --    1.39685   1.40076   1.40076   1.42943   2.12897

 Mulliken charges and spin densities:
               1          2
     1  H    0.112007  -0.796239
     2  H    0.019896   0.954864
     3  F   -0.131902   0.841376
 Sum of Mulliken charges =   0.00000   1.00000

 Dipole moment (field-independent basis, Debye):
    X=             -1.7169    Y=              0.0000    Z=              0.0000  Tot=              1.7169
 Quadrupole moment (field-independent basis, Debye-Ang):
   XX=             -9.0053   YY=             -7.5854   ZZ=             -7.5854
   XY=              0.0000   XZ=              0.0000   YZ=             -0.0000

  Exact polarizability:      45.182       0.000       2.027       0.000       0.000       2.027
 Approx polarizability:      50.442       0.000       1.927       0.000       0.000       1.927

 ******    2 imaginary frequencies (negative Signs) ******

                      1                      2                      3
                      A                      A                      A
 Frequencies --  -1041.8298              -425.4004               427.7022
 Red. masses --      1.0237                 1.0899                 1.0185
 Frc consts  --      0.6547                 0.1162                 0.1098
 IR Inten    --     66.3253                31.8536                 9.7258

                      4
                      A
 Frequencies --    427.7022
 Red. masses --      1.0185
 Frc consts  --      0.1098
 IR Inten    --      9.7258

 - Thermochemistry -
 -------------------
 Temperature   298.150 Kelvin.  Pressure   1.00000 Atm.
 Atom     1 has atomic number  1 and mass   1.00783

 Molecular mass:    21.01405 amu.
 Principal axes and moments of inertia in atomic units:
                           1         2         3
     Eigenvalues --     0.00000  86.27585  86.27585
           X            1.00000  -0.00000   0.00000
           Y            0.00000   1.00000   0.00000
           Z            0.00000   0.00000   1.00000
 This molecule is a prolate symmetric top.
 Rotational symmetry number  1.
 Rotational temperature (Kelvin)      1.00392
 Rotational constant (GHZ):          20.918265
    2 imaginary frequencies ignored.
 Zero-point vibrational energy       5116.5 (Joules/Mol)
                                    1.22286 (Kcal/Mol)
 Warning -- explicit consideration of   2 degrees of freedom as
           vibrations may cause significant error
 Vibrational temperatures:    615.37   615.37
          (Kelvin)

 Zero-point correction=                           0.001949 (Hartree/Particle)
 Thermal correction to Energy=                    0.004876
 Thermal correction to Enthalpy=                  0.005820
 Thermal correction to Gibbs Free Energy=        -0.018639
 Sum of electronic and zero-point Energies=           -100.778062
 Sum of electronic and thermal Energies=              -100.775135
 Sum of electronic and thermal Enthalpies=            -100.774191
 Sum of electronic and thermal Free Energies=         -100.798651

                     E (Thermal)             CV                S
                      KCal/Mol        Cal/Mol-Kelvin    Cal/Mol-Kelvin
 Total                    3.060              7.788             51.480
 Electronic               0.000              0.000              1.377
 Translational            0.889              2.981             35.068
 Rotational               0.592              1.987             13.302
 Vibrational              1.578              2.820              1.732
 Vibration     1          0.789              1.410              0.866
 Vibration     2          0.789              1.410              0.866

 Normal termination of Gaussian 16 at Fri Aug 22 17:16:45 2025.
