 Gaussian 16, Revision C.01,
 Gaussian 16:  ES64L-G16RevC.01  3-Jul-2019

 -----------------------------------------
 # sp b3lyp/6-311g** Force nosymm scf=(qc)
 -----------------------------------------

 -------------------
 Title Card Required
 -------------------
 Symbolic Z-matrix:
 Charge =  0 Multiplicity = 2

                          Input orientation:
 ---------------------------------------------------------------------
 Center     Atomic      Atomic             Coordinates (Angstroms)
 Number     Number       Type             X           Y           Z
 ---------------------------------------------------------------------
      1          1           0        0.000000    0.000000    0.000000
      2          1           0       -3.850000    0.000000    0.000000
      3          9           0        2.950000    0.000000    0.000000
 ---------------------------------------------------------------------

 SCF Done:  E(UB3LYP) =  -100.761227449     a.u. after   21 cycles

 Alpha  occ. eigenvalues --  -24.73891  -1.19965  -0.53010  -0.44512  -0.44512
 Alpha  occ. eigenvalues --   -0.32496
 Alpha virt. eigenvalues --   -0.08002   0.23848   0.36172   0.89497   0.92392
 Alpha virt. eigenvalues --    0.92392   1.04157   1.25002   1.25002   1.25038
 Alpha virt. eigenvalues --    1.44024   1.44024   1.44729   2.14413   2.40483

  Beta  occ. eigenvalues --  -24.70877  -1.11332  -0.41496  -0.41496  -0.33852
  Beta virt. eigenvalues --   -0.24662  -0.06076   0.23778   0.38116   0.93849
  Beta virt. eigenvalues --    0.93849   0.98091   1.07807   1.23465   1.23465
  Beta virt. eigenvalues --    1.24025   1.46441   1.46608   1.46608   2.14377

 Mulliken charges and spin densities:
               1          2
     1  H    0.040964  -0.953980
     2  H    0.000195   0.999128
     3  F   -0.041158   0.954851
 Sum of Mulliken charges =  -0.00000   1.00000

 Dipole moment (field-independent basis, Debye):
    X=             -0.6268    Y=             -0.0000    Z=              0.0000  Tot=              0.6268
 Quadrupole moment (field-independent basis, Debye-Ang):
   XX=             -8.4436   YY=             -7.6033   ZZ=             -7.6033
   XY=             -0.0000   XZ=              0.0000   YZ=             -0.0000

  Exact polarizability:      31.230      -0.000       2.026       0.000       0.000       2.026
 Approx polarizability:      32.942      -0.000       1.926       0.000      -0.000       1.926

 ******    2 imaginary frequencies (negative Signs) ******

                      1                      2                      3
                      A                      A                      A
 Frequencies --   -384.7526               -81.1403               135.5409
 Red. masses --      1.0535                 1.0581                 1.0215
 Frc consts  --      0.0919                 0.0041                 0.0111
 IR Inten    --     43.1850                 0.1207                 1.6121

                      4
                      A
 Frequencies --    135.5409
 Red. masses --      1.0215
 Frc consts  --      0.0111
 IR Inten    --      1.6121

 - Thermochemistry -
 -------------------
 Temperature   298.150 Kelvin.  Pressure   1.00000 Atm.
 Atom     1 has atomic number  1 and mass   1.00783

 Molecular mass:    21.01405 amu.
 Principal axes and moments of inertia in atomic units:
                           1         2         3
     Eigenvalues --     0.00000 181.33008 181.33008
           X            1.00000  -0.00000   0.00000
           Y            0.00000   1.00000   0.00000
           Z            0.00000   0.00000   1.00000
 This molecule is a prolate symmetric top.
 Rotational symmetry number  1.
 Rotational temperature (Kelvin)      0.47766
 Rotational constant (GHZ):           9.952795
    2 imaginary frequencies ignored.
 Zero-point vibrational energy       1621.4 (Joules/Mol)
                                    0.38753 (Kcal/Mol)
 Warning -- explicit consideration of   2 degrees of freedom as
           vibrations may cause significant error
 Vibrational temperatures:    195.01   195.01
          (Kelvin)

 Zero-point correction=                           0.000618 (Hartree/Particle)
 Thermal correction to Energy=                    0.004316
 Thermal correction to Enthalpy=                  0.005260
 Thermal correction to Gibbs Free Energy=        -0.021801
 Sum of electronic and zero-point Energies=           -100.760610
 Sum of electronic and thermal Energies=              -100.756912
 Sum of electronic and thermal Enthalpies=            -100.755968
 Sum of electronic and thermal Free Energies=         -100.783029

                     E (Thermal)             CV                S
                      KCal/Mol        Cal/Mol-Kelvin    Cal/Mol-Kelvin
 Total                    2.708              8.804             56.955
 Electronic               0.000              0.000              1.377
 Translational            0.889              2.981             35.068
 Rotational               0.592              1.987             14.778
 Vibrational              1.227              3.836              5.732
 Vibration     1          0.613              1.918              2.866
 Vibration     2          0.613              1.918              2.866

 Normal termination of Gaussian 16 at Fri Aug 22 19:19:20 2025.
