 Gaussian 16, Revision C.01,
 Gaussian 16:  ES64L-G16RevC.01  3-Jul-2019

 -----------------------------------------
 # sp b3lyp/6-311g** Force nosymm scf=(qc)
 -----------------------------------------

 -------------------
 Title Card Required
 -------------------
 Symbolic Z-matrix:
 Charge =  0 Multiplicity = 2

                          Input orientation:
 ---------------------------------------------------------------------
 Center     Atomic      Atomic             Coordinates (Angstroms)
 Number     Number       Type             X           Y           Z
 ---------------------------------------------------------------------
      1          1           0        0.000000    0.000000    0.000000
      2          1           0       -2.300000    0.000000    0.000000
      3          9           0        2.500000    0.000000    0.000000
 ---------------------------------------------------------------------

 SCF Done:  E(UB3LYP) =  -100.773830828     a.u. after   16 cycles

 Alpha  occ. eigenvalues --  -24.71758  -1.17963  -0.50857  -0.42713  -0.42713
 Alpha  occ. eigenvalues --   -0.34165
 Alpha virt. eigenvalues --   -0.12376   0.24931   0.32736   0.90132   0.93628
 Alpha virt. eigenvalues --    0.93628   1.06530   1.23593   1.23593   1.26557
 Alpha virt. eigenvalues --    1.36736   1.36736   1.43131   2.13397   2.32976

  Beta  occ. eigenvalues --  -24.68915  -1.09868  -0.39878  -0.39878  -0.35255
  Beta virt. eigenvalues --   -0.23420  -0.10449   0.26195   0.33746   0.94994
  Beta virt. eigenvalues --    0.94994   0.97133   1.09501   1.22516   1.22516
  Beta virt. eigenvalues --    1.29678   1.39866   1.39866   1.43572   2.13562

 Mulliken charges and spin densities:
               1          2
     1  H    0.071094  -0.845971
     2  H    0.017108   0.947442
     3  F   -0.088203   0.898529
 Sum of Mulliken charges =  -0.00000   1.00000

 Dipole moment (field-independent basis, Debye):
    X=             -1.3102    Y=              0.0000    Z=             -0.0000  Tot=              1.3102
 Quadrupole moment (field-independent basis, Debye-Ang):
   XX=             -8.6066   YY=             -7.6287   ZZ=             -7.6287
   XY=              0.0000   XZ=             -0.0000   YZ=              0.0000

  Exact polarizability:      49.721       0.000       2.012      -0.000       0.000       2.012
 Approx polarizability:      51.766      -0.000       1.919      -0.000      -0.000       1.919

 ******    2 imaginary frequencies (negative Signs) ******

                      1                      2                      3
                      A                      A                      A
 Frequencies --   -982.8359              -374.1330               388.6037
 Red. masses --      1.0134                 1.1019                 1.0170
 Frc consts  --      0.5767                 0.0909                 0.0905
 IR Inten    --     46.5003                38.2412                 3.7238

                      4
                      A
 Frequencies --    388.6037
 Red. masses --      1.0170
 Frc consts  --      0.0905
 IR Inten    --      3.7238

 - Thermochemistry -
 -------------------
 Temperature   298.150 Kelvin.  Pressure   1.00000 Atm.
 Atom     1 has atomic number  1 and mass   1.00783

 Molecular mass:    21.01405 amu.
 Principal axes and moments of inertia in atomic units:
                           1         2         3
     Eigenvalues --     0.00000  96.21674  96.21674
           X            1.00000  -0.00000   0.00000
           Y            0.00000   1.00000   0.00000
           Z            0.00000   0.00000   1.00000
 This molecule is a prolate symmetric top.
 Rotational symmetry number  1.
 Rotational temperature (Kelvin)      0.90020
 Rotational constant (GHZ):          18.757040
    2 imaginary frequencies ignored.
 Zero-point vibrational energy       4648.7 (Joules/Mol)
                                    1.11107 (Kcal/Mol)
 Warning -- explicit consideration of   2 degrees of freedom as
           vibrations may cause significant error
 Vibrational temperatures:    559.11   559.11
          (Kelvin)

 Zero-point correction=                           0.001771 (Hartree/Particle)
 Thermal correction to Energy=                    0.004772
 Thermal correction to Enthalpy=                  0.005716
 Thermal correction to Gibbs Free Energy=        -0.018978
 Sum of electronic and zero-point Energies=           -100.772060
 Sum of electronic and thermal Energies=              -100.769059
 Sum of electronic and thermal Enthalpies=            -100.768114
 Sum of electronic and thermal Free Energies=         -100.792809

                     E (Thermal)             CV                S
                      KCal/Mol        Cal/Mol-Kelvin    Cal/Mol-Kelvin
 Total                    2.995              7.957             51.975
 Electronic               0.000              0.000              1.377
 Translational            0.889              2.981             35.068
 Rotational               0.592              1.987             13.518
 Vibrational              1.513              2.989              2.011
 Vibration     1          0.757              1.495              1.005
 Vibration     2          0.757              1.495              1.005

 Normal termination of Gaussian 16 at Fri Aug 22 17:45:05 2025.
