 Gaussian 16, Revision C.01,
 Gaussian 16:  ES64L-G16RevC.01  3-Jul-2019

 -----------------------------------------
 # sp b3lyp/6-311g** Force nosymm scf=(qc)
 -----------------------------------------

 -------------------
 Title Card Required
 -------------------
 Symbolic Z-matrix:
 Charge =  0 Multiplicity = 2

                          Input orientation:
 ---------------------------------------------------------------------
 Center     Atomic      Atomic             Coordinates (Angstroms)
 Number     Number       Type             X           Y           Z
 ---------------------------------------------------------------------
      1          1           0        0.000000    0.000000    0.000000
      2          1           0       -2.100000    0.000000    0.000000
      3          9           0        1.650000    0.000000    0.000000
 ---------------------------------------------------------------------

 SCF Done:  E(UB3LYP) =  -100.832431996     a.u. after   12 cycles

 Alpha  occ. eigenvalues --  -24.64954  -1.11047  -0.44188  -0.36989  -0.36933
 Alpha  occ. eigenvalues --   -0.36933
 Alpha virt. eigenvalues --   -0.13348   0.23439   0.28277   0.94738   0.94738
 Alpha virt. eigenvalues --    0.97269   1.05821   1.20620   1.20620   1.28969
 Alpha virt. eigenvalues --    1.33560   1.33560   1.73347   2.10490   2.26126

  Beta  occ. eigenvalues --  -24.63558  -1.07265  -0.40067  -0.35585  -0.35585
  Beta virt. eigenvalues --   -0.19138  -0.09714   0.25267   0.32588   0.94522
  Beta virt. eigenvalues --    0.94522   0.99282   1.08096   1.27128   1.27128
  Beta virt. eigenvalues --    1.37610   1.37610   1.42840   1.71310   2.13184

 Mulliken charges and spin densities:
               1          2
     1  H    0.264197  -0.370113
     2  H    0.042728   0.931376
     3  F   -0.306924   0.438737
 Sum of Mulliken charges =   0.00000   1.00000

 Dipole moment (field-independent basis, Debye):
    X=             -2.9032    Y=              0.0000    Z=              0.0000  Tot=              2.9032
 Quadrupole moment (field-independent basis, Debye-Ang):
   XX=             -9.0305   YY=             -7.4019   ZZ=             -7.4019
   XY=              0.0000   XZ=              0.0000   YZ=              0.0000

  Exact polarizability:      35.790       0.000       2.158       0.000       0.000       2.158
 Approx polarizability:      47.602      -0.000       2.070      -0.000       0.000       2.070

 ******    2 imaginary frequencies (negative Signs) ******

                      1                      2                      3
                      A                      A                      A
 Frequencies --  -1957.1354              -495.9991               839.4602
 Red. masses --      1.0403                 1.0717                 1.0211
 Frc consts  --      2.3477                 0.1553                 0.4240
 IR Inten    --     51.3616                10.4316                50.9350

                      4
                      A
 Frequencies --    839.4602
 Red. masses --      1.0211
 Frc consts  --      0.4240
 IR Inten    --     50.9350

 - Thermochemistry -
 -------------------
 Temperature   298.150 Kelvin.  Pressure   1.00000 Atm.
 Atom     1 has atomic number  1 and mass   1.00783

 Molecular mass:    21.01405 amu.
 Principal axes and moments of inertia in atomic units:
                           1         2         3
     Eigenvalues --     0.00000  55.37614  55.37614
           X            1.00000  -0.00000   0.00000
           Y            0.00000   1.00000   0.00000
           Z            0.00000   0.00000   1.00000
 This molecule is a prolate symmetric top.
 Rotational symmetry number  1.
 Rotational temperature (Kelvin)      1.56410
 Rotational constant (GHZ):          32.590592
    2 imaginary frequencies ignored.
 Zero-point vibrational energy      10042.2 (Joules/Mol)
                                    2.40014 (Kcal/Mol)
 Vibrational temperatures:   1207.80  1207.80
          (Kelvin)

 Zero-point correction=                           0.003825 (Hartree/Particle)
 Thermal correction to Energy=                    0.006321
 Thermal correction to Enthalpy=                  0.007265
 Thermal correction to Gibbs Free Energy=        -0.016121
 Sum of electronic and zero-point Energies=           -100.828607
 Sum of electronic and thermal Energies=              -100.826111
 Sum of electronic and thermal Enthalpies=            -100.825167
 Sum of electronic and thermal Free Energies=         -100.848553

                     E (Thermal)             CV                S
                      KCal/Mol        Cal/Mol-Kelvin    Cal/Mol-Kelvin
 Total                    3.966              6.144             49.221
 Electronic               0.000              0.000              1.377
 Translational            0.889              2.981             35.068
 Rotational               0.592              1.987             12.421
 Vibrational              2.485              1.176              0.355

 Normal termination of Gaussian 16 at Fri Aug 22 16:34:23 2025.
