 Gaussian 16, Revision C.01,
 Gaussian 16:  ES64L-G16RevC.01  3-Jul-2019

 -----------------------------------------
 # sp b3lyp/6-311g** Force nosymm scf=(qc)
 -----------------------------------------

 -------------------
 Title Card Required
 -------------------
 Symbolic Z-matrix:
 Charge =  0 Multiplicity = 2

                          Input orientation:
 ---------------------------------------------------------------------
 Center     Atomic      Atomic             Coordinates (Angstroms)
 Number     Number       Type             X           Y           Z
 ---------------------------------------------------------------------
      1          1           0        0.000000    0.000000    0.000000
      2          1           0       -2.000000    0.000000    0.000000
      3          9           0        0.650000    0.000000    0.000000
 ---------------------------------------------------------------------

 SCF Done:  E(UB3LYP) =  -100.800203401     a.u. after    6 cycles

 Alpha  occ. eigenvalues --  -24.62853  -1.31255  -0.59877  -0.42277  -0.42277
 Alpha  occ. eigenvalues --   -0.35199
 Alpha virt. eigenvalues --    0.10623   0.24320   0.52566   0.92946   0.92946
 Alpha virt. eigenvalues --    0.95100   1.18537   1.22213   1.22213   1.47074
 Alpha virt. eigenvalues --    1.47074   1.55860   1.97196   2.17878   3.10228

  Beta  occ. eigenvalues --  -24.62823  -1.31166  -0.59746  -0.42258  -0.42258
  Beta virt. eigenvalues --   -0.10158   0.12083   0.35311   0.53477   0.92942
  Beta virt. eigenvalues --    0.92942   0.95237   1.28305   1.41993   1.41993
  Beta virt. eigenvalues --    1.47517   1.47517   1.64394   2.00226   2.43114

 Mulliken charges and spin densities:
               1          2
     1  H    0.239752   0.009599
     2  H    0.009492   0.985377
     3  F   -0.249244   0.005023
 Sum of Mulliken charges =   0.00000   1.00000

 Dipole moment (field-independent basis, Debye):
    X=             -1.5902    Y=             -0.0000    Z=              0.0000  Tot=              1.5902
 Quadrupole moment (field-independent basis, Debye-Ang):
   XX=             -6.8843   YY=             -6.5766   ZZ=             -6.5766
   XY=             -0.0000   XZ=             -0.0000   YZ=             -0.0000

  Exact polarizability:       6.100       0.000       2.493      -0.000       0.000       2.493
 Approx polarizability:       5.982      -0.000       2.485      -0.000       0.000       2.485

 ******    2 imaginary frequencies (negative Signs) ******

                      1                      2                      3
                      A                      A                      A
 Frequencies --  -4525.4539             -4525.4539               356.7690
 Red. masses --      1.0350                 1.0350                 1.0533
 Frc consts  --     12.4884                12.4884                 0.0790
 IR Inten    --    190.7828               190.7828                 0.0420

                      4
                      A
 Frequencies --  10871.7492
 Red. masses --      1.0583
 Frc consts  --     73.6966
 IR Inten    --    129.6931

 - Thermochemistry -
 -------------------
 Temperature   298.150 Kelvin.  Pressure   1.00000 Atm.
 Atom     1 has atomic number  1 and mass   1.00783

 Molecular mass:    21.01405 amu.
 Principal axes and moments of inertia in atomic units:
                           1         2         3
     Eigenvalues --     0.00000  24.91493  24.91493
           X            1.00000  -0.00000   0.00000
           Y            0.00000   1.00000   0.00000
           Z            0.00000   0.00000   1.00000
 This molecule is a prolate symmetric top.
 Rotational symmetry number  1.
 Rotational temperature (Kelvin)      3.47639
 Rotational constant (GHZ):          72.436136
    2 imaginary frequencies ignored.
 Zero-point vibrational energy      67161.5 (Joules/Mol)
                                   16.05197 (Kcal/Mol)
 Warning -- explicit consideration of   1 degrees of freedom as
           vibrations may cause significant error
 Vibrational temperatures:    513.31 15642.02
          (Kelvin)

 Zero-point correction=                           0.025580 (Hartree/Particle)
 Thermal correction to Energy=                    0.028295
 Thermal correction to Enthalpy=                  0.029239
 Thermal correction to Gibbs Free Energy=         0.006235
 Sum of electronic and zero-point Energies=           -100.774623
 Sum of electronic and thermal Energies=              -100.771909
 Sum of electronic and thermal Enthalpies=            -100.770964
 Sum of electronic and thermal Free Energies=         -100.793968

                     E (Thermal)             CV                S
                      KCal/Mol        Cal/Mol-Kelvin    Cal/Mol-Kelvin
 Total                   17.755              6.529             48.415
 Electronic               0.000              0.000              1.377
 Translational            0.889              2.981             35.068
 Rotational               0.592              1.987             10.833
 Vibrational             16.274              1.561              1.136
 Vibration     1          0.732              1.561              1.136

 Normal termination of Gaussian 16 at Fri Aug 22 15:44:04 2025.
