 Gaussian 16, Revision C.01,
 Gaussian 16:  ES64L-G16RevC.01  3-Jul-2019

 -----------------------------------------
 # sp b3lyp/6-311g** Force nosymm scf=(qc)
 -----------------------------------------

 -------------------
 Title Card Required
 -------------------
 Symbolic Z-matrix:
 Charge =  0 Multiplicity = 2

                          Input orientation:
 ---------------------------------------------------------------------
 Center     Atomic      Atomic             Coordinates (Angstroms)
 Number     Number       Type             X           Y           Z
 ---------------------------------------------------------------------
      1          1           0        0.000000    0.000000    0.000000
      2          1           0       -0.650000    0.000000    0.000000
      3          9           0        0.950000    0.000000    0.000000
 ---------------------------------------------------------------------

 SCF Done:  E(UB3LYP) =  -100.893460982     a.u. after    6 cycles

 Alpha  occ. eigenvalues --  -24.67177  -1.22341  -0.65841  -0.42235  -0.42235
 Alpha  occ. eigenvalues --   -0.34036
 Alpha virt. eigenvalues --    0.14458   0.18143   0.64323   0.86736   0.86736
 Alpha virt. eigenvalues --    0.94182   1.11093   1.11093   1.46035   1.73212
 Alpha virt. eigenvalues --    1.82355   1.82355   1.93667   2.55569   3.78695

  Beta  occ. eigenvalues --  -24.65592  -1.18307  -0.58391  -0.40813  -0.40813
  Beta virt. eigenvalues --   -0.16214   0.16670   0.19317   0.69362   0.88734
  Beta virt. eigenvalues --    0.88734   0.97330   1.15278   1.15278   1.48249
  Beta virt. eigenvalues --    1.81134   1.86650   1.86650   1.95178   2.62152

 Mulliken charges and spin densities:
               1          2
     1  H    0.279603  -0.018147
     2  H   -0.058840   0.636696
     3  F   -0.220763   0.381451
 Sum of Mulliken charges =   0.00000   1.00000

 Dipole moment (field-independent basis, Debye):
    X=             -1.3226    Y=             -0.0000    Z=             -0.0000  Tot=              1.3226
 Quadrupole moment (field-independent basis, Debye-Ang):
   XX=             -7.4140   YY=             -6.4610   ZZ=             -6.4610
   XY=             -0.0000   XZ=             -0.0000   YZ=              0.0000

  Exact polarizability:      11.967       0.000       2.514       0.000      -0.000       2.514
 Approx polarizability:      13.852       0.000       2.584       0.000      -0.000       2.584

 ******    2 imaginary frequencies (negative Signs) ******

                      1                      2                      3
                      A                      A                      A
 Frequencies --  -2987.0204             -2987.0204              2628.2375
 Red. masses --      1.0140                 1.0140                 1.1082
 Frc consts  --      5.3305                 5.3305                 4.5101
 IR Inten    --     35.5647                35.5647                55.6299

                      4
                      A
 Frequencies --   5718.1439
 Red. masses --      1.0081
 Frc consts  --     19.4209
 IR Inten    --     64.7375

 - Thermochemistry -
 -------------------
 Temperature   298.150 Kelvin.  Pressure   1.00000 Atm.
 Atom     1 has atomic number  1 and mass   1.00783

 Molecular mass:    21.01405 amu.
 Principal axes and moments of inertia in atomic units:
                           1         2         3
     Eigenvalues --     0.00000  11.33919  11.33919
           X            1.00000  -0.00000   0.00000
           Y            0.00000   1.00000   0.00000
           Z            0.00000   0.00000   1.00000
 This molecule is a prolate symmetric top.
 Rotational symmetry number  1.
 Rotational temperature (Kelvin)      7.63846
 Rotational constant (GHZ):         159.159614
    2 imaginary frequencies ignored.
 Zero-point vibrational energy      49922.4 (Joules/Mol)
                                   11.93175 (Kcal/Mol)
 Vibrational temperatures:   3781.45  8227.13
          (Kelvin)

 Zero-point correction=                           0.019014 (Hartree/Particle)
 Thermal correction to Energy=                    0.021375
 Thermal correction to Enthalpy=                  0.022319
 Thermal correction to Gibbs Free Energy=         0.000599
 Sum of electronic and zero-point Energies=           -100.874447
 Sum of electronic and thermal Energies=              -100.872086
 Sum of electronic and thermal Enthalpies=            -100.871142
 Sum of electronic and thermal Free Energies=         -100.892862

                     E (Thermal)             CV                S
                      KCal/Mol        Cal/Mol-Kelvin    Cal/Mol-Kelvin
 Total                   13.413              4.969             45.715
 Electronic               0.000              0.000              1.377
 Translational            0.889              2.981             35.068
 Rotational               0.592              1.987              9.269
 Vibrational             11.932              0.001              0.000

 Normal termination of Gaussian 16 at Fri Aug 22 15:57:13 2025.
