 Gaussian 16, Revision C.01,
 Gaussian 16:  ES64L-G16RevC.01  3-Jul-2019

 -----------------------------------------
 # sp b3lyp/6-311g** Force nosymm scf=(qc)
 -----------------------------------------

 -------------------
 Title Card Required
 -------------------
 Symbolic Z-matrix:
 Charge =  0 Multiplicity = 2

                          Input orientation:
 ---------------------------------------------------------------------
 Center     Atomic      Atomic             Coordinates (Angstroms)
 Number     Number       Type             X           Y           Z
 ---------------------------------------------------------------------
      1          1           0        0.000000    0.000000    0.000000
      2          1           0       -1.250000    0.000000    0.000000
      3          9           0        2.950000    0.000000    0.000000
 ---------------------------------------------------------------------

 SCF Done:  E(UB3LYP) =  -100.863276534     a.u. after   17 cycles

 Alpha  occ. eigenvalues --  -24.76736  -1.22553  -0.55740  -0.47001  -0.46889
 Alpha  occ. eigenvalues --   -0.35621
 Alpha virt. eigenvalues --   -0.04887   0.23399   0.33837   0.85724   0.90596
 Alpha virt. eigenvalues --    0.93341   1.04232   1.14253   1.14260   1.18938
 Alpha virt. eigenvalues --    1.52009   1.52017   2.03967   2.30889   2.54887

  Beta  occ. eigenvalues --  -24.73575  -1.13466  -0.43843  -0.43720  -0.35606
  Beta virt. eigenvalues --   -0.26363  -0.04869   0.23421   0.33917   0.92095
  Beta virt. eigenvalues --    0.95048   0.95181   1.08075   1.14252   1.14259
  Beta virt. eigenvalues --    1.18941   1.52008   1.52015   2.03976   2.30892

 Mulliken charges and spin densities:
               1          2
     1  H   -0.001297  -0.000063
     2  H   -0.007108  -0.001071
     3  F    0.008405   1.001134
 Sum of Mulliken charges =  -0.00000   1.00000

 Dipole moment (field-independent basis, Debye):
    X=              0.1157    Y=              0.0000    Z=              0.0000  Tot=              0.1157
 Quadrupole moment (field-independent basis, Debye-Ang):
   XX=             -6.1403   YY=             -6.9565   ZZ=             -7.2853
   XY=             -0.0000   XZ=             -0.0000   YZ=              0.3993

  Exact polarizability:      17.653       0.000       2.399      -0.000       0.213       2.223
 Approx polarizability:      27.171      -0.000       2.503      -0.000       0.268       2.283

 ******    1 imaginary frequencies (negative Signs) ******

                      1                      2                      3
                      A                      A                      A
 Frequencies --   -789.3956                35.9933              1430.9698
 Red. masses --      1.0078                 1.1085                 1.0108
 Frc consts  --      0.3700                 0.0008                 1.2195
 IR Inten    --      1.3193                 0.6756                 0.0041

                      4
                      A
 Frequencies --   1432.1613
 Red. masses --      1.0108
 Frc consts  --      1.2215
 IR Inten    --      0.0037

 - Thermochemistry -
 -------------------
 Temperature   298.150 Kelvin.  Pressure   1.00000 Atm.
 Atom     1 has atomic number  1 and mass   1.00783

 Molecular mass:    21.01405 amu.
 Principal axes and moments of inertia in atomic units:
                           1         2         3
     Eigenvalues --     0.00000  85.98279  85.98279
           X            1.00000  -0.00000   0.00000
           Y            0.00000   1.00000   0.00000
           Z            0.00000   0.00000   1.00000
 This molecule is a prolate symmetric top.
 Rotational symmetry number  1.
 Rotational temperature (Kelvin)      1.00734
 Rotational constant (GHZ):          20.989564
    1 imaginary frequencies ignored.
 Zero-point vibrational energy      17340.6 (Joules/Mol)
                                    4.14451 (Kcal/Mol)
 Warning -- explicit consideration of   1 degrees of freedom as
           vibrations may cause significant error
 Vibrational temperatures:     51.79  2058.85  2060.56
          (Kelvin)

 Zero-point correction=                           0.006605 (Hartree/Particle)
 Thermal correction to Energy=                    0.009843
 Thermal correction to Enthalpy=                  0.010787
 Thermal correction to Gibbs Free Energy=        -0.015459
 Sum of electronic and zero-point Energies=           -100.856672
 Sum of electronic and thermal Energies=              -100.853434
 Sum of electronic and thermal Enthalpies=            -100.852490
 Sum of electronic and thermal Free Energies=         -100.878736

                     E (Thermal)             CV                S
                      KCal/Mol        Cal/Mol-Kelvin    Cal/Mol-Kelvin
 Total                    6.176              7.140             55.240
 Electronic               0.000              0.000              1.377
 Translational            0.889              2.981             35.068
 Rotational               0.592              1.987             13.295
 Vibrational              4.695              2.172              5.500
 Vibration     1          0.594              1.982              5.468

 Normal termination of Gaussian 16 at Fri Aug 22 19:13:17 2025.
