 Gaussian 16, Revision C.01,
 Gaussian 16:  ES64L-G16RevC.01  3-Jul-2019

 -----------------------------------------
 # sp b3lyp/6-311g** Force nosymm scf=(qc)
 -----------------------------------------

 -------------------
 Title Card Required
 -------------------
 Symbolic Z-matrix:
 Charge =  0 Multiplicity = 2

                          Input orientation:
 ---------------------------------------------------------------------
 Center     Atomic      Atomic             Coordinates (Angstroms)
 Number     Number       Type             X           Y           Z
 ---------------------------------------------------------------------
      1          1           0        0.000000    0.000000    0.000000
      2          1           0       -3.800000    0.000000    0.000000
      3          9           0        0.850000    0.000000    0.000000
 ---------------------------------------------------------------------

 SCF Done:  E(UB3LYP) =  -100.965473482     a.u. after    6 cycles

 Alpha  occ. eigenvalues --  -24.63862  -1.20912  -0.55017  -0.40143  -0.40143
 Alpha  occ. eigenvalues --   -0.33365
 Alpha virt. eigenvalues --    0.04168   0.24172   0.42703   0.94329   0.94329
 Alpha virt. eigenvalues --    0.97377   1.24037   1.24142   1.24142   1.29148
 Alpha virt. eigenvalues --    1.38346   1.38346   2.02584   2.14421   2.42858

  Beta  occ. eigenvalues --  -24.63862  -1.20911  -0.55016  -0.40142  -0.40142
  Beta virt. eigenvalues --   -0.05024   0.04436   0.38725   0.42998   0.94329
  Beta virt. eigenvalues --    0.94329   0.97374   1.29019   1.38346   1.38346
  Beta virt. eigenvalues --    1.50595   1.51005   1.51005   2.02781   2.42804

 Mulliken charges and spin densities:
               1          2
     1  H    0.284447   0.000368
     2  H    0.000464   0.999468
     3  F   -0.284911   0.000164
 Sum of Mulliken charges =   0.00000   1.00000

 Dipole moment (field-independent basis, Debye):
    X=             -1.8124    Y=              0.0000    Z=             -0.0000  Tot=              1.8124
 Quadrupole moment (field-independent basis, Debye-Ang):
   XX=             -7.7842   YY=             -6.8200   ZZ=             -6.8200
   XY=              0.0000   XZ=              0.0000   YZ=             -0.0000

  Exact polarizability:       4.891      -0.000       2.433       0.000       0.000       2.433
 Approx polarizability:       5.638       0.000       2.412      -0.000       0.000       2.412

 ******    3 imaginary frequencies (negative Signs) ******

                      1                      2                      3
                      A                      A                      A
 Frequencies --  -1328.5099             -1328.5099               -33.6381
 Red. masses --      1.0405                 1.0405                 1.0532
 Frc consts  --      1.0820                 1.0820                 0.0007
 IR Inten    --    190.1051               190.1051                 0.0154

                      4
                      A
 Frequencies --   5311.7644
 Red. masses --      1.0583
 Frc consts  --     17.5931
 IR Inten    --    101.4607

 - Thermochemistry -
 -------------------
 Temperature   298.150 Kelvin.  Pressure   1.00000 Atm.
 Atom     1 has atomic number  1 and mass   1.00783

 Molecular mass:    21.01405 amu.
 Principal axes and moments of inertia in atomic units:
                           1         2         3
     Eigenvalues --     0.00000  75.19849  75.19849
           X            1.00000  -0.00000   0.00000
           Y            0.00000   1.00000   0.00000
           Z            0.00000   0.00000   1.00000
 This molecule is a prolate symmetric top.
 Rotational symmetry number  1.
 Rotational temperature (Kelvin)      1.15180
 Rotational constant (GHZ):          23.999701
    3 imaginary frequencies ignored.
 Zero-point vibrational energy      31771.4 (Joules/Mol)
                                    7.59355 (Kcal/Mol)
 Vibrational temperatures:   7642.44
          (Kelvin)

 Zero-point correction=                           0.012101 (Hartree/Particle)
 Thermal correction to Energy=                    0.014462
 Thermal correction to Enthalpy=                  0.015406
 Thermal correction to Gibbs Free Energy=        -0.008101
 Sum of electronic and zero-point Energies=           -100.953372
 Sum of electronic and thermal Energies=              -100.951012
 Sum of electronic and thermal Enthalpies=            -100.950068
 Sum of electronic and thermal Free Energies=         -100.973574

                     E (Thermal)             CV                S
                      KCal/Mol        Cal/Mol-Kelvin    Cal/Mol-Kelvin
 Total                    9.075              4.968             49.474
 Electronic               0.000              0.000              1.377
 Translational            0.889              2.981             35.068
 Rotational               0.592              1.987             13.029
 Vibrational              7.594              0.000              0.000

 Normal termination of Gaussian 16 at Fri Aug 22 15:54:36 2025.
