 Gaussian 16, Revision C.01,
 Gaussian 16:  ES64L-G16RevC.01  3-Jul-2019

 -----------------------------------------
 # sp b3lyp/6-311g** Force nosymm scf=(qc)
 -----------------------------------------

 -------------------
 Title Card Required
 -------------------
 Symbolic Z-matrix:
 Charge =  0 Multiplicity = 2

                          Input orientation:
 ---------------------------------------------------------------------
 Center     Atomic      Atomic             Coordinates (Angstroms)
 Number     Number       Type             X           Y           Z
 ---------------------------------------------------------------------
      1          1           0        0.000000    0.000000    0.000000
      2          1           0       -3.000000    0.000000    0.000000
      3          9           0        1.550000    0.000000    0.000000
 ---------------------------------------------------------------------

 SCF Done:  E(UB3LYP) =  -100.844381332     a.u. after    7 cycles

 Alpha  occ. eigenvalues --  -24.64401  -1.09793  -0.42957  -0.36394  -0.36394
 Alpha  occ. eigenvalues --   -0.34671
 Alpha virt. eigenvalues --   -0.15065   0.21231   0.27676   0.93928   0.93928
 Alpha virt. eigenvalues --    1.02529   1.08221   1.22846   1.22846   1.23402
 Alpha virt. eigenvalues --    1.31303   1.31303   1.74161   2.13580   2.19326

  Beta  occ. eigenvalues --  -24.64062  -1.08892  -0.42183  -0.36071  -0.36071
  Beta virt. eigenvalues --   -0.16294  -0.07663   0.23571   0.37093   0.93782
  Beta virt. eigenvalues --    0.93782   1.03196   1.08151   1.29541   1.29541
  Beta virt. eigenvalues --    1.44325   1.44641   1.44641   1.73467   2.16682

 Mulliken charges and spin densities:
               1          2
     1  H    0.338102  -0.099489
     2  H    0.006885   0.992423
     3  F   -0.344987   0.107066
 Sum of Mulliken charges =  -0.00000   1.00000

 Dipole moment (field-independent basis, Debye):
    X=             -2.7192    Y=             -0.0000    Z=              0.0000  Tot=              2.7192
 Quadrupole moment (field-independent basis, Debye-Ang):
   XX=             -9.8380   YY=             -7.3513   ZZ=             -7.3513
   XY=             -0.0000   XZ=              0.0000   YZ=             -0.0000

  Exact polarizability:      20.138       0.000       2.169       0.000       0.000       2.169
 Approx polarizability:      34.740      -0.000       2.091       0.000       0.000       2.091

 ******    2 imaginary frequencies (negative Signs) ******

                      1                      2                      3
                      A                      A                      A
 Frequencies --  -1599.8928              -159.2653               963.2994
 Red. masses --      1.0549                 1.0567                 1.0275
 Frc consts  --      1.5909                 0.0158                 0.5618
 IR Inten    --      3.6266                 1.2985               105.7184

                      4
                      A
 Frequencies --    963.2994
 Red. masses --      1.0275
 Frc consts  --      0.5618
 IR Inten    --    105.7184

 - Thermochemistry -
 -------------------
 Temperature   298.150 Kelvin.  Pressure   1.00000 Atm.
 Atom     1 has atomic number  1 and mass   1.00783

 Molecular mass:    21.01405 amu.
 Principal axes and moments of inertia in atomic units:
                           1         2         3
     Eigenvalues --     0.00000  76.73239  76.73239
           X            1.00000  -0.00000   0.00000
           Y            0.00000   1.00000   0.00000
           Z            0.00000   0.00000   1.00000
 This molecule is a prolate symmetric top.
 Rotational symmetry number  1.
 Rotational temperature (Kelvin)      1.12878
 Rotational constant (GHZ):          23.519940
    2 imaginary frequencies ignored.
 Zero-point vibrational energy      11523.6 (Joules/Mol)
                                    2.75421 (Kcal/Mol)
 Vibrational temperatures:   1385.97  1385.97
          (Kelvin)

 Zero-point correction=                           0.004389 (Hartree/Particle)
 Thermal correction to Energy=                    0.006834
 Thermal correction to Enthalpy=                  0.007779
 Thermal correction to Gibbs Free Energy=        -0.015850
 Sum of electronic and zero-point Energies=           -100.839992
 Sum of electronic and thermal Energies=              -100.837547
 Sum of electronic and thermal Enthalpies=            -100.836603
 Sum of electronic and thermal Free Energies=         -100.860232

                     E (Thermal)             CV                S
                      KCal/Mol        Cal/Mol-Kelvin    Cal/Mol-Kelvin
 Total                    4.289              5.806             49.731
 Electronic               0.000              0.000              1.377
 Translational            0.889              2.981             35.068
 Rotational               0.592              1.987             13.069
 Vibrational              2.807              0.838              0.217

 Normal termination of Gaussian 16 at Fri Aug 22 16:29:06 2025.
