 Gaussian 16, Revision C.01,
 Gaussian 16:  ES64L-G16RevC.01  3-Jul-2019

 -----------------------------------------
 # sp b3lyp/6-311g** Force nosymm scf=(qc)
 -----------------------------------------

 -------------------
 Title Card Required
 -------------------
 Symbolic Z-matrix:
 Charge =  0 Multiplicity = 2

                          Input orientation:
 ---------------------------------------------------------------------
 Center     Atomic      Atomic             Coordinates (Angstroms)
 Number     Number       Type             X           Y           Z
 ---------------------------------------------------------------------
      1          1           0        0.000000    0.000000    0.000000
      2          1           0       -0.900000    0.000000    0.000000
      3          9           0        3.900000    0.000000    0.000000
 ---------------------------------------------------------------------

 SCF Done:  E(UB3LYP) =  -100.921772177     a.u. after  142 cycles

 Alpha  occ. eigenvalues --  -24.76202  -1.22097  -0.55301  -0.46477  -0.46457
 Alpha  occ. eigenvalues --   -0.40428
 Alpha virt. eigenvalues --    0.02592   0.20756   0.41638   0.86071   0.90948
 Alpha virt. eigenvalues --    0.91617   1.01032   1.08362   1.08364   1.45318
 Alpha virt. eigenvalues --    1.72248   1.72250   2.16924   2.37273   2.74165

  Beta  occ. eigenvalues --  -24.73047  -1.13023  -0.43314  -0.43293  -0.40426
  Beta virt. eigenvalues --   -0.25950   0.02596   0.20759   0.41656   0.92448
  Beta virt. eigenvalues --    0.93108   0.95537   1.05173   1.08362   1.08364
  Beta virt. eigenvalues --    1.45320   1.72248   1.72250   2.16929   2.37273

 Mulliken charges and spin densities:
               1          2
     1  H    0.000546  -0.000128
     2  H   -0.001858  -0.000014
     3  F    0.001312   1.000142
 Sum of Mulliken charges =   0.00000   1.00000

 Dipole moment (field-independent basis, Debye):
    X=              0.0225    Y=             -0.0000    Z=              0.0000  Tot=              0.0225
 Quadrupole moment (field-independent basis, Debye-Ang):
   XX=             -6.3253   YY=             -7.1335   ZZ=             -6.3005
   XY=              0.0000   XZ=             -0.0000   YZ=             -0.1158

  Exact polarizability:      10.265       0.000       2.035      -0.000      -0.062       2.484
 Approx polarizability:      12.815       0.000       2.099      -0.000      -0.078       2.660

 ******    1 imaginary frequencies (negative Signs) ******

                      1                      2                      3
                      A                      A                      A
 Frequencies --    -55.0686              1452.1360              1453.6066
 Red. masses --      1.1085                 1.0089                 1.0089
 Frc consts  --      0.0020                 1.2535                 1.2560
 IR Inten    --      0.0482                 0.0008                 0.0003

                      4
                      A
 Frequencies --   2642.7814
 Red. masses --      1.0078
 Frc consts  --      4.1472
 IR Inten    --      0.0401

 - Thermochemistry -
 -------------------
 Temperature   298.150 Kelvin.  Pressure   1.00000 Atm.
 Atom     1 has atomic number  1 and mass   1.00783

 Molecular mass:    21.01405 amu.
 Principal axes and moments of inertia in atomic units:
                           1         2         3
     Eigenvalues --     0.00000 124.59746 124.59746
           X            1.00000  -0.00000   0.00000
           Y            0.00000   1.00000   0.00000
           Z            0.00000   0.00000   1.00000
 This molecule is a prolate symmetric top.
 Rotational symmetry number  1.
 Rotational temperature (Kelvin)      0.69515
 Rotational constant (GHZ):          14.484575
    1 imaginary frequencies ignored.
 Zero-point vibrational energy      33187.5 (Joules/Mol)
                                    7.93201 (Kcal/Mol)
 Vibrational temperatures:   2089.30  2091.42  3802.37
          (Kelvin)

 Zero-point correction=                           0.012640 (Hartree/Particle)
 Thermal correction to Energy=                    0.015013
 Thermal correction to Enthalpy=                  0.015957
 Thermal correction to Gibbs Free Energy=        -0.008040
 Sum of electronic and zero-point Energies=           -100.909132
 Sum of electronic and thermal Energies=              -100.906759
 Sum of electronic and thermal Enthalpies=            -100.905815
 Sum of electronic and thermal Free Energies=         -100.929812

                     E (Thermal)             CV                S
                      KCal/Mol        Cal/Mol-Kelvin    Cal/Mol-Kelvin
 Total                    9.421              5.145             50.506
 Electronic               0.000              0.000              1.377
 Translational            0.889              2.981             35.068
 Rotational               0.592              1.987             14.032
 Vibrational              7.940              0.177              0.029

 Normal termination of Gaussian 16 at Sat Aug 23 01:14:59 2025.
