 Gaussian 16, Revision C.01,
 Gaussian 16:  ES64L-G16RevC.01  3-Jul-2019

 -----------------------------------------
 # sp b3lyp/6-311g** Force nosymm scf=(qc)
 -----------------------------------------

 -------------------
 Title Card Required
 -------------------
 Symbolic Z-matrix:
 Charge =  0 Multiplicity = 2

                          Input orientation:
 ---------------------------------------------------------------------
 Center     Atomic      Atomic             Coordinates (Angstroms)
 Number     Number       Type             X           Y           Z
 ---------------------------------------------------------------------
      1          1           0        0.000000    0.000000    0.000000
      2          1           0       -0.550000    0.000000    0.000000
      3          9           0        1.700000    0.000000    0.000000
 ---------------------------------------------------------------------

 SCF Done:  E(UB3LYP) =  -100.892643360     a.u. after    6 cycles

 Alpha  occ. eigenvalues --  -24.73993  -1.20429  -0.57111  -0.47109  -0.44829
 Alpha  occ. eigenvalues --   -0.44829
 Alpha virt. eigenvalues --    0.11630   0.19806   0.51026   0.89325   0.89325
 Alpha virt. eigenvalues --    0.95909   1.10880   1.10880   1.25678   1.68698
 Alpha virt. eigenvalues --    1.82376   1.95568   1.95568   2.49471   3.69436

  Beta  occ. eigenvalues --  -24.71009  -1.12041  -0.50505  -0.41882  -0.41882
  Beta virt. eigenvalues --   -0.24558   0.12246   0.20467   0.52413   0.90601
  Beta virt. eigenvalues --    0.90601   1.03049   1.11964   1.11964   1.29325
  Beta virt. eigenvalues --    1.70500   1.83119   1.96034   1.96034   2.50821

 Mulliken charges and spin densities:
               1          2
     1  H    0.049527  -0.025584
     2  H    0.012714   0.104376
     3  F   -0.062241   0.921208
 Sum of Mulliken charges =   0.00000   1.00000

 Dipole moment (field-independent basis, Debye):
    X=             -0.5261    Y=             -0.0000    Z=             -0.0000  Tot=              0.5261
 Quadrupole moment (field-independent basis, Debye-Ang):
   XX=             -6.1799   YY=             -6.5957   ZZ=             -6.5957
   XY=             -0.0000   XZ=             -0.0000   YZ=              0.0000

  Exact polarizability:      13.199       0.000       2.112       0.000      -0.000       2.112
 Approx polarizability:      14.517      -0.000       2.179      -0.000      -0.000       2.179

 ******    2 imaginary frequencies (negative Signs) ******

                      1                      2                      3
                      A                      A                      A
 Frequencies --  -3762.0628             -3762.0628               389.7303
 Red. masses --      1.0098                 1.0098                 1.1085
 Frc consts  --      8.4201                 8.4201                 0.0992
 IR Inten    --      0.2010                 0.2010                35.4655

                      4
                      A
 Frequencies --   8271.2871
 Red. masses --      1.0078
 Frc consts  --     40.6240
 IR Inten    --    289.3511

 - Thermochemistry -
 -------------------
 Temperature   298.150 Kelvin.  Pressure   1.00000 Atm.
 Atom     1 has atomic number  1 and mass   1.00783

 Molecular mass:    21.01405 amu.
 Principal axes and moments of inertia in atomic units:
                           1         2         3
     Eigenvalues --     0.00000  25.92802  25.92802
           X            1.00000  -0.00000   0.00000
           Y            0.00000   1.00000   0.00000
           Z            0.00000   0.00000   1.00000
 This molecule is a prolate symmetric top.
 Rotational symmetry number  1.
 Rotational temperature (Kelvin)      3.34055
 Rotational constant (GHZ):          69.605835
    2 imaginary frequencies ignored.
 Zero-point vibrational energy      51804.4 (Joules/Mol)
                                   12.38155 (Kcal/Mol)
 Warning -- explicit consideration of   1 degrees of freedom as
           vibrations may cause significant error
 Vibrational temperatures:    560.73 11900.54
          (Kelvin)

 Zero-point correction=                           0.019731 (Hartree/Particle)
 Thermal correction to Energy=                    0.022411
 Thermal correction to Enthalpy=                  0.023355
 Thermal correction to Gibbs Free Energy=         0.000378
 Sum of electronic and zero-point Energies=           -100.872912
 Sum of electronic and thermal Energies=              -100.870232
 Sum of electronic and thermal Enthalpies=            -100.869288
 Sum of electronic and thermal Free Energies=         -100.892265

                     E (Thermal)             CV                S
                      KCal/Mol        Cal/Mol-Kelvin    Cal/Mol-Kelvin
 Total                   14.063              6.460             48.359
 Electronic               0.000              0.000              1.377
 Translational            0.889              2.981             35.068
 Rotational               0.592              1.987             10.913
 Vibrational             12.582              1.492              1.001
 Vibration     1          0.758              1.492              1.001

 Normal termination of Gaussian 16 at Fri Aug 22 16:36:11 2025.
