 Gaussian 16, Revision C.01,
 Gaussian 16:  ES64L-G16RevC.01  3-Jul-2019

 -----------------------------------------
 # sp b3lyp/6-311g** Force nosymm scf=(qc)
 -----------------------------------------

 -------------------
 Title Card Required
 -------------------
 Symbolic Z-matrix:
 Charge =  0 Multiplicity = 2

                          Input orientation:
 ---------------------------------------------------------------------
 Center     Atomic      Atomic             Coordinates (Angstroms)
 Number     Number       Type             X           Y           Z
 ---------------------------------------------------------------------
      1          1           0        0.000000    0.000000    0.000000
      2          1           0       -3.500000    0.000000    0.000000
      3          9           0        2.900000    0.000000    0.000000
 ---------------------------------------------------------------------

 SCF Done:  E(UB3LYP) =  -100.761845564     a.u. after   21 cycles

 Alpha  occ. eigenvalues --  -24.73703  -1.19791  -0.52821  -0.44354  -0.44354
 Alpha  occ. eigenvalues --   -0.32602
 Alpha virt. eigenvalues --   -0.08514   0.23941   0.35947   0.89674   0.92504
 Alpha virt. eigenvalues --    0.92504   1.04481   1.24905   1.24905   1.25069
 Alpha virt. eigenvalues --    1.43495   1.43495   1.43931   2.14760   2.39456

  Beta  occ. eigenvalues --  -24.70703  -1.11201  -0.41353  -0.41353  -0.33996
  Beta virt. eigenvalues --   -0.24554  -0.06602   0.23983   0.37868   0.93956
  Beta virt. eigenvalues --    0.93956   0.98180   1.08084   1.23325   1.23325
  Beta virt. eigenvalues --    1.24191   1.45797   1.46059   1.46059   2.14724

 Mulliken charges and spin densities:
               1          2
     1  H    0.044605  -0.948307
     2  H    0.000523   0.997941
     3  F   -0.045128   0.950366
 Sum of Mulliken charges =  -0.00000   1.00000

 Dipole moment (field-independent basis, Debye):
    X=             -0.6804    Y=             -0.0000    Z=              0.0000  Tot=              0.6804
 Quadrupole moment (field-independent basis, Debye-Ang):
   XX=             -8.5092   YY=             -7.6045   ZZ=             -7.6045
   XY=             -0.0000   XZ=              0.0000   YZ=              0.0000

  Exact polarizability:      32.277      -0.000       2.025       0.000       0.000       2.025
 Approx polarizability:      34.478      -0.000       1.925       0.000       0.000       1.925

 ******    2 imaginary frequencies (negative Signs) ******

                      1                      2                      3
                      A                      A                      A
 Frequencies --   -416.0200              -118.9331               149.3232
 Red. masses --      1.0486                 1.0630                 1.0204
 Frc consts  --      0.1069                 0.0089                 0.0134
 IR Inten    --     46.6671                 0.5550                 1.8742

                      4
                      A
 Frequencies --    149.3232
 Red. masses --      1.0204
 Frc consts  --      0.0134
 IR Inten    --      1.8742

 - Thermochemistry -
 -------------------
 Temperature   298.150 Kelvin.  Pressure   1.00000 Atm.
 Atom     1 has atomic number  1 and mass   1.00783

 Molecular mass:    21.01405 amu.
 Principal axes and moments of inertia in atomic units:
                           1         2         3
     Eigenvalues --     0.00000 162.75428 162.75428
           X            1.00000  -0.00000   0.00000
           Y            0.00000   1.00000   0.00000
           Z            0.00000   0.00000   1.00000
 This molecule is a prolate symmetric top.
 Rotational symmetry number  1.
 Rotational temperature (Kelvin)      0.53218
 Rotational constant (GHZ):          11.088748
    2 imaginary frequencies ignored.
 Zero-point vibrational energy       1786.3 (Joules/Mol)
                                    0.42694 (Kcal/Mol)
 Warning -- explicit consideration of   2 degrees of freedom as
           vibrations may cause significant error
 Vibrational temperatures:    214.84   214.84
          (Kelvin)

 Zero-point correction=                           0.000680 (Hartree/Particle)
 Thermal correction to Energy=                    0.004330
 Thermal correction to Enthalpy=                  0.005274
 Thermal correction to Gibbs Free Energy=        -0.021509
 Sum of electronic and zero-point Energies=           -100.761165
 Sum of electronic and thermal Energies=              -100.757516
 Sum of electronic and thermal Enthalpies=            -100.756572
 Sum of electronic and thermal Free Energies=         -100.783355

                     E (Thermal)             CV                S
                      KCal/Mol        Cal/Mol-Kelvin    Cal/Mol-Kelvin
 Total                    2.717              8.775             56.370
 Electronic               0.000              0.000              1.377
 Translational            0.889              2.981             35.068
 Rotational               0.592              1.987             14.563
 Vibrational              1.236              3.807              5.362
 Vibration     1          0.618              1.903              2.681
 Vibration     2          0.618              1.903              2.681

 Normal termination of Gaussian 16 at Fri Aug 22 19:04:47 2025.
