 Gaussian 16, Revision C.01,
 Gaussian 16:  ES64L-G16RevC.01  3-Jul-2019

 -----------------------------------------
 # sp b3lyp/6-311g** Force nosymm scf=(qc)
 -----------------------------------------

 -------------------
 Title Card Required
 -------------------
 Symbolic Z-matrix:
 Charge =  0 Multiplicity = 2

                          Input orientation:
 ---------------------------------------------------------------------
 Center     Atomic      Atomic             Coordinates (Angstroms)
 Number     Number       Type             X           Y           Z
 ---------------------------------------------------------------------
      1          1           0        0.000000    0.000000    0.000000
      2          1           0       -0.700000    0.000000    0.000000
      3          9           0        3.500000    0.000000    0.000000
 ---------------------------------------------------------------------

 SCF Done:  E(UB3LYP) =  -100.932581469     a.u. after  108 cycles

 Alpha  occ. eigenvalues --  -24.76346  -1.22202  -0.55402  -0.46604  -0.46556
 Alpha  occ. eigenvalues --   -0.44192
 Alpha virt. eigenvalues --    0.06739   0.19499   0.48168   0.86008   0.90884
 Alpha virt. eigenvalues --    0.92935   1.02130   1.08951   1.08954   1.57602
 Alpha virt. eigenvalues --    1.85852   1.85856   1.90204   2.37923   3.56925

  Beta  occ. eigenvalues --  -24.73188  -1.13122  -0.44252  -0.43389  -0.43376
  Beta virt. eigenvalues --   -0.26040   0.06758   0.19511   0.48232   0.92384
  Beta virt. eigenvalues --    0.94477   0.95471   1.06144   1.08951   1.08954
  Beta virt. eigenvalues --    1.57610   1.85852   1.85856   1.90227   2.37924

 Mulliken charges and spin densities:
               1          2
     1  H   -0.002145  -0.000523
     2  H   -0.002081   0.000033
     3  F    0.004226   1.000490
 Sum of Mulliken charges =   0.00000   1.00000

 Dipole moment (field-independent basis, Debye):
    X=              0.0488    Y=             -0.0000    Z=              0.0000  Tot=              0.0488
 Quadrupole moment (field-independent basis, Debye-Ang):
   XX=             -6.1755   YY=             -6.4536   ZZ=             -6.4508
   XY=              0.0000   XZ=             -0.0000   YZ=             -0.4321

  Exact polarizability:       7.653       0.000       2.161      -0.000      -0.232       2.162
 Approx polarizability:       8.625       0.000       2.298      -0.000      -0.291       2.300

 ******    3 imaginary frequencies (negative Signs) ******

                      1                      2                      3
                      A                      A                      A
 Frequencies --  -1174.6419             -1174.4328               -15.7457
 Red. masses --      1.0087                 1.0087                 1.1085
 Frc consts  --      0.8200                 0.8197                 0.0002
 IR Inten    --      0.0019                 0.0020                 0.1380

                      4
                      A
 Frequencies --   5087.7090
 Red. masses --      1.0078
 Frc consts  --     15.3702
 IR Inten    --      0.0631

 - Thermochemistry -
 -------------------
 Temperature   298.150 Kelvin.  Pressure   1.00000 Atm.
 Atom     1 has atomic number  1 and mass   1.00783

 Molecular mass:    21.01405 amu.
 Principal axes and moments of inertia in atomic units:
                           1         2         3
     Eigenvalues --     0.00000  97.34050  97.34050
           X            1.00000  -0.00000   0.00000
           Y            0.00000   1.00000   0.00000
           Z            0.00000   0.00000   1.00000
 This molecule is a prolate symmetric top.
 Rotational symmetry number  1.
 Rotational temperature (Kelvin)      0.88980
 Rotational constant (GHZ):          18.540496
    3 imaginary frequencies ignored.
 Zero-point vibrational energy      30431.3 (Joules/Mol)
                                    7.27325 (Kcal/Mol)
 Vibrational temperatures:   7320.08
          (Kelvin)

 Zero-point correction=                           0.011591 (Hartree/Particle)
 Thermal correction to Energy=                    0.013951
 Thermal correction to Enthalpy=                  0.014895
 Thermal correction to Gibbs Free Energy=        -0.008855
 Sum of electronic and zero-point Energies=           -100.920991
 Sum of electronic and thermal Energies=              -100.918630
 Sum of electronic and thermal Enthalpies=            -100.917686
 Sum of electronic and thermal Free Energies=         -100.941437

                     E (Thermal)             CV                S
                      KCal/Mol        Cal/Mol-Kelvin    Cal/Mol-Kelvin
 Total                    8.754              4.968             49.987
 Electronic               0.000              0.000              1.377
 Translational            0.889              2.981             35.068
 Rotational               0.592              1.987             13.542
 Vibrational              7.273              0.000              0.000

 Normal termination of Gaussian 16 at Fri Aug 22 21:48:26 2025.
