 Gaussian 16, Revision C.01,
 Gaussian 16:  ES64L-G16RevC.01  3-Jul-2019

 -----------------------------------------
 # sp b3lyp/6-311g** Force nosymm scf=(qc)
 -----------------------------------------

 -------------------
 Title Card Required
 -------------------
 Symbolic Z-matrix:
 Charge =  0 Multiplicity = 2

                          Input orientation:
 ---------------------------------------------------------------------
 Center     Atomic      Atomic             Coordinates (Angstroms)
 Number     Number       Type             X           Y           Z
 ---------------------------------------------------------------------
      1          1           0        0.000000    0.000000    0.000000
      2          1           0       -1.950000    0.000000    0.000000
      3          9           0        1.300000    0.000000    0.000000
 ---------------------------------------------------------------------

 SCF Done:  E(UB3LYP) =  -100.904817316     a.u. after    8 cycles

 Alpha  occ. eigenvalues --  -24.63623  -1.10703  -0.46382  -0.36950  -0.36480
 Alpha  occ. eigenvalues --   -0.36480
 Alpha virt. eigenvalues --   -0.06071   0.23310   0.27808   0.93618   0.93618
 Alpha virt. eigenvalues --    1.02249   1.08804   1.20057   1.20057   1.35050
 Alpha virt. eigenvalues --    1.35050   1.42602   1.70238   2.12019   2.30360

  Beta  occ. eigenvalues --  -24.63354  -1.10015  -0.45070  -0.36232  -0.36232
  Beta virt. eigenvalues --   -0.16097  -0.02357   0.27220   0.33041   0.93593
  Beta virt. eigenvalues --    0.93593   1.02994   1.15658   1.33162   1.33162
  Beta virt. eigenvalues --    1.39409   1.39409   1.52573   1.71262   2.23002

 Mulliken charges and spin densities:
               1          2
     1  H    0.330316  -0.030226
     2  H    0.035747   0.948627
     3  F   -0.366063   0.081599
 Sum of Mulliken charges =  -0.00000   1.00000

 Dipole moment (field-independent basis, Debye):
    X=             -2.7801    Y=              0.0000    Z=              0.0000  Tot=              2.7801
 Quadrupole moment (field-independent basis, Debye-Ang):
   XX=             -8.4300   YY=             -7.1556   ZZ=             -7.1556
   XY=              0.0000   XZ=              0.0000   YZ=              0.0000

  Exact polarizability:      19.410       0.000       2.335      -0.000      -0.000       2.335
 Approx polarizability:      25.541      -0.000       2.288       0.000      -0.000       2.288

 ******    2 imaginary frequencies (negative Signs) ******

                      1                      2                      3
                      A                      A                      A
 Frequencies --  -1160.3253              -132.1290              1116.8110
 Red. masses --      1.0267                 1.0866                 1.0235
 Frc consts  --      0.8144                 0.0112                 0.7522
 IR Inten    --    214.5432                 4.2211                92.5354

                      4
                      A
 Frequencies --   1116.8110
 Red. masses --      1.0235
 Frc consts  --      0.7522
 IR Inten    --     92.5354

 - Thermochemistry -
 -------------------
 Temperature   298.150 Kelvin.  Pressure   1.00000 Atm.
 Atom     1 has atomic number  1 and mass   1.00783

 Molecular mass:    21.01405 amu.
 Principal axes and moments of inertia in atomic units:
                           1         2         3
     Eigenvalues --     0.00000  40.52346  40.52346
           X            1.00000  -0.00000   0.00000
           Y            0.00000   1.00000   0.00000
           Z            0.00000   0.00000   1.00000
 This molecule is a prolate symmetric top.
 Rotational symmetry number  1.
 Rotational temperature (Kelvin)      2.13738
 Rotational constant (GHZ):          44.535716
    2 imaginary frequencies ignored.
 Zero-point vibrational energy      13360.0 (Joules/Mol)
                                    3.19312 (Kcal/Mol)
 Vibrational temperatures:   1606.84  1606.84
          (Kelvin)

 Zero-point correction=                           0.005089 (Hartree/Particle)
 Thermal correction to Energy=                    0.007496
 Thermal correction to Enthalpy=                  0.008440
 Thermal correction to Gibbs Free Energy=        -0.014538
 Sum of electronic and zero-point Energies=           -100.899729
 Sum of electronic and thermal Energies=              -100.897322
 Sum of electronic and thermal Enthalpies=            -100.896377
 Sum of electronic and thermal Free Energies=         -100.919356

                     E (Thermal)             CV                S
                      KCal/Mol        Cal/Mol-Kelvin    Cal/Mol-Kelvin
 Total                    4.704              5.500             48.362
 Electronic               0.000              0.000              1.377
 Translational            0.889              2.981             35.068
 Rotational               0.592              1.987             11.800
 Vibrational              3.222              0.532              0.116

 Normal termination of Gaussian 16 at Fri Aug 22 16:15:01 2025.
