 Gaussian 16, Revision C.01,
 Gaussian 16:  ES64L-G16RevC.01  3-Jul-2019

 -----------------------------------------
 # sp b3lyp/6-311g** Force nosymm scf=(qc)
 -----------------------------------------

 -------------------
 Title Card Required
 -------------------
 Symbolic Z-matrix:
 Charge =  0 Multiplicity = 2

                          Input orientation:
 ---------------------------------------------------------------------
 Center     Atomic      Atomic             Coordinates (Angstroms)
 Number     Number       Type             X           Y           Z
 ---------------------------------------------------------------------
      1          1           0        0.000000    0.000000    0.000000
      2          1           0       -3.800000    0.000000    0.000000
      3          9           0        1.950000    0.000000    0.000000
 ---------------------------------------------------------------------

 SCF Done:  E(UB3LYP) =  -100.790680619     a.u. after   16 cycles

 Alpha  occ. eigenvalues --  -24.67848  -1.14151  -0.46792  -0.39437  -0.39437
 Alpha  occ. eigenvalues --   -0.33305
 Alpha virt. eigenvalues --   -0.14109   0.22226   0.31120   0.89458   0.94866
 Alpha virt. eigenvalues --    0.94866   1.05603   1.24202   1.24202   1.24207
 Alpha virt. eigenvalues --    1.34963   1.34963   1.62880   2.13654   2.28707

  Beta  occ. eigenvalues --  -24.65566  -1.07792  -0.38274  -0.37192  -0.37192
  Beta virt. eigenvalues --   -0.20406  -0.06507   0.22236   0.38019   0.90507
  Beta virt. eigenvalues --    0.95351   0.95351   1.08051   1.22240   1.22240
  Beta virt. eigenvalues --    1.46063   1.46373   1.46373   1.56275   2.11634

 Mulliken charges and spin densities:
               1          2
     1  H    0.207458  -0.716521
     2  H    0.000793   0.998887
     3  F   -0.208250   0.717634
 Sum of Mulliken charges =   0.00000   1.00000

 Dipole moment (field-independent basis, Debye):
    X=             -2.0137    Y=             -0.0000    Z=              0.0000  Tot=              2.0137
 Quadrupole moment (field-independent basis, Debye-Ang):
   XX=            -10.1290   YY=             -7.4753   ZZ=             -7.4753
   XY=             -0.0000   XZ=              0.0000   YZ=              0.0000

  Exact polarizability:      24.482      -0.000       2.069       0.000      -0.000       2.069
 Approx polarizability:      36.447       0.000       1.955      -0.000       0.000       1.955

 ******    2 imaginary frequencies (negative Signs) ******

                      1                      2                      3
                      A                      A                      A
 Frequencies --  -1213.1207               -83.0815               519.3088
 Red. masses --      1.0578                 1.0538                 1.0276
 Frc consts  --      0.9172                 0.0043                 0.1633
 IR Inten    --    126.8679                 0.0761                40.7848

                      4
                      A
 Frequencies --    519.3088
 Red. masses --      1.0276
 Frc consts  --      0.1633
 IR Inten    --     40.7848

 - Thermochemistry -
 -------------------
 Temperature   298.150 Kelvin.  Pressure   1.00000 Atm.
 Atom     1 has atomic number  1 and mass   1.00783

 Molecular mass:    21.01405 amu.
 Principal axes and moments of inertia in atomic units:
                           1         2         3
     Eigenvalues --     0.00000 122.44359 122.44359
           X            1.00000  -0.00000   0.00000
           Y            0.00000   1.00000   0.00000
           Z            0.00000   0.00000   1.00000
 This molecule is a prolate symmetric top.
 Rotational symmetry number  1.
 Rotational temperature (Kelvin)      0.70738
 Rotational constant (GHZ):          14.739369
    2 imaginary frequencies ignored.
 Zero-point vibrational energy       6212.3 (Joules/Mol)
                                    1.48478 (Kcal/Mol)
 Warning -- explicit consideration of   2 degrees of freedom as
           vibrations may cause significant error
 Vibrational temperatures:    747.17   747.17
          (Kelvin)

 Zero-point correction=                           0.002366 (Hartree/Particle)
 Thermal correction to Energy=                    0.005147
 Thermal correction to Enthalpy=                  0.006091
 Thermal correction to Gibbs Free Energy=        -0.018457
 Sum of electronic and zero-point Energies=           -100.788314
 Sum of electronic and thermal Energies=              -100.785534
 Sum of electronic and thermal Enthalpies=            -100.784589
 Sum of electronic and thermal Free Energies=         -100.809138

                     E (Thermal)             CV                S
                      KCal/Mol        Cal/Mol-Kelvin    Cal/Mol-Kelvin
 Total                    3.230              7.382             51.666
 Electronic               0.000              0.000              1.377
 Translational            0.889              2.981             35.068
 Rotational               0.592              1.987             13.997
 Vibrational              1.749              2.414              1.223
 Vibration     1          0.874              1.207              0.612
 Vibration     2          0.874              1.207              0.612

 Normal termination of Gaussian 16 at Fri Aug 22 16:54:49 2025.
