 Gaussian 16, Revision C.01,
 Gaussian 16:  ES64L-G16RevC.01  3-Jul-2019

 -----------------------------------------
 # sp b3lyp/6-311g** Force nosymm scf=(qc)
 -----------------------------------------

 -------------------
 Title Card Required
 -------------------
 Symbolic Z-matrix:
 Charge =  0 Multiplicity = 2

                          Input orientation:
 ---------------------------------------------------------------------
 Center     Atomic      Atomic             Coordinates (Angstroms)
 Number     Number       Type             X           Y           Z
 ---------------------------------------------------------------------
      1          1           0        0.000000    0.000000    0.000000
      2          1           0       -4.000000    0.000000    0.000000
      3          9           0        0.950000    0.000000    0.000000
 ---------------------------------------------------------------------

 SCF Done:  E(UB3LYP) =  -100.970985813     a.u. after    6 cycles

 Alpha  occ. eigenvalues --  -24.64116  -1.17452  -0.52749  -0.39223  -0.39223
 Alpha  occ. eigenvalues --   -0.33324
 Alpha virt. eigenvalues --    0.01899   0.23661   0.36887   0.94211   0.94211
 Alpha virt. eigenvalues --    0.98122   1.24120   1.24181   1.24181   1.28897
 Alpha virt. eigenvalues --    1.36463   1.36463   1.95486   2.14034   2.34772

  Beta  occ. eigenvalues --  -24.64115  -1.17451  -0.52748  -0.39223  -0.39223
  Beta virt. eigenvalues --   -0.04845   0.02092   0.35451   0.40137   0.94211
  Beta virt. eigenvalues --    0.94211   0.98122   1.28860   1.36463   1.36463
  Beta virt. eigenvalues --    1.50554   1.51029   1.51029   1.95594   2.34491

 Mulliken charges and spin densities:
               1          2
     1  H    0.308323   0.000222
     2  H    0.000326   0.999642
     3  F   -0.308650   0.000136
 Sum of Mulliken charges =   0.00000   1.00000

 Dipole moment (field-independent basis, Debye):
    X=             -1.9556    Y=             -0.0000    Z=              0.0000  Tot=              1.9556
 Quadrupole moment (field-independent basis, Debye-Ang):
   XX=             -8.1164   YY=             -6.9165   ZZ=             -6.9165
   XY=             -0.0000   XZ=              0.0000   YZ=             -0.0000

  Exact polarizability:       5.759      -0.000       2.410       0.000       0.000       2.410
 Approx polarizability:       6.988       0.000       2.384       0.000       0.000       2.384

 ******    1 imaginary frequencies (negative Signs) ******

                      1                      2                      3
                      A                      A                      A
 Frequencies --    -30.1365               679.3265               679.3265
 Red. masses --      1.0532                 1.0397                 1.0397
 Frc consts  --      0.0006                 0.2827                 0.2827
 IR Inten    --      0.0099               177.5286               177.5286

                      4
                      A
 Frequencies --   3680.2378
 Red. masses --      1.0583
 Frc consts  --      8.4453
 IR Inten    --     91.5201

 - Thermochemistry -
 -------------------
 Temperature   298.150 Kelvin.  Pressure   1.00000 Atm.
 Atom     1 has atomic number  1 and mass   1.00783

 Molecular mass:    21.01405 amu.
 Principal axes and moments of inertia in atomic units:
                           1         2         3
     Eigenvalues --     0.00000  85.42437  85.42437
           X            1.00000  -0.00000   0.00000
           Y            0.00000   1.00000   0.00000
           Z            0.00000   0.00000   1.00000
 This molecule is a prolate symmetric top.
 Rotational symmetry number  1.
 Rotational temperature (Kelvin)      1.01393
 Rotational constant (GHZ):          21.126773
    1 imaginary frequencies ignored.
 Zero-point vibrational energy      30139.3 (Joules/Mol)
                                    7.20346 (Kcal/Mol)
 Vibrational temperatures:    977.40   977.40  5295.04
          (Kelvin)

 Zero-point correction=                           0.011479 (Hartree/Particle)
 Thermal correction to Energy=                    0.014082
 Thermal correction to Enthalpy=                  0.015027
 Thermal correction to Gibbs Free Energy=        -0.008916
 Sum of electronic and zero-point Energies=           -100.959506
 Sum of electronic and thermal Energies=              -100.956903
 Sum of electronic and thermal Enthalpies=            -100.955959
 Sum of electronic and thermal Free Energies=         -100.979901

                     E (Thermal)             CV                S
                      KCal/Mol        Cal/Mol-Kelvin    Cal/Mol-Kelvin
 Total                    8.837              6.707             50.391
 Electronic               0.000              0.000              1.377
 Translational            0.889              2.981             35.068
 Rotational               0.592              1.987             13.282
 Vibrational              7.356              1.739              0.663

 Normal termination of Gaussian 16 at Fri Aug 22 15:59:27 2025.
