 Gaussian 16, Revision C.01,
 Gaussian 16:  ES64L-G16RevC.01  3-Jul-2019

 -----------------------------------------
 # sp b3lyp/6-311g** Force nosymm scf=(qc)
 -----------------------------------------

 -------------------
 Title Card Required
 -------------------
 Symbolic Z-matrix:
 Charge =  0 Multiplicity = 2

                          Input orientation:
 ---------------------------------------------------------------------
 Center     Atomic      Atomic             Coordinates (Angstroms)
 Number     Number       Type             X           Y           Z
 ---------------------------------------------------------------------
      1          1           0        0.000000    0.000000    0.000000
      2          1           0       -1.750000    0.000000    0.000000
      3          9           0        3.100000    0.000000    0.000000
 ---------------------------------------------------------------------

 SCF Done:  E(UB3LYP) =  -100.791227847     a.u. after   28 cycles

 Alpha  occ. eigenvalues --  -24.74975  -1.20969  -0.54100  -0.45428  -0.45428
 Alpha  occ. eigenvalues --   -0.33883
 Alpha virt. eigenvalues --   -0.11492   0.25292   0.30552   0.89189   0.91709
 Alpha virt. eigenvalues --    0.91709   1.03320   1.07971   1.23410   1.23410
 Alpha virt. eigenvalues --    1.36926   1.36926   1.63728   2.15018   2.40674

  Beta  occ. eigenvalues --  -24.71900  -1.12140  -0.42347  -0.42347  -0.33805
  Beta virt. eigenvalues --   -0.25397  -0.11209   0.25639   0.30866   0.93184
  Beta virt. eigenvalues --    0.93184   0.98016   1.06988   1.08459   1.23498
  Beta virt. eigenvalues --    1.23498   1.37240   1.37240   1.64084   2.15909

 Mulliken charges and spin densities:
               1          2
     1  H    0.005496  -0.658818
     2  H    0.015874   0.683936
     3  F   -0.021370   0.974881
 Sum of Mulliken charges =   0.00000   1.00000

 Dipole moment (field-independent basis, Debye):
    X=             -0.4707    Y=             -0.0000    Z=              0.0000  Tot=              0.4707
 Quadrupole moment (field-independent basis, Debye-Ang):
   XX=             -6.6538   YY=             -7.7465   ZZ=             -7.7465
   XY=             -0.0000   XZ=              0.0000   YZ=              0.0000

  Exact polarizability:      57.235      -0.000       2.016       0.000       0.000       2.016
 Approx polarizability:      60.845      -0.000       1.964       0.000      -0.000       1.964

 ******    2 imaginary frequencies (negative Signs) ******

                      1                      2                      3
                      A                      A                      A
 Frequencies --  -1828.3551              -200.0758               826.8663
 Red. masses --      1.0079                 1.1085                 1.0125
 Frc consts  --      1.9851                 0.0261                 0.4079
 IR Inten    --     71.7303                20.7513                 0.0004

                      4
                      A
 Frequencies --    826.8663
 Red. masses --      1.0125
 Frc consts  --      0.4079
 IR Inten    --      0.0004

 - Thermochemistry -
 -------------------
 Temperature   298.150 Kelvin.  Pressure   1.00000 Atm.
 Atom     1 has atomic number  1 and mass   1.00783

 Molecular mass:    21.01405 amu.
 Principal axes and moments of inertia in atomic units:
                           1         2         3
     Eigenvalues --     0.00000 108.33496 108.33496
           X            1.00000  -0.00000   0.00000
           Y            0.00000   1.00000   0.00000
           Z            0.00000   0.00000   1.00000
 This molecule is a prolate symmetric top.
 Rotational symmetry number  1.
 Rotational temperature (Kelvin)      0.79950
 Rotational constant (GHZ):          16.658899
    2 imaginary frequencies ignored.
 Zero-point vibrational energy       9891.5 (Joules/Mol)
                                    2.36413 (Kcal/Mol)
 Vibrational temperatures:   1189.68  1189.68
          (Kelvin)

 Zero-point correction=                           0.003767 (Hartree/Particle)
 Thermal correction to Energy=                    0.006270
 Thermal correction to Enthalpy=                  0.007214
 Thermal correction to Gibbs Free Energy=        -0.016815
 Sum of electronic and zero-point Energies=           -100.787460
 Sum of electronic and thermal Energies=              -100.784958
 Sum of electronic and thermal Enthalpies=            -100.784014
 Sum of electronic and thermal Free Energies=         -100.808042

                     E (Thermal)             CV                S
                      KCal/Mol        Cal/Mol-Kelvin    Cal/Mol-Kelvin
 Total                    3.934              6.183             50.573
 Electronic               0.000              0.000              1.377
 Translational            0.889              2.981             35.068
 Rotational               0.592              1.987             13.754
 Vibrational              2.453              1.215              0.373

 Normal termination of Gaussian 16 at Fri Aug 22 19:54:07 2025.
