 Gaussian 16, Revision C.01,
 Gaussian 16:  ES64L-G16RevC.01  3-Jul-2019

 -----------------------------------------
 # sp b3lyp/6-311g** Force nosymm scf=(qc)
 -----------------------------------------

 -------------------
 Title Card Required
 -------------------
 Symbolic Z-matrix:
 Charge =  0 Multiplicity = 2

                          Input orientation:
 ---------------------------------------------------------------------
 Center     Atomic      Atomic             Coordinates (Angstroms)
 Number     Number       Type             X           Y           Z
 ---------------------------------------------------------------------
      1          1           0        0.000000    0.000000    0.000000
      2          1           0       -1.500000    0.000000    0.000000
      3          9           0        0.650000    0.000000    0.000000
 ---------------------------------------------------------------------

 SCF Done:  E(UB3LYP) =  -100.794258344     a.u. after    6 cycles

 Alpha  occ. eigenvalues --  -24.63035  -1.31644  -0.60634  -0.42491  -0.42491
 Alpha  occ. eigenvalues --   -0.35812
 Alpha virt. eigenvalues --    0.13711   0.21787   0.56233   0.92454   0.92454
 Alpha virt. eigenvalues --    0.94025   1.17828   1.17828   1.37636   1.50917
 Alpha virt. eigenvalues --    1.50917   1.60991   1.98097   2.19699   3.32678

  Beta  occ. eigenvalues --  -24.62922  -1.31306  -0.60016  -0.42408  -0.42408
  Beta virt. eigenvalues --   -0.11987   0.14899   0.30145   0.60613   0.92614
  Beta virt. eigenvalues --    0.92614   0.94284   1.31873   1.31873   1.42159
  Beta virt. eigenvalues --    1.54931   1.54931   1.70960   1.98135   2.42701

 Mulliken charges and spin densities:
               1          2
     1  H    0.238371   0.014901
     2  H    0.011616   0.971033
     3  F   -0.249987   0.014066
 Sum of Mulliken charges =   0.00000   1.00000

 Dipole moment (field-independent basis, Debye):
    X=             -1.5398    Y=             -0.0000    Z=              0.0000  Tot=              1.5398
 Quadrupole moment (field-independent basis, Debye-Ang):
   XX=             -6.9690   YY=             -6.5233   ZZ=             -6.5233
   XY=             -0.0000   XZ=              0.0000   YZ=              0.0000

  Exact polarizability:       6.778      -0.000       2.528       0.000      -0.000       2.528
 Approx polarizability:       6.532       0.000       2.541      -0.000      -0.000       2.541

 ******    2 imaginary frequencies (negative Signs) ******

                      1                      2                      3
                      A                      A                      A
 Frequencies --  -4482.6846             -4482.6846               867.5145
 Red. masses --      1.0304                 1.0304                 1.0535
 Frc consts  --     12.1989                12.1989                 0.4671
 IR Inten    --    162.2926               162.2926                 4.6122

                      4
                      A
 Frequencies --  10864.2092
 Red. masses --      1.0581
 Frc consts  --     73.5796
 IR Inten    --    128.3580

 - Thermochemistry -
 -------------------
 Temperature   298.150 Kelvin.  Pressure   1.00000 Atm.
 Atom     1 has atomic number  1 and mass   1.00783

 Molecular mass:    21.01405 amu.
 Principal axes and moments of inertia in atomic units:
                           1         2         3
     Eigenvalues --     0.00000  16.80376  16.80376
           X            1.00000  -0.00000   0.00000
           Y            0.00000   1.00000   0.00000
           Z            0.00000   0.00000   1.00000
 This molecule is a prolate symmetric top.
 Rotational symmetry number  1.
 Rotational temperature (Kelvin)      5.15444
 Rotational constant (GHZ):         107.401035
    2 imaginary frequencies ignored.
 Zero-point vibrational energy      70171.3 (Joules/Mol)
                                   16.77134 (Kcal/Mol)
 Vibrational temperatures:   1248.16 15631.17
          (Kelvin)

 Zero-point correction=                           0.026727 (Hartree/Particle)
 Thermal correction to Energy=                    0.029148
 Thermal correction to Enthalpy=                  0.030092
 Thermal correction to Gibbs Free Energy=         0.007925
 Sum of electronic and zero-point Energies=           -100.767532
 Sum of electronic and thermal Energies=              -100.765110
 Sum of electronic and thermal Enthalpies=            -100.764166
 Sum of electronic and thermal Free Energies=         -100.786333

                     E (Thermal)             CV                S
                      KCal/Mol        Cal/Mol-Kelvin    Cal/Mol-Kelvin
 Total                   18.291              5.514             46.655
 Electronic               0.000              0.000              1.377
 Translational            0.889              2.981             35.068
 Rotational               0.592              1.987             10.051
 Vibrational             16.810              0.546              0.159

 Normal termination of Gaussian 16 at Fri Aug 22 15:43:44 2025.
