 Gaussian 16, Revision C.01,
 Gaussian 16:  ES64L-G16RevC.01  3-Jul-2019

 -----------------------------------------
 # sp b3lyp/6-311g** Force nosymm scf=(qc)
 -----------------------------------------

 -------------------
 Title Card Required
 -------------------
 Symbolic Z-matrix:
 Charge =  0 Multiplicity = 2

                          Input orientation:
 ---------------------------------------------------------------------
 Center     Atomic      Atomic             Coordinates (Angstroms)
 Number     Number       Type             X           Y           Z
 ---------------------------------------------------------------------
      1          1           0        0.000000    0.000000    0.000000
      2          1           0       -3.400000    0.000000    0.000000
      3          9           0        3.650000    0.000000    0.000000
 ---------------------------------------------------------------------

 SCF Done:  E(UB3LYP) =  -100.759007499     a.u. after   32 cycles

 Alpha  occ. eigenvalues --  -24.75603  -1.21550  -0.54726  -0.45949  -0.45949
 Alpha  occ. eigenvalues --   -0.32319
 Alpha virt. eigenvalues --   -0.07025   0.24431   0.37125   0.87182   0.91346
 Alpha virt. eigenvalues --    0.91346   1.01488   1.25188   1.25188   1.25402
 Alpha virt. eigenvalues --    1.45083   1.45291   1.45291   2.15195   2.40895

  Beta  occ. eigenvalues --  -24.72475  -1.12559  -0.42814  -0.42814  -0.32677
  Beta virt. eigenvalues --   -0.25594  -0.06631   0.24218   0.37792   0.92839
  Beta virt. eigenvalues --    0.92839   0.96413   1.05548   1.24784   1.24784
  Beta virt. eigenvalues --    1.24978   1.45689   1.45924   1.45924   2.15323

 Mulliken charges and spin densities:
               1          2
     1  H    0.007323  -0.988993
     2  H    0.000174   0.997270
     3  F   -0.007497   0.991722
 Sum of Mulliken charges =  -0.00000   1.00000

 Dipole moment (field-independent basis, Debye):
    X=             -0.1438    Y=             -0.0000    Z=              0.0000  Tot=              0.1438
 Quadrupole moment (field-independent basis, Debye-Ang):
   XX=             -7.1873   YY=             -7.6246   ZZ=             -7.6246
   XY=              0.0000   XZ=             -0.0000   YZ=              0.0000

  Exact polarizability:      19.869      -0.000       2.003       0.000      -0.000       2.003
 Approx polarizability:      14.973       0.000       1.934      -0.000      -0.000       1.934

 ******    2 imaginary frequencies (negative Signs) ******

                      1                      2                      3
                      A                      A                      A
 Frequencies --   -238.7597               -99.6765                93.5403
 Red. masses --      1.0168                 1.0978                 1.0171
 Frc consts  --      0.0342                 0.0064                 0.0052
 IR Inten    --      5.0746                 1.4824                 0.0747

                      4
                      A
 Frequencies --     93.5420
 Red. masses --      1.0171
 Frc consts  --      0.0052
 IR Inten    --      0.0747

 - Thermochemistry -
 -------------------
 Temperature   298.150 Kelvin.  Pressure   1.00000 Atm.
 Atom     1 has atomic number  1 and mass   1.00783

 Molecular mass:    21.01405 amu.
 Principal axes and moments of inertia in atomic units:
                           1         2         3
     Eigenvalues --     0.00000 207.06575 207.06575
           X            1.00000  -0.00000   0.00000
           Y            0.00000   1.00000   0.00000
           Z            0.00000   0.00000   1.00000
 This molecule is a prolate symmetric top.
 Rotational symmetry number  1.
 Rotational temperature (Kelvin)      0.41829
 Rotational constant (GHZ):           8.715788
    2 imaginary frequencies ignored.
 Zero-point vibrational energy       1119.0 (Joules/Mol)
                                    0.26745 (Kcal/Mol)
 Warning -- explicit consideration of   2 degrees of freedom as
           vibrations may cause significant error
 Vibrational temperatures:    134.58   134.59
          (Kelvin)

 Zero-point correction=                           0.000426 (Hartree/Particle)
 Thermal correction to Energy=                    0.004281
 Thermal correction to Enthalpy=                  0.005225
 Thermal correction to Gibbs Free Energy=        -0.022644
 Sum of electronic and zero-point Energies=           -100.758581
 Sum of electronic and thermal Energies=              -100.754727
 Sum of electronic and thermal Enthalpies=            -100.753783
 Sum of electronic and thermal Free Energies=         -100.781652

                     E (Thermal)             CV                S
                      KCal/Mol        Cal/Mol-Kelvin    Cal/Mol-Kelvin
 Total                    2.686              8.876             58.656
 Electronic               0.000              0.000              1.377
 Translational            0.889              2.981             35.068
 Rotational               0.592              1.987             15.041
 Vibrational              1.205              3.908              7.169
 Vibration     1          0.603              1.954              3.585
 Vibration     2          0.603              1.954              3.585

 Normal termination of Gaussian 16 at Fri Aug 22 23:37:56 2025.
