 Gaussian 16, Revision C.01,
 Gaussian 16:  ES64L-G16RevC.01  3-Jul-2019

 -----------------------------------------
 # sp b3lyp/6-311g** Force nosymm scf=(qc)
 -----------------------------------------

 -------------------
 Title Card Required
 -------------------
 Symbolic Z-matrix:
 Charge =  0 Multiplicity = 2

                          Input orientation:
 ---------------------------------------------------------------------
 Center     Atomic      Atomic             Coordinates (Angstroms)
 Number     Number       Type             X           Y           Z
 ---------------------------------------------------------------------
      1          1           0        0.000000    0.000000    0.000000
      2          1           0       -1.550000    0.000000    0.000000
      3          9           0        0.650000    0.000000    0.000000
 ---------------------------------------------------------------------

 SCF Done:  E(UB3LYP) =  -100.795474225     a.u. after    6 cycles

 Alpha  occ. eigenvalues --  -24.62983  -1.31553  -0.60481  -0.42436  -0.42436
 Alpha  occ. eigenvalues --   -0.35798
 Alpha virt. eigenvalues --    0.13394   0.22032   0.55283   0.92579   0.92579
 Alpha virt. eigenvalues --    0.94277   1.18662   1.18662   1.35326   1.49984
 Alpha virt. eigenvalues --    1.49984   1.60270   1.98879   2.18479   3.28197

  Beta  occ. eigenvalues --  -24.62884  -1.31257  -0.59948  -0.42364  -0.42364
  Beta virt. eigenvalues --   -0.11812   0.14625   0.30623   0.59378   0.92698
  Beta virt. eigenvalues --    0.92698   0.94506   1.33425   1.33425   1.40662
  Beta virt. eigenvalues --    1.53600   1.53600   1.69711   1.99099   2.41749

 Mulliken charges and spin densities:
               1          2
     1  H    0.237169   0.014958
     2  H    0.012174   0.972736
     3  F   -0.249343   0.012306
 Sum of Mulliken charges =   0.00000   1.00000

 Dipole moment (field-independent basis, Debye):
    X=             -1.5543    Y=              0.0000    Z=              0.0000  Tot=              1.5543
 Quadrupole moment (field-independent basis, Debye-Ang):
   XX=             -6.9474   YY=             -6.5297   ZZ=             -6.5297
   XY=             -0.0000   XZ=              0.0000   YZ=              0.0000

  Exact polarizability:       6.721      -0.000       2.524       0.000       0.000       2.524
 Approx polarizability:       6.481      -0.000       2.533      -0.000       0.000       2.533

 ******    2 imaginary frequencies (negative Signs) ******

                      1                      2                      3
                      A                      A                      A
 Frequencies --  -4486.6121             -4486.6121               795.0602
 Red. masses --      1.0309                 1.0309                 1.0535
 Frc consts  --     12.2266                12.2266                 0.3923
 IR Inten    --    165.2785               165.2785                 3.0302

                      4
                      A
 Frequencies --  10865.6310
 Red. masses --      1.0581
 Frc consts  --     73.6018
 IR Inten    --    130.6982

 - Thermochemistry -
 -------------------
 Temperature   298.150 Kelvin.  Pressure   1.00000 Atm.
 Atom     1 has atomic number  1 and mass   1.00783

 Molecular mass:    21.01405 amu.
 Principal axes and moments of inertia in atomic units:
                           1         2         3
     Eigenvalues --     0.00000  17.53778  17.53778
           X            1.00000  -0.00000   0.00000
           Y            0.00000   1.00000   0.00000
           Z            0.00000   0.00000   1.00000
 This molecule is a prolate symmetric top.
 Rotational symmetry number  1.
 Rotational temperature (Kelvin)      4.93870
 Rotational constant (GHZ):         102.905893
    2 imaginary frequencies ignored.
 Zero-point vibrational energy      69746.4 (Joules/Mol)
                                   16.66979 (Kcal/Mol)
 Vibrational temperatures:   1143.91 15633.22
          (Kelvin)

 Zero-point correction=                           0.026565 (Hartree/Particle)
 Thermal correction to Energy=                    0.029005
 Thermal correction to Enthalpy=                  0.029949
 Thermal correction to Gibbs Free Energy=         0.007717
 Sum of electronic and zero-point Energies=           -100.768909
 Sum of electronic and thermal Energies=              -100.766469
 Sum of electronic and thermal Enthalpies=            -100.765525
 Sum of electronic and thermal Free Energies=         -100.787757

                     E (Thermal)             CV                S
                      KCal/Mol        Cal/Mol-Kelvin    Cal/Mol-Kelvin
 Total                   18.201              5.627             46.793
 Electronic               0.000              0.000              1.377
 Translational            0.889              2.981             35.068
 Rotational               0.592              1.987             10.136
 Vibrational             16.720              0.659              0.211

 Normal termination of Gaussian 16 at Fri Aug 22 15:43:46 2025.
