 Gaussian 16, Revision C.01,
 Gaussian 16:  ES64L-G16RevC.01  3-Jul-2019

 -----------------------------------------
 # sp b3lyp/6-311g** Force nosymm scf=(qc)
 -----------------------------------------

 -------------------
 Title Card Required
 -------------------
 Symbolic Z-matrix:
 Charge =  0 Multiplicity = 2

                          Input orientation:
 ---------------------------------------------------------------------
 Center     Atomic      Atomic             Coordinates (Angstroms)
 Number     Number       Type             X           Y           Z
 ---------------------------------------------------------------------
      1          1           0        0.000000    0.000000    0.000000
      2          1           0       -3.950000    0.000000    0.000000
      3          9           0        0.800000    0.000000    0.000000
 ---------------------------------------------------------------------

 SCF Done:  E(UB3LYP) =  -100.950277300     a.u. after    6 cycles

 Alpha  occ. eigenvalues --  -24.63682  -1.23048  -0.56194  -0.40657  -0.40657
 Alpha  occ. eigenvalues --   -0.33242
 Alpha virt. eigenvalues --    0.05079   0.24148   0.45975   0.94197   0.94197
 Alpha virt. eigenvalues --    0.96992   1.24182   1.24262   1.24262   1.29166
 Alpha virt. eigenvalues --    1.39807   1.39807   2.02046   2.14366   2.53052

  Beta  occ. eigenvalues --  -24.63682  -1.23048  -0.56194  -0.40657  -0.40657
  Beta virt. eigenvalues --   -0.04828   0.05232   0.38986   0.46048   0.94197
  Beta virt. eigenvalues --    0.94197   0.96990   1.29066   1.39807   1.39807
  Beta virt. eigenvalues --    1.50699   1.50846   1.50846   2.02242   2.44776

 Mulliken charges and spin densities:
               1          2
     1  H    0.275136   0.000281
     2  H    0.000329   0.999631
     3  F   -0.275465   0.000088
 Sum of Mulliken charges =   0.00000   1.00000

 Dipole moment (field-independent basis, Debye):
    X=             -1.7346    Y=             -0.0000    Z=             -0.0000  Tot=              1.7346
 Quadrupole moment (field-independent basis, Debye-Ang):
   XX=             -7.6392   YY=             -6.7693   ZZ=             -6.7693
   XY=             -0.0000   XZ=             -0.0000   YZ=             -0.0000

  Exact polarizability:       4.401      -0.000       2.439      -0.000       0.000       2.439
 Approx polarizability:       5.000       0.000       2.419       0.000       0.000       2.419

 ******    3 imaginary frequencies (negative Signs) ******

                      1                      2                      3
                      A                      A                      A
 Frequencies --  -1986.1426             -1986.1426               -28.4027
 Red. masses --      1.0418                 1.0418                 1.0532
 Frc consts  --      2.4213                 2.4213                 0.0005
 IR Inten    --    198.3541               198.3541                 0.0087

                      4
                      A
 Frequencies --   6349.9304
 Red. masses --      1.0583
 Frc consts  --     25.1421
 IR Inten    --    103.2463

 - Thermochemistry -
 -------------------
 Temperature   298.150 Kelvin.  Pressure   1.00000 Atm.
 Atom     1 has atomic number  1 and mass   1.00783

 Molecular mass:    21.01405 amu.
 Principal axes and moments of inertia in atomic units:
                           1         2         3
     Eigenvalues --     0.00000  78.18927  78.18927
           X            1.00000  -0.00000   0.00000
           Y            0.00000   1.00000   0.00000
           Z            0.00000   0.00000   1.00000
 This molecule is a prolate symmetric top.
 Rotational symmetry number  1.
 Rotational temperature (Kelvin)      1.10775
 Rotational constant (GHZ):          23.081699
    3 imaginary frequencies ignored.
 Zero-point vibrational energy      37981.0 (Joules/Mol)
                                    9.07768 (Kcal/Mol)
 Vibrational temperatures:   9136.13
          (Kelvin)

 Zero-point correction=                           0.014466 (Hartree/Particle)
 Thermal correction to Energy=                    0.016827
 Thermal correction to Enthalpy=                  0.017771
 Thermal correction to Gibbs Free Energy=        -0.005773
 Sum of electronic and zero-point Energies=           -100.935811
 Sum of electronic and thermal Energies=              -100.933451
 Sum of electronic and thermal Enthalpies=            -100.932506
 Sum of electronic and thermal Free Energies=         -100.956050

                     E (Thermal)             CV                S
                      KCal/Mol        Cal/Mol-Kelvin    Cal/Mol-Kelvin
 Total                   10.559              4.968             49.552
 Electronic               0.000              0.000              1.377
 Translational            0.889              2.981             35.068
 Rotational               0.592              1.987             13.106
 Vibrational              9.078              0.000              0.000

 Normal termination of Gaussian 16 at Fri Aug 22 15:52:21 2025.
