 Gaussian 16, Revision C.01,
 Gaussian 16:  ES64L-G16RevC.01  3-Jul-2019

 -----------------------------------------
 # sp b3lyp/6-311g** Force nosymm scf=(qc)
 -----------------------------------------

 -------------------
 Title Card Required
 -------------------
 Symbolic Z-matrix:
 Charge =  0 Multiplicity = 2

                          Input orientation:
 ---------------------------------------------------------------------
 Center     Atomic      Atomic             Coordinates (Angstroms)
 Number     Number       Type             X           Y           Z
 ---------------------------------------------------------------------
      1          1           0        0.000000    0.000000    0.000000
      2          1           0       -1.100000    0.000000    0.000000
      3          9           0        0.850000    0.000000    0.000000
 ---------------------------------------------------------------------

 SCF Done:  E(UB3LYP) =  -100.949260651     a.u. after    6 cycles

 Alpha  occ. eigenvalues --  -24.64323  -1.22067  -0.59163  -0.40693  -0.40693
 Alpha  occ. eigenvalues --   -0.35943
 Alpha virt. eigenvalues --    0.14471   0.19180   0.51055   0.91371   0.91371
 Alpha virt. eigenvalues --    0.96176   1.09058   1.09058   1.42932   1.57816
 Alpha virt. eigenvalues --    1.57816   1.66846   2.08742   2.31437   3.15570

  Beta  occ. eigenvalues --  -24.63809  -1.20721  -0.55829  -0.40250  -0.40250
  Beta virt. eigenvalues --   -0.15895   0.15830   0.23892   0.56565   0.92601
  Beta virt. eigenvalues --    0.92601   0.97207   1.16374   1.16374   1.45142
  Beta virt. eigenvalues --    1.63490   1.63490   1.76646   2.10013   2.46901

 Mulliken charges and spin densities:
               1          2
     1  H    0.265224  -0.002205
     2  H    0.008626   0.888050
     3  F   -0.273850   0.114155
 Sum of Mulliken charges =   0.00000   1.00000

 Dipole moment (field-independent basis, Debye):
    X=             -1.7642    Y=              0.0000    Z=              0.0000  Tot=              1.7642
 Quadrupole moment (field-independent basis, Debye-Ang):
   XX=             -7.5016   YY=             -6.6202   ZZ=             -6.6202
   XY=              0.0000   XZ=             -0.0000   YZ=             -0.0000

  Exact polarizability:      10.790       0.000       2.584      -0.000       0.000       2.584
 Approx polarizability:      11.352      -0.000       2.616      -0.000       0.000       2.616

 ******    2 imaginary frequencies (negative Signs) ******

                      1                      2                      3
                      A                      A                      A
 Frequencies --  -1592.3375             -1592.3375              1409.2355
 Red. masses --      1.0214                 1.0214                 1.0531
 Frc consts  --      1.5258                 1.5258                 1.2322
 IR Inten    --     94.9508                94.9508                39.1348

                      4
                      A
 Frequencies --   5059.6018
 Red. masses --      1.0585
 Frc consts  --     15.9649
 IR Inten    --     94.3397

 - Thermochemistry -
 -------------------
 Temperature   298.150 Kelvin.  Pressure   1.00000 Atm.
 Atom     1 has atomic number  1 and mass   1.00783

 Molecular mass:    21.01405 amu.
 Principal axes and moments of inertia in atomic units:
                           1         2         3
     Eigenvalues --     0.00000  14.93228  14.93228
           X            1.00000  -0.00000   0.00000
           Y            0.00000   1.00000   0.00000
           Z            0.00000   0.00000   1.00000
 This molecule is a prolate symmetric top.
 Rotational symmetry number  1.
 Rotational temperature (Kelvin)      5.80045
 Rotational constant (GHZ):         120.861768
    2 imaginary frequencies ignored.
 Zero-point vibrational energy      38692.2 (Joules/Mol)
                                    9.24767 (Kcal/Mol)
 Vibrational temperatures:   2027.58  7279.64
          (Kelvin)

 Zero-point correction=                           0.014737 (Hartree/Particle)
 Thermal correction to Energy=                    0.017105
 Thermal correction to Enthalpy=                  0.018049
 Thermal correction to Gibbs Free Energy=        -0.003940
 Sum of electronic and zero-point Energies=           -100.934524
 Sum of electronic and thermal Energies=              -100.932156
 Sum of electronic and thermal Enthalpies=            -100.931212
 Sum of electronic and thermal Free Energies=         -100.953200

                     E (Thermal)             CV                S
                      KCal/Mol        Cal/Mol-Kelvin    Cal/Mol-Kelvin
 Total                   10.733              5.071             46.279
 Electronic               0.000              0.000              1.377
 Translational            0.889              2.981             35.068
 Rotational               0.592              1.987              9.816
 Vibrational              9.252              0.103              0.017

 Normal termination of Gaussian 16 at Fri Aug 22 15:52:50 2025.
