 Gaussian 16, Revision C.01,
 Gaussian 16:  ES64L-G16RevC.01  3-Jul-2019

 -----------------------------------------
 # sp b3lyp/6-311g** Force nosymm scf=(qc)
 -----------------------------------------

 -------------------
 Title Card Required
 -------------------
 Symbolic Z-matrix:
 Charge =  0 Multiplicity = 2

                          Input orientation:
 ---------------------------------------------------------------------
 Center     Atomic      Atomic             Coordinates (Angstroms)
 Number     Number       Type             X           Y           Z
 ---------------------------------------------------------------------
      1          1           0        0.000000    0.000000    0.000000
      2          1           0       -2.400000    0.000000    0.000000
      3          9           0        2.850000    0.000000    0.000000
 ---------------------------------------------------------------------

 SCF Done:  E(UB3LYP) =  -100.767235533     a.u. after   21 cycles

 Alpha  occ. eigenvalues --  -24.73574  -1.19665  -0.52688  -0.44241  -0.44241
 Alpha  occ. eigenvalues --   -0.33378
 Alpha virt. eigenvalues --   -0.11127   0.25302   0.33195   0.90041   0.92587
 Alpha virt. eigenvalues --    0.92587   1.04905   1.24322   1.24322   1.26227
 Alpha virt. eigenvalues --    1.38782   1.38782   1.41646   2.14728   2.35455

  Beta  occ. eigenvalues --  -24.70585  -1.11110  -0.41252  -0.41252  -0.34171
  Beta virt. eigenvalues --   -0.24503  -0.09744   0.25770   0.34385   0.94035
  Beta virt. eigenvalues --    0.94035   0.98576   1.08743   1.23376   1.23376
  Beta virt. eigenvalues --    1.25377   1.41036   1.41036   1.43596   2.15664

 Mulliken charges and spin densities:
               1          2
     1  H    0.038809  -0.907214
     2  H    0.008839   0.960590
     3  F   -0.047647   0.946624
 Sum of Mulliken charges =  -0.00000   1.00000

 Dipole moment (field-independent basis, Debye):
    X=             -0.7972    Y=             -0.0000    Z=             -0.0000  Tot=              0.7972
 Quadrupole moment (field-independent basis, Debye-Ang):
   XX=             -8.1224   YY=             -7.6526   ZZ=             -7.6526
   XY=             -0.0000   XZ=             -0.0000   YZ=              0.0000

  Exact polarizability:      47.683      -0.000       2.011      -0.000      -0.000       2.011
 Approx polarizability:      44.751      -0.000       1.920      -0.000       0.000       1.920

 ******    2 imaginary frequencies (negative Signs) ******

                      1                      2                      3
                      A                      A                      A
 Frequencies --   -815.0830              -274.4256               310.1137
 Red. masses --      1.0101                 1.1057                 1.0160
 Frc consts  --      0.3954                 0.0491                 0.0576
 IR Inten    --     28.7080                26.3128                 1.1251

                      4
                      A
 Frequencies --    310.1137
 Red. masses --      1.0160
 Frc consts  --      0.0576
 IR Inten    --      1.1251

 - Thermochemistry -
 -------------------
 Temperature   298.150 Kelvin.  Pressure   1.00000 Atm.
 Atom     1 has atomic number  1 and mass   1.00783

 Molecular mass:    21.01405 amu.
 Principal axes and moments of inertia in atomic units:
                           1         2         3
     Eigenvalues --     0.00000 117.10588 117.10588
           X            1.00000  -0.00000   0.00000
           Y            0.00000   1.00000   0.00000
           Z            0.00000   0.00000   1.00000
 This molecule is a prolate symmetric top.
 Rotational symmetry number  1.
 Rotational temperature (Kelvin)      0.73962
 Rotational constant (GHZ):          15.411192
    2 imaginary frequencies ignored.
 Zero-point vibrational energy       3709.8 (Joules/Mol)
                                    0.88666 (Kcal/Mol)
 Warning -- explicit consideration of   2 degrees of freedom as
           vibrations may cause significant error
 Vibrational temperatures:    446.18   446.18
          (Kelvin)

 Zero-point correction=                           0.001413 (Hartree/Particle)
 Thermal correction to Energy=                    0.004589
 Thermal correction to Enthalpy=                  0.005533
 Thermal correction to Gibbs Free Energy=        -0.019686
 Sum of electronic and zero-point Energies=           -100.765823
 Sum of electronic and thermal Energies=              -100.762647
 Sum of electronic and thermal Enthalpies=            -100.761703
 Sum of electronic and thermal Free Energies=         -100.786922

                     E (Thermal)             CV                S
                      KCal/Mol        Cal/Mol-Kelvin    Cal/Mol-Kelvin
 Total                    2.879              8.277             53.078
 Electronic               0.000              0.000              1.377
 Translational            0.889              2.981             35.068
 Rotational               0.592              1.987             13.909
 Vibrational              1.398              3.309              2.723
 Vibration     1          0.699              1.654              1.362
 Vibration     2          0.699              1.654              1.362

 Normal termination of Gaussian 16 at Fri Aug 22 18:53:46 2025.
