 Gaussian 16, Revision C.01,
 Gaussian 16:  ES64L-G16RevC.01  3-Jul-2019

 -----------------------------------------
 # sp b3lyp/6-311g** Force nosymm scf=(qc)
 -----------------------------------------

 -------------------
 Title Card Required
 -------------------
 Symbolic Z-matrix:
 Charge =  0 Multiplicity = 2

                          Input orientation:
 ---------------------------------------------------------------------
 Center     Atomic      Atomic             Coordinates (Angstroms)
 Number     Number       Type             X           Y           Z
 ---------------------------------------------------------------------
      1          1           0        0.000000    0.000000    0.000000
      2          1           0       -1.900000    0.000000    0.000000
      3          9           0        0.600000    0.000000    0.000000
 ---------------------------------------------------------------------

 SCF Done:  E(UB3LYP) =  -100.686767820     a.u. after    7 cycles

 Alpha  occ. eigenvalues --  -24.62683  -1.34720  -0.61161  -0.42934  -0.42934
 Alpha  occ. eigenvalues --   -0.35243
 Alpha virt. eigenvalues --    0.11594   0.23839   0.54622   0.92138   0.92138
 Alpha virt. eigenvalues --    0.93635   1.22018   1.22018   1.23224   1.50517
 Alpha virt. eigenvalues --    1.50517   1.58467   1.99194   2.18624   3.37637

  Beta  occ. eigenvalues --  -24.62647  -1.34611  -0.61013  -0.42913  -0.42913
  Beta virt. eigenvalues --   -0.10250   0.12961   0.34374   0.56518   0.92138
  Beta virt. eigenvalues --    0.92138   0.93745   1.32045   1.41572   1.41572
  Beta virt. eigenvalues --    1.51047   1.51047   1.66447   2.02328   2.43748

 Mulliken charges and spin densities:
               1          2
     1  H    0.218512   0.011717
     2  H    0.010205   0.984464
     3  F   -0.228717   0.003819
 Sum of Mulliken charges =   0.00000   1.00000

 Dipole moment (field-independent basis, Debye):
    X=             -1.5070    Y=             -0.0000    Z=              0.0000  Tot=              1.5070
 Quadrupole moment (field-independent basis, Debye-Ang):
   XX=             -6.7440   YY=             -6.5139   ZZ=             -6.5139
   XY=             -0.0000   XZ=              0.0000   YZ=              0.0000

  Exact polarizability:       5.885       0.000       2.487      -0.000      -0.000       2.487
 Approx polarizability:       5.690      -0.000       2.483      -0.000      -0.000       2.483

 ******    2 imaginary frequencies (negative Signs) ******

                      1                      2                      3
                      A                      A                      A
 Frequencies --  -5788.9093             -5788.9093               450.5360
 Red. masses --      1.0354                 1.0354                 1.0533
 Frc consts  --     20.4440                20.4440                 0.1260
 IR Inten    --    198.1984               198.1984                 0.0281

                      4
                      A
 Frequencies --  13070.0249
 Red. masses --      1.0583
 Frc consts  --    106.5114
 IR Inten    --    118.4424

 - Thermochemistry -
 -------------------
 Temperature   298.150 Kelvin.  Pressure   1.00000 Atm.
 Atom     1 has atomic number  1 and mass   1.00783

 Molecular mass:    21.01405 amu.
 Principal axes and moments of inertia in atomic units:
                           1         2         3
     Eigenvalues --     0.00000  22.13069  22.13069
           X            1.00000  -0.00000   0.00000
           Y            0.00000   1.00000   0.00000
           Z            0.00000   0.00000   1.00000
 This molecule is a prolate symmetric top.
 Rotational symmetry number  1.
 Rotational temperature (Kelvin)      3.91375
 Rotational constant (GHZ):          81.549237
    2 imaginary frequencies ignored.
 Zero-point vibrational energy      80870.9 (Joules/Mol)
                                   19.32861 (Kcal/Mol)
 Warning -- explicit consideration of   1 degrees of freedom as
           vibrations may cause significant error
 Vibrational temperatures:    648.22 18804.85
          (Kelvin)

 Zero-point correction=                           0.030802 (Hartree/Particle)
 Thermal correction to Energy=                    0.033426
 Thermal correction to Enthalpy=                  0.034370
 Thermal correction to Gibbs Free Energy=         0.011641
 Sum of electronic and zero-point Energies=           -100.655966
 Sum of electronic and thermal Energies=              -100.653342
 Sum of electronic and thermal Enthalpies=            -100.652398
 Sum of electronic and thermal Free Energies=         -100.675127

                     E (Thermal)             CV                S
                      KCal/Mol        Cal/Mol-Kelvin    Cal/Mol-Kelvin
 Total                   20.975              6.328             47.838
 Electronic               0.000              0.000              1.377
 Translational            0.889              2.981             35.068
 Rotational               0.592              1.987             10.598
 Vibrational             19.494              1.360              0.794
 Vibration     1          0.809              1.360              0.794

 Normal termination of Gaussian 16 at Fri Aug 22 15:41:38 2025.
