 Gaussian 16, Revision C.01,
 Gaussian 16:  ES64L-G16RevC.01  3-Jul-2019

 -----------------------------------------
 # sp b3lyp/6-311g** Force nosymm scf=(qc)
 -----------------------------------------

 -------------------
 Title Card Required
 -------------------
 Symbolic Z-matrix:
 Charge =  0 Multiplicity = 2

                          Input orientation:
 ---------------------------------------------------------------------
 Center     Atomic      Atomic             Coordinates (Angstroms)
 Number     Number       Type             X           Y           Z
 ---------------------------------------------------------------------
      1          1           0        0.000000    0.000000    0.000000
      2          1           0       -3.300000    0.000000    0.000000
      3          9           0        2.100000    0.000000    0.000000
 ---------------------------------------------------------------------

 SCF Done:  E(UB3LYP) =  -100.780757520     a.u. after   19 cycles

 Alpha  occ. eigenvalues --  -24.66390  -1.08188  -0.37850  -0.37850  -0.37380
 Alpha  occ. eigenvalues --   -0.33320
 Alpha virt. eigenvalues --   -0.21308   0.20534   0.27877   0.90596   0.95680
 Alpha virt. eigenvalues --    0.95680   1.08275   1.21607   1.21607   1.24088
 Alpha virt. eigenvalues --    1.24088   1.24264   1.47590   2.11744   2.14831

  Beta  occ. eigenvalues --  -24.68895  -1.15225  -0.47916  -0.40326  -0.40326
  Beta virt. eigenvalues --   -0.13398  -0.04833   0.30397   0.39838   0.88592
  Beta virt. eigenvalues --    0.94795   0.94795   1.06045   1.36519   1.36519
  Beta virt. eigenvalues --    1.47420   1.47420   1.47679   1.56073   2.31222

 Mulliken charges and spin densities:
               1          2
     1  H    0.167622   0.790292
     2  H    0.002136   0.997921
     3  F   -0.169757  -0.788213
 Sum of Mulliken charges =   0.00000   1.00000

 Dipole moment (field-independent basis, Debye):
    X=             -1.8081    Y=             -0.0000    Z=              0.0000  Tot=              1.8081
 Quadrupole moment (field-independent basis, Debye-Ang):
   XX=             -9.9743   YY=             -7.4980   ZZ=             -7.4980
   XY=             -0.0000   XZ=              0.0000   YZ=             -0.0000

  Exact polarizability:      28.786      -0.000       2.050       0.000      -0.000       2.050
 Approx polarizability:      40.500      -0.000       1.937       0.000       0.000       1.937

 ******    1 imaginary frequencies (negative Signs) ******

                      1                      2                      3
                      A                      A                      A
 Frequencies --   -971.2383                88.3112               409.4932
 Red. masses --      1.0597                 1.0519                 1.0242
 Frc consts  --      0.5890                 0.0048                 0.1012
 IR Inten    --    100.5348                 0.5929                26.1228

                      4
                      A
 Frequencies --    409.4932
 Red. masses --      1.0242
 Frc consts  --      0.1012
 IR Inten    --     26.1228

 - Thermochemistry -
 -------------------
 Temperature   298.150 Kelvin.  Pressure   1.00000 Atm.
 Atom     1 has atomic number  1 and mass   1.00783

 Molecular mass:    21.01405 amu.
 Principal axes and moments of inertia in atomic units:
                           1         2         3
     Eigenvalues --     0.00000 111.10958 111.10958
           X            1.00000  -0.00000   0.00000
           Y            0.00000   1.00000   0.00000
           Z            0.00000   0.00000   1.00000
 This molecule is a prolate symmetric top.
 Rotational symmetry number  1.
 Rotational temperature (Kelvin)      0.77954
 Rotational constant (GHZ):          16.242895
    1 imaginary frequencies ignored.
 Zero-point vibrational energy       5426.8 (Joules/Mol)
                                    1.29705 (Kcal/Mol)
 Warning -- explicit consideration of   3 degrees of freedom as
           vibrations may cause significant error
 Vibrational temperatures:    127.06   589.17   589.17
          (Kelvin)

 Zero-point correction=                           0.002067 (Hartree/Particle)
 Thermal correction to Energy=                    0.005785
 Thermal correction to Enthalpy=                  0.006729
 Thermal correction to Gibbs Free Energy=        -0.019785
 Sum of electronic and zero-point Energies=           -100.778691
 Sum of electronic and thermal Energies=              -100.774972
 Sum of electronic and thermal Enthalpies=            -100.774028
 Sum of electronic and thermal Free Energies=         -100.800542

                     E (Thermal)             CV                S
                      KCal/Mol        Cal/Mol-Kelvin    Cal/Mol-Kelvin
 Total                    3.630              9.825             55.804
 Electronic               0.000              0.000              1.377
 Translational            0.889              2.981             35.068
 Rotational               0.592              1.987             13.804
 Vibrational              2.149              4.857              5.554
 Vibration     1          0.601              1.957              3.697
 Vibration     2          0.774              1.450              0.928
 Vibration     3          0.774              1.450              0.928

 Normal termination of Gaussian 16 at Fri Aug 22 17:05:06 2025.
