 Gaussian 16, Revision C.01,
 Gaussian 16:  ES64L-G16RevC.01  3-Jul-2019

 -----------------------------------------
 # sp b3lyp/6-311g** Force nosymm scf=(qc)
 -----------------------------------------

 -------------------
 Title Card Required
 -------------------
 Symbolic Z-matrix:
 Charge =  0 Multiplicity = 2

                          Input orientation:
 ---------------------------------------------------------------------
 Center     Atomic      Atomic             Coordinates (Angstroms)
 Number     Number       Type             X           Y           Z
 ---------------------------------------------------------------------
      1          1           0        0.000000    0.000000    0.000000
      2          1           0       -1.550000    0.000000    0.000000
      3          9           0        3.550000    0.000000    0.000000
 ---------------------------------------------------------------------

 SCF Done:  E(UB3LYP) =  -100.812802261     a.u. after  464 cycles

 Alpha  occ. eigenvalues --  -24.76349  -1.22230  -0.55431  -0.46619  -0.46585
 Alpha  occ. eigenvalues --   -0.33398
 Alpha virt. eigenvalues --   -0.10031   0.25205   0.30436   0.85958   0.90834
 Alpha virt. eigenvalues --    0.91875   1.01182   1.06914   1.21462   1.21465
 Alpha virt. eigenvalues --    1.40407   1.40411   1.78243   2.20865   2.45298

  Beta  occ. eigenvalues --  -24.73193  -1.13156  -0.43460  -0.43421  -0.33392
  Beta virt. eigenvalues --   -0.26075  -0.10050   0.25195   0.30500   0.92335
  Beta virt. eigenvalues --    0.93342   0.95424   1.05268   1.06926   1.21455
  Beta virt. eigenvalues --    1.21458   1.40402   1.40404   1.78282   2.21001

 Mulliken charges and spin densities:
               1          2
     1  H    0.000662  -0.334054
     2  H   -0.002952   0.333917
     3  F    0.002290   1.000137
 Sum of Mulliken charges =   0.00000   1.00000

 Dipole moment (field-independent basis, Debye):
    X=              0.0453    Y=             -0.0000    Z=              0.0000  Tot=              0.0453
 Quadrupole moment (field-independent basis, Debye-Ang):
   XX=             -6.3396   YY=             -6.9033   ZZ=             -7.7676
   XY=             -0.0000   XZ=              0.0000   YZ=             -0.0050

  Exact polarizability:      23.293       0.000       2.597      -0.000      -0.003       2.033
 Approx polarizability:      42.425      -0.000       2.602      -0.000      -0.003       2.020

 ******    2 imaginary frequencies (negative Signs) ******

                      1                      2                      3
                      A                      A                      A
 Frequencies --  -2129.6670               -41.6077              1080.6962
 Red. masses --      1.0078                 1.1085                 1.0110
 Frc consts  --      2.6931                 0.0011                 0.6957
 IR Inten    --      0.0705                 0.1518                 0.5148

                      4
                      A
 Frequencies --   1136.3937
 Red. masses --      1.0110
 Frc consts  --      0.7692
 IR Inten    --      0.0025

 - Thermochemistry -
 -------------------
 Temperature   298.150 Kelvin.  Pressure   1.00000 Atm.
 Atom     1 has atomic number  1 and mass   1.00783

 Molecular mass:    21.01405 amu.
 Principal axes and moments of inertia in atomic units:
                           1         2         3
     Eigenvalues --     0.00000 126.05184 126.05184
           X            1.00000  -0.00000   0.00000
           Y            0.00000   1.00000   0.00000
           Z            0.00000   0.00000   1.00000
 This molecule is a prolate symmetric top.
 Rotational symmetry number  1.
 Rotational temperature (Kelvin)      0.68713
 Rotational constant (GHZ):          14.317453
    2 imaginary frequencies ignored.
 Zero-point vibrational energy      13261.1 (Joules/Mol)
                                    3.16949 (Kcal/Mol)
 Vibrational temperatures:   1554.88  1635.02
          (Kelvin)

 Zero-point correction=                           0.005051 (Hartree/Particle)
 Thermal correction to Energy=                    0.007460
 Thermal correction to Enthalpy=                  0.008404
 Thermal correction to Gibbs Free Energy=        -0.015648
 Sum of electronic and zero-point Energies=           -100.807751
 Sum of electronic and thermal Energies=              -100.805342
 Sum of electronic and thermal Enthalpies=            -100.804398
 Sum of electronic and thermal Free Energies=         -100.828450

                     E (Thermal)             CV                S
                      KCal/Mol        Cal/Mol-Kelvin    Cal/Mol-Kelvin
 Total                    4.681              5.515             50.622
 Electronic               0.000              0.000              1.377
 Translational            0.889              2.981             35.068
 Rotational               0.592              1.987             14.055
 Vibrational              3.200              0.547              0.121

 Normal termination of Gaussian 16 at Fri Aug 22 22:35:55 2025.
