 Gaussian 16, Revision C.01,
 Gaussian 16:  ES64L-G16RevC.01  3-Jul-2019

 -----------------------------------------
 # sp b3lyp/6-311g** Force nosymm scf=(qc)
 -----------------------------------------

 -------------------
 Title Card Required
 -------------------
 Symbolic Z-matrix:
 Charge =  0 Multiplicity = 2

                          Input orientation:
 ---------------------------------------------------------------------
 Center     Atomic      Atomic             Coordinates (Angstroms)
 Number     Number       Type             X           Y           Z
 ---------------------------------------------------------------------
      1          1           0        0.000000    0.000000    0.000000
      2          1           0       -2.700000    0.000000    0.000000
      3          9           0        1.900000    0.000000    0.000000
 ---------------------------------------------------------------------

 SCF Done:  E(UB3LYP) =  -100.796751420     a.u. after   14 cycles

 Alpha  occ. eigenvalues --  -24.67330  -1.13612  -0.46252  -0.38980  -0.38980
 Alpha  occ. eigenvalues --   -0.34647
 Alpha virt. eigenvalues --   -0.14281   0.23341   0.30298   0.90976   0.94956
 Alpha virt. eigenvalues --    0.94956   1.06141   1.22941   1.22941   1.24689
 Alpha virt. eigenvalues --    1.34389   1.34389   1.65404   2.13965   2.27982

  Beta  occ. eigenvalues --  -24.65153  -1.07566  -0.38457  -0.36844  -0.36844
  Beta virt. eigenvalues --   -0.20104  -0.09170   0.23936   0.35566   0.92341
  Beta virt. eigenvalues --    0.95302   0.95302   1.08479   1.22901   1.22901
  Beta virt. eigenvalues --    1.42602   1.42602   1.42900   1.60054   2.13219

 Mulliken charges and spin densities:
               1          2
     1  H    0.210612  -0.666337
     2  H    0.012465   0.981730
     3  F   -0.223077   0.684607
 Sum of Mulliken charges =   0.00000   1.00000

 Dipole moment (field-independent basis, Debye):
    X=             -2.2425    Y=              0.0000    Z=             -0.0000  Tot=              2.2425
 Quadrupole moment (field-independent basis, Debye-Ang):
   XX=             -9.6676   YY=             -7.4866   ZZ=             -7.4866
   XY=              0.0000   XZ=             -0.0000   YZ=             -0.0000

  Exact polarizability:      32.241      -0.000       2.077       0.000      -0.000       2.077
 Approx polarizability:      42.055      -0.000       1.967       0.000       0.000       1.967

 ******    2 imaginary frequencies (negative Signs) ******

                      1                      2                      3
                      A                      A                      A
 Frequencies --  -1340.2811              -310.1642               565.7437
 Red. masses --      1.0514                 1.0602                 1.0227
 Frc consts  --      1.1128                 0.0601                 0.1929
 IR Inten    --    109.1877                 7.1840                38.1102

                      4
                      A
 Frequencies --    565.7437
 Red. masses --      1.0227
 Frc consts  --      0.1929
 IR Inten    --     38.1102

 - Thermochemistry -
 -------------------
 Temperature   298.150 Kelvin.  Pressure   1.00000 Atm.
 Atom     1 has atomic number  1 and mass   1.00783

 Molecular mass:    21.01405 amu.
 Principal axes and moments of inertia in atomic units:
                           1         2         3
     Eigenvalues --     0.00000  81.85480  81.85480
           X            1.00000  -0.00000   0.00000
           Y            0.00000   1.00000   0.00000
           Z            0.00000   0.00000   1.00000
 This molecule is a prolate symmetric top.
 Rotational symmetry number  1.
 Rotational temperature (Kelvin)      1.05814
 Rotational constant (GHZ):          22.048080
    2 imaginary frequencies ignored.
 Zero-point vibrational energy       6767.8 (Joules/Mol)
                                    1.61754 (Kcal/Mol)
 Warning -- explicit consideration of   2 degrees of freedom as
           vibrations may cause significant error
 Vibrational temperatures:    813.98   813.98
          (Kelvin)

 Zero-point correction=                           0.002578 (Hartree/Particle)
 Thermal correction to Energy=                    0.005298
 Thermal correction to Enthalpy=                  0.006242
 Thermal correction to Gibbs Free Energy=        -0.017832
 Sum of electronic and zero-point Energies=           -100.794174
 Sum of electronic and thermal Energies=              -100.791454
 Sum of electronic and thermal Enthalpies=            -100.790509
 Sum of electronic and thermal Free Energies=         -100.814583

                     E (Thermal)             CV                S
                      KCal/Mol        Cal/Mol-Kelvin    Cal/Mol-Kelvin
 Total                    3.324              7.179             50.668
 Electronic               0.000              0.000              1.377
 Translational            0.889              2.981             35.068
 Rotational               0.592              1.987             13.197
 Vibrational              1.843              2.211              1.025
 Vibration     1          0.922              1.105              0.512
 Vibration     2          0.922              1.105              0.512

 Normal termination of Gaussian 16 at Fri Aug 22 16:50:38 2025.
