 Gaussian 16, Revision C.01,
 Gaussian 16:  ES64L-G16RevC.01  3-Jul-2019

 -----------------------------------------
 # sp b3lyp/6-311g** Force nosymm scf=(qc)
 -----------------------------------------

 -------------------
 Title Card Required
 -------------------
 Symbolic Z-matrix:
 Charge =  0 Multiplicity = 2

                          Input orientation:
 ---------------------------------------------------------------------
 Center     Atomic      Atomic             Coordinates (Angstroms)
 Number     Number       Type             X           Y           Z
 ---------------------------------------------------------------------
      1          1           0        0.000000    0.000000    0.000000
      2          1           0       -3.200000    0.000000    0.000000
      3          9           0        2.950000    0.000000    0.000000
 ---------------------------------------------------------------------

 SCF Done:  E(UB3LYP) =  -100.761821985     a.u. after   20 cycles

 Alpha  occ. eigenvalues --  -24.73909  -1.19982  -0.53028  -0.44527  -0.44527
 Alpha  occ. eigenvalues --   -0.32667
 Alpha virt. eigenvalues --   -0.08778   0.24318   0.35546   0.89582   0.92381
 Alpha virt. eigenvalues --    0.92381   1.04218   1.24855   1.24855   1.25309
 Alpha virt. eigenvalues --    1.43008   1.43008   1.43420   2.15205   2.39170

  Beta  occ. eigenvalues --  -24.70894  -1.11346  -0.41510  -0.41510  -0.33874
  Beta virt. eigenvalues --   -0.24676  -0.07171   0.24352   0.37289   0.93838
  Beta virt. eigenvalues --    0.93838   0.98207   1.07931   1.23469   1.23469
  Beta virt. eigenvalues --    1.24304   1.45124   1.45335   1.45335   2.15436

 Mulliken charges and spin densities:
               1          2
     1  H    0.039731  -0.950706
     2  H    0.001048   0.995611
     3  F   -0.040780   0.955095
 Sum of Mulliken charges =  -0.00000   1.00000

 Dipole moment (field-independent basis, Debye):
    X=             -0.6337    Y=             -0.0000    Z=             -0.0000  Tot=              0.6337
 Quadrupole moment (field-independent basis, Debye-Ang):
   XX=             -8.3515   YY=             -7.6132   ZZ=             -7.6132
   XY=              0.0000   XZ=             -0.0000   YZ=             -0.0000

  Exact polarizability:      33.634       0.000       2.023      -0.000       0.000       2.023
 Approx polarizability:      34.382       0.000       1.924      -0.000      -0.000       1.924

 ******    2 imaginary frequencies (negative Signs) ******

                      1                      2                      3
                      A                      A                      A
 Frequencies --   -422.3826              -160.2517               153.5950
 Red. masses --      1.0375                 1.0747                 1.0190
 Frc consts  --      0.1091                 0.0163                 0.0142
 IR Inten    --     41.1930                 2.3823                 1.4442

                      4
                      A
 Frequencies --    153.5951
 Red. masses --      1.0190
 Frc consts  --      0.0142
 IR Inten    --      1.4442

 - Thermochemistry -
 -------------------
 Temperature   298.150 Kelvin.  Pressure   1.00000 Atm.
 Atom     1 has atomic number  1 and mass   1.00783

 Molecular mass:    21.01405 amu.
 Principal axes and moments of inertia in atomic units:
                           1         2         3
     Eigenvalues --     0.00000 153.15029 153.15029
           X            1.00000  -0.00000   0.00000
           Y            0.00000   1.00000   0.00000
           Z            0.00000   0.00000   1.00000
 This molecule is a prolate symmetric top.
 Rotational symmetry number  1.
 Rotational temperature (Kelvin)      0.56555
 Rotational constant (GHZ):          11.784118
    2 imaginary frequencies ignored.
 Zero-point vibrational energy       1837.4 (Joules/Mol)
                                    0.43915 (Kcal/Mol)
 Warning -- explicit consideration of   2 degrees of freedom as
           vibrations may cause significant error
 Vibrational temperatures:    220.99   220.99
          (Kelvin)

 Zero-point correction=                           0.000700 (Hartree/Particle)
 Thermal correction to Energy=                    0.004335
 Thermal correction to Enthalpy=                  0.005279
 Thermal correction to Gibbs Free Energy=        -0.021396
 Sum of electronic and zero-point Energies=           -100.761122
 Sum of electronic and thermal Energies=              -100.757487
 Sum of electronic and thermal Enthalpies=            -100.756543
 Sum of electronic and thermal Free Energies=         -100.783218

                     E (Thermal)             CV                S
                      KCal/Mol        Cal/Mol-Kelvin    Cal/Mol-Kelvin
 Total                    2.720              8.765             56.142
 Electronic               0.000              0.000              1.377
 Translational            0.889              2.981             35.068
 Rotational               0.592              1.987             14.442
 Vibrational              1.239              3.797              5.254
 Vibration     1          0.619              1.899              2.627
 Vibration     2          0.619              1.899              2.627

 Normal termination of Gaussian 16 at Fri Aug 22 19:18:40 2025.
