 Gaussian 16, Revision C.01,
 Gaussian 16:  ES64L-G16RevC.01  3-Jul-2019

 -----------------------------------------
 # sp b3lyp/6-311g** Force nosymm scf=(qc)
 -----------------------------------------

 -------------------
 Title Card Required
 -------------------
 Symbolic Z-matrix:
 Charge =  0 Multiplicity = 2

                          Input orientation:
 ---------------------------------------------------------------------
 Center     Atomic      Atomic             Coordinates (Angstroms)
 Number     Number       Type             X           Y           Z
 ---------------------------------------------------------------------
      1          1           0        0.000000    0.000000    0.000000
      2          1           0       -4.000000    0.000000    0.000000
      3          9           0        1.250000    0.000000    0.000000
 ---------------------------------------------------------------------

 SCF Done:  E(UB3LYP) =  -100.913403327     a.u. after    6 cycles

 Alpha  occ. eigenvalues --  -24.64379  -1.11656  -0.46889  -0.37299  -0.37299
 Alpha  occ. eigenvalues --   -0.33494
 Alpha virt. eigenvalues --   -0.07405   0.21870   0.28259   0.93042   0.93042
 Alpha virt. eigenvalues --    1.01429   1.23840   1.24013   1.24013   1.24056
 Alpha virt. eigenvalues --    1.34230   1.34230   1.70863   2.13342   2.26475

  Beta  occ. eigenvalues --  -24.64378  -1.11652  -0.46885  -0.37297  -0.37297
  Beta virt. eigenvalues --   -0.07821  -0.05183   0.25705   0.38769   0.93042
  Beta virt. eigenvalues --    0.93042   1.01433   1.23934   1.34226   1.34226
  Beta virt. eigenvalues --    1.47990   1.47990   1.48594   1.70880   2.25738

 Mulliken charges and spin densities:
               1          2
     1  H    0.357109  -0.000096
     2  H    0.000415   0.999559
     3  F   -0.357524   0.000538
 Sum of Mulliken charges =   0.00000   1.00000

 Dipole moment (field-independent basis, Debye):
    X=             -2.3394    Y=             -0.0000    Z=             -0.0000  Tot=              2.3394
 Quadrupole moment (field-independent basis, Debye-Ang):
   XX=             -9.0966   YY=             -7.1644   ZZ=             -7.1644
   XY=             -0.0000   XZ=             -0.0000   YZ=              0.0000

  Exact polarizability:       9.898       0.000       2.300      -0.000      -0.000       2.300
 Approx polarizability:      14.908       0.000       2.249      -0.000      -0.000       2.249

 ******    1 imaginary frequencies (negative Signs) ******

                      1                      2                      3
                      A                      A                      A
 Frequencies --    -31.8865               452.2696              1194.4809
 Red. masses --      1.0525                 1.0591                 1.0356
 Frc consts  --      0.0006                 0.1276                 0.8706
 IR Inten    --      0.0365                58.2671               143.7742

                      4
                      A
 Frequencies --   1194.4809
 Red. masses --      1.0356
 Frc consts  --      0.8706
 IR Inten    --    143.7742

 - Thermochemistry -
 -------------------
 Temperature   298.150 Kelvin.  Pressure   1.00000 Atm.
 Atom     1 has atomic number  1 and mass   1.00783

 Molecular mass:    21.01405 amu.
 Principal axes and moments of inertia in atomic units:
                           1         2         3
     Eigenvalues --     0.00000  97.52848  97.52848
           X            1.00000  -0.00000   0.00000
           Y            0.00000   1.00000   0.00000
           Z            0.00000   0.00000   1.00000
 This molecule is a prolate symmetric top.
 Rotational symmetry number  1.
 Rotational temperature (Kelvin)      0.88809
 Rotational constant (GHZ):          18.504761
    1 imaginary frequencies ignored.
 Zero-point vibrational energy      16994.3 (Joules/Mol)
                                    4.06174 (Kcal/Mol)
 Warning -- explicit consideration of   1 degrees of freedom as
           vibrations may cause significant error
 Vibrational temperatures:    650.72  1718.59  1718.59
          (Kelvin)

 Zero-point correction=                           0.006473 (Hartree/Particle)
 Thermal correction to Energy=                    0.009129
 Thermal correction to Enthalpy=                  0.010074
 Thermal correction to Gibbs Free Energy=        -0.014094
 Sum of electronic and zero-point Energies=           -100.906931
 Sum of electronic and thermal Energies=              -100.904274
 Sum of electronic and thermal Enthalpies=            -100.903330
 Sum of electronic and thermal Free Energies=         -100.927497

                     E (Thermal)             CV                S
                      KCal/Mol        Cal/Mol-Kelvin    Cal/Mol-Kelvin
 Total                    5.729              6.741             50.864
 Electronic               0.000              0.000              1.377
 Translational            0.889              2.981             35.068
 Rotational               0.592              1.987             13.545
 Vibrational              4.248              1.773              0.874
 Vibration     1          0.811              1.356              0.789

 Normal termination of Gaussian 16 at Fri Aug 22 16:13:55 2025.
