 Gaussian 16, Revision C.01,
 Gaussian 16:  ES64L-G16RevC.01  3-Jul-2019

 -----------------------------------------
 # sp b3lyp/6-311g** Force nosymm scf=(qc)
 -----------------------------------------

 -------------------
 Title Card Required
 -------------------
 Symbolic Z-matrix:
 Charge =  0 Multiplicity = 2

                          Input orientation:
 ---------------------------------------------------------------------
 Center     Atomic      Atomic             Coordinates (Angstroms)
 Number     Number       Type             X           Y           Z
 ---------------------------------------------------------------------
      1          1           0        0.000000    0.000000    0.000000
      2          1           0       -3.750000    0.000000    0.000000
      3          9           0        3.900000    0.000000    0.000000
 ---------------------------------------------------------------------

 SCF Done:  E(UB3LYP) =  -100.758516918     a.u. after   30 cycles

 Alpha  occ. eigenvalues --  -24.75823  -1.21755  -0.54948  -0.46135  -0.46135
 Alpha  occ. eigenvalues --   -0.32246
 Alpha virt. eigenvalues --   -0.06307   0.24224   0.37789   0.86690   0.91207
 Alpha virt. eigenvalues --    0.91207   1.01160   1.25251   1.25251   1.25311
 Alpha virt. eigenvalues --    1.45998   1.46179   1.46179   2.14787   2.41863

  Beta  occ. eigenvalues --  -24.72681  -1.12720  -0.42985  -0.42985  -0.32480
  Beta virt. eigenvalues --   -0.25703  -0.06077   0.24049   0.38171   0.92704
  Beta virt. eigenvalues --    0.92704   0.96037   1.05274   1.24997   1.24997
  Beta virt. eigenvalues --    1.25041   1.46372   1.46538   1.46538   2.14782

 Mulliken charges and spin densities:
               1          2
     1  H    0.003380  -0.995047
     2  H    0.000041   0.998840
     3  F   -0.003421   0.996207
 Sum of Mulliken charges =  -0.00000   1.00000

 Dipole moment (field-independent basis, Debye):
    X=             -0.0698    Y=             -0.0000    Z=              0.0000  Tot=              0.0698
 Quadrupole moment (field-independent basis, Debye-Ang):
   XX=             -6.9800   YY=             -7.6207   ZZ=             -7.6207
   XY=             -0.0000   XZ=              0.0000   YZ=              0.0000

  Exact polarizability:      12.464      -0.000       2.033       0.000       0.000       2.033
 Approx polarizability:       9.210      -0.000       1.937       0.000      -0.000       1.937

 ******    2 imaginary frequencies (negative Signs) ******

                      1                      2                      3
                      A                      A                      A
 Frequencies --   -160.5600               -67.7384                52.3072
 Red. masses --      1.0178                 1.0967                 1.0175
 Frc consts  --      0.0155                 0.0030                 0.0016
 IR Inten    --      1.5847                 0.4235                 0.0111

                      4
                      A
 Frequencies --     52.3072
 Red. masses --      1.0175
 Frc consts  --      0.0016
 IR Inten    --      0.0111

 - Thermochemistry -
 -------------------
 Temperature   298.150 Kelvin.  Pressure   1.00000 Atm.
 Atom     1 has atomic number  1 and mass   1.00783

 Molecular mass:    21.01405 amu.
 Principal axes and moments of inertia in atomic units:
                           1         2         3
     Eigenvalues --     0.00000 242.33770 242.33770
           X            1.00000  -0.00000   0.00000
           Y            0.00000   1.00000   0.00000
           Z            0.00000   0.00000   1.00000
 This molecule is a prolate symmetric top.
 Rotational symmetry number  1.
 Rotational temperature (Kelvin)      0.35741
 Rotational constant (GHZ):           7.447216
    2 imaginary frequencies ignored.
 Zero-point vibrational energy        625.7 (Joules/Mol)
                                    0.14955 (Kcal/Mol)
 Warning -- explicit consideration of   2 degrees of freedom as
           vibrations may cause significant error
 Vibrational temperatures:     75.26    75.26
          (Kelvin)

 Zero-point correction=                           0.000238 (Hartree/Particle)
 Thermal correction to Energy=                    0.004259
 Thermal correction to Enthalpy=                  0.005203
 Thermal correction to Gibbs Free Energy=        -0.023902
 Sum of electronic and zero-point Energies=           -100.758279
 Sum of electronic and thermal Energies=              -100.754258
 Sum of electronic and thermal Enthalpies=            -100.753314
 Sum of electronic and thermal Free Energies=         -100.782419

                     E (Thermal)             CV                S
                      KCal/Mol        Cal/Mol-Kelvin    Cal/Mol-Kelvin
 Total                    2.672              8.921             61.256
 Electronic               0.000              0.000              1.377
 Translational            0.889              2.981             35.068
 Rotational               0.592              1.987             15.354
 Vibrational              1.191              3.953              9.456
 Vibration     1          0.596              1.977              4.728
 Vibration     2          0.596              1.977              4.728

 Normal termination of Gaussian 16 at Sat Aug 23 01:27:43 2025.
