 Gaussian 16, Revision C.01,
 Gaussian 16:  ES64L-G16RevC.01  3-Jul-2019

 -----------------------------------------
 # sp b3lyp/6-311g** Force nosymm scf=(qc)
 -----------------------------------------

 -------------------
 Title Card Required
 -------------------
 Symbolic Z-matrix:
 Charge =  0 Multiplicity = 2

                          Input orientation:
 ---------------------------------------------------------------------
 Center     Atomic      Atomic             Coordinates (Angstroms)
 Number     Number       Type             X           Y           Z
 ---------------------------------------------------------------------
      1          1           0        0.000000    0.000000    0.000000
      2          1           0       -2.000000    0.000000    0.000000
      3          9           0        1.100000    0.000000    0.000000
 ---------------------------------------------------------------------

 SCF Done:  E(UB3LYP) =  -100.949963714     a.u. after    5 cycles

 Alpha  occ. eigenvalues --  -24.63794  -1.13521  -0.49671  -0.37696  -0.37696
 Alpha  occ. eigenvalues --   -0.36379
 Alpha virt. eigenvalues --    0.00485   0.23936   0.30724   0.93945   0.93945
 Alpha virt. eigenvalues --    0.99642   1.13617   1.20884   1.20884   1.35863
 Alpha virt. eigenvalues --    1.35863   1.47649   1.77838   2.15376   2.33962

  Beta  occ. eigenvalues --  -24.63683  -1.13243  -0.49063  -0.37597  -0.37597
  Beta virt. eigenvalues --   -0.13501   0.03229   0.30452   0.34336   0.93953
  Beta virt. eigenvalues --    0.93953   1.00069   1.22722   1.34868   1.34868
  Beta virt. eigenvalues --    1.40957   1.40957   1.56176   1.79542   2.31168

 Mulliken charges and spin densities:
               1          2
     1  H    0.323638  -0.000070
     2  H    0.021550   0.968074
     3  F   -0.345188   0.031996
 Sum of Mulliken charges =   0.00000   1.00000

 Dipole moment (field-independent basis, Debye):
    X=             -2.3991    Y=              0.0000    Z=             -0.0000  Tot=              2.3991
 Quadrupole moment (field-independent basis, Debye-Ang):
   XX=             -8.0141   YY=             -7.0076   ZZ=             -7.0076
   XY=             -0.0000   XZ=              0.0000   YZ=             -0.0000

  Exact polarizability:      12.935       0.000       2.423       0.000       0.000       2.423
 Approx polarizability:      15.001      -0.000       2.396      -0.000       0.000       2.396

 ******    1 imaginary frequencies (negative Signs) ******

                      1                      2                      3
                      A                      A                      A
 Frequencies --   -209.8387              1137.1237              1137.1237
 Red. masses --      1.0478                 1.0265                 1.0265
 Frc consts  --      0.0272                 0.7820                 0.7820
 IR Inten    --      8.4769               121.4659               121.4659

                      4
                      A
 Frequencies --   1831.8745
 Red. masses --      1.0639
 Frc consts  --      2.1035
 IR Inten    --    194.9404

 - Thermochemistry -
 -------------------
 Temperature   298.150 Kelvin.  Pressure   1.00000 Atm.
 Atom     1 has atomic number  1 and mass   1.00783

 Molecular mass:    21.01405 amu.
 Principal axes and moments of inertia in atomic units:
                           1         2         3
     Eigenvalues --     0.00000  35.89649  35.89649
           X            1.00000  -0.00000   0.00000
           Y            0.00000   1.00000   0.00000
           Z            0.00000   0.00000   1.00000
 This molecule is a prolate symmetric top.
 Rotational symmetry number  1.
 Rotational temperature (Kelvin)      2.41288
 Rotational constant (GHZ):          50.276263
    1 imaginary frequencies ignored.
 Zero-point vibrational energy      24560.1 (Joules/Mol)
                                    5.87000 (Kcal/Mol)
 Vibrational temperatures:   1636.07  1636.07  2635.66
          (Kelvin)

 Zero-point correction=                           0.009354 (Hartree/Particle)
 Thermal correction to Energy=                    0.011759
 Thermal correction to Enthalpy=                  0.012703
 Thermal correction to Gibbs Free Energy=        -0.010157
 Sum of electronic and zero-point Energies=           -100.940609
 Sum of electronic and thermal Energies=              -100.938205
 Sum of electronic and thermal Enthalpies=            -100.937260
 Sum of electronic and thermal Free Energies=         -100.960121

                     E (Thermal)             CV                S
                      KCal/Mol        Cal/Mol-Kelvin    Cal/Mol-Kelvin
 Total                    7.379              5.490             48.115
 Electronic               0.000              0.000              1.377
 Translational            0.889              2.981             35.068
 Rotational               0.592              1.987             11.559
 Vibrational              5.898              0.522              0.110

 Normal termination of Gaussian 16 at Fri Aug 22 16:05:20 2025.
