 Gaussian 16, Revision C.01,
 Gaussian 16:  ES64L-G16RevC.01  3-Jul-2019

 -----------------------------------------
 # sp b3lyp/6-311g** Force nosymm scf=(qc)
 -----------------------------------------

 -------------------
 Title Card Required
 -------------------
 Symbolic Z-matrix:
 Charge =  0 Multiplicity = 2

                          Input orientation:
 ---------------------------------------------------------------------
 Center     Atomic      Atomic             Coordinates (Angstroms)
 Number     Number       Type             X           Y           Z
 ---------------------------------------------------------------------
      1          1           0        0.000000    0.000000    0.000000
      2          1           0       -3.850000    0.000000    0.000000
      3          9           0        3.400000    0.000000    0.000000
 ---------------------------------------------------------------------

 SCF Done:  E(UB3LYP) =  -100.759136439     a.u. after   26 cycles

 Alpha  occ. eigenvalues --  -24.75193  -1.21170  -0.54315  -0.45603  -0.45603
 Alpha  occ. eigenvalues --   -0.32326
 Alpha virt. eigenvalues --   -0.06632   0.24089   0.37025   0.87913   0.91601
 Alpha virt. eigenvalues --    0.91601   1.02099   1.25170   1.25170   1.25208
 Alpha virt. eigenvalues --    1.45826   1.45826   1.46255   2.14599   2.42026

  Beta  occ. eigenvalues --  -24.72091  -1.12261  -0.42495  -0.42495  -0.32945
  Beta virt. eigenvalues --   -0.25381  -0.05993   0.23823   0.38161   0.93086
  Beta virt. eigenvalues --    0.93086   0.96977   1.06062   1.24461   1.24461
  Beta virt. eigenvalues --    1.24490   1.46501   1.46647   1.46647   2.14804

 Mulliken charges and spin densities:
               1          2
     1  H    0.015072  -0.982495
     2  H    0.000088   0.999109
     3  F   -0.015160   0.983386
 Sum of Mulliken charges =  -0.00000   1.00000

 Dipole moment (field-independent basis, Debye):
    X=             -0.2666    Y=              0.0000    Z=              0.0000  Tot=              0.2666
 Quadrupole moment (field-independent basis, Debye-Ang):
   XX=             -7.5814   YY=             -7.6166   ZZ=             -7.6166
   XY=              0.0000   XZ=              0.0000   YZ=             -0.0000

  Exact polarizability:      25.355       0.000       2.033       0.000      -0.000       2.033
 Approx polarizability:      21.089       0.000       1.933       0.000       0.000       1.933

 ******    2 imaginary frequencies (negative Signs) ******

                      1                      2                      3
                      A                      A                      A
 Frequencies --   -240.9164               -78.3290                72.3703
 Red. masses --      1.0452                 1.0666                 1.0195
 Frc consts  --      0.0357                 0.0039                 0.0031
 IR Inten    --     15.5776                 0.2806                 0.2099

                      4
                      A
 Frequencies --     72.3704
 Red. masses --      1.0195
 Frc consts  --      0.0031
 IR Inten    --      0.2099

 - Thermochemistry -
 -------------------
 Temperature   298.150 Kelvin.  Pressure   1.00000 Atm.
 Atom     1 has atomic number  1 and mass   1.00783

 Molecular mass:    21.01405 amu.
 Principal axes and moments of inertia in atomic units:
                           1         2         3
     Eigenvalues --     0.00000 211.19992 211.19992
           X            1.00000  -0.00000   0.00000
           Y            0.00000   1.00000   0.00000
           Z            0.00000   0.00000   1.00000
 This molecule is a prolate symmetric top.
 Rotational symmetry number  1.
 Rotational temperature (Kelvin)      0.41010
 Rotational constant (GHZ):           8.545179
    2 imaginary frequencies ignored.
 Zero-point vibrational energy        865.7 (Joules/Mol)
                                    0.20692 (Kcal/Mol)
 Warning -- explicit consideration of   2 degrees of freedom as
           vibrations may cause significant error
 Vibrational temperatures:    104.12   104.12
          (Kelvin)

 Zero-point correction=                           0.000330 (Hartree/Particle)
 Thermal correction to Energy=                    0.004268
 Thermal correction to Enthalpy=                  0.005212
 Thermal correction to Gibbs Free Energy=        -0.023154
 Sum of electronic and zero-point Energies=           -100.758807
 Sum of electronic and thermal Energies=              -100.754868
 Sum of electronic and thermal Enthalpies=            -100.753924
 Sum of electronic and thermal Free Energies=         -100.782291

                     E (Thermal)             CV                S
                      KCal/Mol        Cal/Mol-Kelvin    Cal/Mol-Kelvin
 Total                    2.678              8.902             59.702
 Electronic               0.000              0.000              1.377
 Translational            0.889              2.981             35.068
 Rotational               0.592              1.987             15.081
 Vibrational              1.197              3.934              8.176
 Vibration     1          0.598              1.967              4.088
 Vibration     2          0.598              1.967              4.088

 Normal termination of Gaussian 16 at Fri Aug 22 21:19:06 2025.
