 Gaussian 16, Revision C.01,
 Gaussian 16:  ES64L-G16RevC.01  3-Jul-2019

 -----------------------------------------
 # sp b3lyp/6-311g** Force nosymm scf=(qc)
 -----------------------------------------

 -------------------
 Title Card Required
 -------------------
 Symbolic Z-matrix:
 Charge =  0 Multiplicity = 2

                          Input orientation:
 ---------------------------------------------------------------------
 Center     Atomic      Atomic             Coordinates (Angstroms)
 Number     Number       Type             X           Y           Z
 ---------------------------------------------------------------------
      1          1           0        0.000000    0.000000    0.000000
      2          1           0       -2.800000    0.000000    0.000000
      3          9           0        1.200000    0.000000    0.000000
 ---------------------------------------------------------------------

 SCF Done:  E(UB3LYP) =  -100.925899355     a.u. after    6 cycles

 Alpha  occ. eigenvalues --  -24.64251  -1.12195  -0.47703  -0.37443  -0.37443
 Alpha  occ. eigenvalues --   -0.34728
 Alpha virt. eigenvalues --   -0.05324   0.23902   0.28657   0.93260   0.93260
 Alpha virt. eigenvalues --    1.00863   1.22310   1.22806   1.22806   1.28924
 Alpha virt. eigenvalues --    1.34725   1.34725   1.73633   2.13991   2.29176

  Beta  occ. eigenvalues --  -24.64229  -1.12139  -0.47622  -0.37423  -0.37423
  Beta virt. eigenvalues --   -0.10124  -0.03144   0.27887   0.37241   0.93259
  Beta virt. eigenvalues --    0.93259   1.00912   1.27299   1.34678   1.34678
  Beta virt. eigenvalues --    1.44979   1.44979   1.45284   1.73903   2.29097

 Mulliken charges and spin densities:
               1          2
     1  H    0.349455  -0.000038
     2  H    0.005735   0.993081
     3  F   -0.355191   0.006956
 Sum of Mulliken charges =  -0.00000   1.00000

 Dipole moment (field-independent basis, Debye):
    X=             -2.3595    Y=              0.0000    Z=             -0.0000  Tot=              2.3595
 Quadrupole moment (field-independent basis, Debye-Ang):
   XX=             -8.6690   YY=             -7.1268   ZZ=             -7.1268
   XY=              0.0000   XZ=             -0.0000   YZ=              0.0000

  Exact polarizability:      11.416       0.000       2.337       0.000      -0.000       2.337
 Approx polarizability:      15.154      -0.000       2.293       0.000      -0.000       2.293

 ******    1 imaginary frequencies (negative Signs) ******

                      1                      2                      3
                      A                      A                      A
 Frequencies --   -130.2442               976.9598              1189.8636
 Red. masses --      1.0498                 1.0618                 1.0306
 Frc consts  --      0.0105                 0.5971                 0.8596
 IR Inten    --      1.7765                93.8952               137.7800

                      4
                      A
 Frequencies --   1189.8636
 Red. masses --      1.0306
 Frc consts  --      0.8596
 IR Inten    --    137.7800

 - Thermochemistry -
 -------------------
 Temperature   298.150 Kelvin.  Pressure   1.00000 Atm.
 Atom     1 has atomic number  1 and mass   1.00783

 Molecular mass:    21.01405 amu.
 Principal axes and moments of inertia in atomic units:
                           1         2         3
     Eigenvalues --     0.00000  58.09942  58.09942
           X            1.00000  -0.00000   0.00000
           Y            0.00000   1.00000   0.00000
           Z            0.00000   0.00000   1.00000
 This molecule is a prolate symmetric top.
 Rotational symmetry number  1.
 Rotational temperature (Kelvin)      1.49079
 Rotational constant (GHZ):          31.062983
    1 imaginary frequencies ignored.
 Zero-point vibrational energy      20077.4 (Joules/Mol)
                                    4.79862 (Kcal/Mol)
 Vibrational temperatures:   1405.63  1711.95  1711.95
          (Kelvin)

 Zero-point correction=                           0.007647 (Hartree/Particle)
 Thermal correction to Energy=                    0.010083
 Thermal correction to Enthalpy=                  0.011027
 Thermal correction to Gibbs Free Energy=        -0.012326
 Sum of electronic and zero-point Energies=           -100.918252
 Sum of electronic and thermal Energies=              -100.915817
 Sum of electronic and thermal Enthalpies=            -100.914872
 Sum of electronic and thermal Free Energies=         -100.938225

                     E (Thermal)             CV                S
                      KCal/Mol        Cal/Mol-Kelvin    Cal/Mol-Kelvin
 Total                    6.327              5.794             49.150
 Electronic               0.000              0.000              1.377
 Translational            0.889              2.981             35.068
 Rotational               0.592              1.987             12.516
 Vibrational              4.846              0.826              0.189

 Normal termination of Gaussian 16 at Fri Aug 22 16:10:42 2025.
