 Gaussian 16, Revision C.01,
 Gaussian 16:  ES64L-G16RevC.01  3-Jul-2019

 -----------------------------------------
 # sp b3lyp/6-311g** Force nosymm scf=(qc)
 -----------------------------------------

 -------------------
 Title Card Required
 -------------------
 Symbolic Z-matrix:
 Charge =  0 Multiplicity = 2

                          Input orientation:
 ---------------------------------------------------------------------
 Center     Atomic      Atomic             Coordinates (Angstroms)
 Number     Number       Type             X           Y           Z
 ---------------------------------------------------------------------
      1          1           0        0.000000    0.000000    0.000000
      2          1           0       -0.750000    0.000000    0.000000
      3          9           0        1.750000    0.000000    0.000000
 ---------------------------------------------------------------------

 SCF Done:  E(UB3LYP) =  -100.936021673     a.u. after    7 cycles

 Alpha  occ. eigenvalues --  -24.73367  -1.19763  -0.54847  -0.44333  -0.44272
 Alpha  occ. eigenvalues --   -0.44272
 Alpha virt. eigenvalues --    0.07891   0.20240   0.43247   0.89872   0.89872
 Alpha virt. eigenvalues --    0.95336   1.07595   1.07595   1.18553   1.68530
 Alpha virt. eigenvalues --    1.81000   1.81000   1.96024   2.41414   3.23635

  Beta  occ. eigenvalues --  -24.70472  -1.11615  -0.45922  -0.41409  -0.41409
  Beta virt. eigenvalues --   -0.24780   0.08937   0.20990   0.44382   0.91111
  Beta virt. eigenvalues --    0.91111   1.02588   1.08896   1.08896   1.21901
  Beta virt. eigenvalues --    1.70655   1.81692   1.81692   1.96889   2.42803

 Mulliken charges and spin densities:
               1          2
     1  H    0.050158  -0.038775
     2  H    0.028769   0.141288
     3  F   -0.078926   0.897487
 Sum of Mulliken charges =   0.00000   1.00000

 Dipole moment (field-independent basis, Debye):
    X=             -0.7558    Y=             -0.0000    Z=             -0.0000  Tot=              0.7558
 Quadrupole moment (field-independent basis, Debye-Ang):
   XX=             -6.4422   YY=             -6.8647   ZZ=             -6.8647
   XY=              0.0000   XZ=             -0.0000   YZ=              0.0000

  Exact polarizability:      19.950      -0.000       2.182       0.000       0.000       2.182
 Approx polarizability:      23.857      -0.000       2.231      -0.000      -0.000       2.231

 ******    3 imaginary frequencies (negative Signs) ******

                      1                      2                      3
                      A                      A                      A
 Frequencies --   -586.3977              -586.3977              -235.6584
 Red. masses --      1.0109                 1.0109                 1.1084
 Frc consts  --      0.2048                 0.2048                 0.0363
 IR Inten    --      0.0050                 0.0050                62.9217

                      4
                      A
 Frequencies --   4175.8354
 Red. masses --      1.0079
 Frc consts  --     10.3552
 IR Inten    --    501.7091

 - Thermochemistry -
 -------------------
 Temperature   298.150 Kelvin.  Pressure   1.00000 Atm.
 Atom     1 has atomic number  1 and mass   1.00783

 Molecular mass:    21.01405 amu.
 Principal axes and moments of inertia in atomic units:
                           1         2         3
     Eigenvalues --     0.00000  30.39805  30.39805
           X            1.00000  -0.00000   0.00000
           Y            0.00000   1.00000   0.00000
           Z            0.00000   0.00000   1.00000
 This molecule is a prolate symmetric top.
 Rotational symmetry number  1.
 Rotational temperature (Kelvin)      2.84932
 Rotational constant (GHZ):          59.370286
    3 imaginary frequencies ignored.
 Zero-point vibrational energy      24977.0 (Joules/Mol)
                                    5.96966 (Kcal/Mol)
 Vibrational temperatures:   6008.10
          (Kelvin)

 Zero-point correction=                           0.009513 (Hartree/Particle)
 Thermal correction to Energy=                    0.011874
 Thermal correction to Enthalpy=                  0.012818
 Thermal correction to Gibbs Free Energy=        -0.009834
 Sum of electronic and zero-point Energies=           -100.926508
 Sum of electronic and thermal Energies=              -100.924148
 Sum of electronic and thermal Enthalpies=            -100.923204
 Sum of electronic and thermal Free Energies=         -100.945855

                     E (Thermal)             CV                S
                      KCal/Mol        Cal/Mol-Kelvin    Cal/Mol-Kelvin
 Total                    7.451              4.968             47.674
 Electronic               0.000              0.000              1.377
 Translational            0.889              2.981             35.068
 Rotational               0.592              1.987             11.229
 Vibrational              5.970              0.000              0.000

 Normal termination of Gaussian 16 at Fri Aug 22 16:39:20 2025.
