 Gaussian 16, Revision C.01,
 Gaussian 16:  ES64L-G16RevC.01  3-Jul-2019

 -----------------------------------------
 # sp b3lyp/6-311g** Force nosymm scf=(qc)
 -----------------------------------------

 -------------------
 Title Card Required
 -------------------
 Symbolic Z-matrix:
 Charge =  0 Multiplicity = 2

                          Input orientation:
 ---------------------------------------------------------------------
 Center     Atomic      Atomic             Coordinates (Angstroms)
 Number     Number       Type             X           Y           Z
 ---------------------------------------------------------------------
      1          1           0        0.000000    0.000000    0.000000
      2          1           0       -1.950000    0.000000    0.000000
      3          9           0        1.600000    0.000000    0.000000
 ---------------------------------------------------------------------

 SCF Done:  E(UB3LYP) =  -100.843457123     a.u. after   14 cycles

 Alpha  occ. eigenvalues --  -24.64570  -1.10706  -0.44337  -0.37510  -0.36647
 Alpha  occ. eigenvalues --   -0.36647
 Alpha virt. eigenvalues --   -0.12267   0.23026   0.28192   0.94590   0.94590
 Alpha virt. eigenvalues --    0.96918   1.04998   1.19841   1.19841   1.32735
 Alpha virt. eigenvalues --    1.33959   1.33959   1.73513   2.10722   2.28357

  Beta  occ. eigenvalues --  -24.63318  -1.07332  -0.40450  -0.35443  -0.35443
  Beta virt. eigenvalues --   -0.19497  -0.08786   0.25554   0.31571   0.94381
  Beta virt. eigenvalues --    0.94381   0.99793   1.07562   1.27952   1.27952
  Beta virt. eigenvalues --    1.36563   1.36563   1.44103   1.73063   2.14111

 Mulliken charges and spin densities:
               1          2
     1  H    0.267768  -0.301825
     2  H    0.052170   0.908861
     3  F   -0.319938   0.392964
 Sum of Mulliken charges =   0.00000   1.00000

 Dipole moment (field-independent basis, Debye):
    X=             -2.9939    Y=              0.0000    Z=              0.0000  Tot=              2.9939
 Quadrupole moment (field-independent basis, Debye-Ang):
   XX=             -8.8255   YY=             -7.3637   ZZ=             -7.3637
   XY=             -0.0000   XZ=             -0.0000   YZ=              0.0000

  Exact polarizability:      35.650       0.000       2.188       0.000       0.000       2.188
 Approx polarizability:      48.163       0.000       2.108       0.000      -0.000       2.108

 ******    2 imaginary frequencies (negative Signs) ******

                      1                      2                      3
                      A                      A                      A
 Frequencies --  -2092.8686              -513.6632               900.2018
 Red. masses --      1.0352                 1.0772                 1.0205
 Frc consts  --      2.6716                 0.1675                 0.4872
 IR Inten    --     40.5549                 4.2725                48.8973

                      4
                      A
 Frequencies --    900.2018
 Red. masses --      1.0205
 Frc consts  --      0.4872
 IR Inten    --     48.8973

 - Thermochemistry -
 -------------------
 Temperature   298.150 Kelvin.  Pressure   1.00000 Atm.
 Atom     1 has atomic number  1 and mass   1.00783

 Molecular mass:    21.01405 amu.
 Principal axes and moments of inertia in atomic units:
                           1         2         3
     Eigenvalues --     0.00000  49.99200  49.99200
           X            1.00000  -0.00000   0.00000
           Y            0.00000   1.00000   0.00000
           Z            0.00000   0.00000   1.00000
 This molecule is a prolate symmetric top.
 Rotational symmetry number  1.
 Rotational temperature (Kelvin)      1.73256
 Rotational constant (GHZ):          36.100600
    2 imaginary frequencies ignored.
 Zero-point vibrational energy      10768.8 (Joules/Mol)
                                    2.57381 (Kcal/Mol)
 Vibrational temperatures:   1295.19  1295.19
          (Kelvin)

 Zero-point correction=                           0.004102 (Hartree/Particle)
 Thermal correction to Energy=                    0.006570
 Thermal correction to Enthalpy=                  0.007514
 Thermal correction to Gibbs Free Energy=        -0.015740
 Sum of electronic and zero-point Energies=           -100.839356
 Sum of electronic and thermal Energies=              -100.836887
 Sum of electronic and thermal Enthalpies=            -100.835943
 Sum of electronic and thermal Free Energies=         -100.859197

                     E (Thermal)             CV                S
                      KCal/Mol        Cal/Mol-Kelvin    Cal/Mol-Kelvin
 Total                    4.123              5.968             48.942
 Electronic               0.000              0.000              1.377
 Translational            0.889              2.981             35.068
 Rotational               0.592              1.987             12.217
 Vibrational              2.642              1.000              0.279

 Normal termination of Gaussian 16 at Fri Aug 22 16:31:07 2025.
