 Gaussian 16, Revision C.01,
 Gaussian 16:  ES64L-G16RevC.01  3-Jul-2019

 -----------------------------------------
 # sp b3lyp/6-311g** Force nosymm scf=(qc)
 -----------------------------------------

 -------------------
 Title Card Required
 -------------------
 Symbolic Z-matrix:
 Charge =  0 Multiplicity = 2

                          Input orientation:
 ---------------------------------------------------------------------
 Center     Atomic      Atomic             Coordinates (Angstroms)
 Number     Number       Type             X           Y           Z
 ---------------------------------------------------------------------
      1          1           0        0.000000    0.000000    0.000000
      2          1           0       -1.850000    0.000000    0.000000
      3          9           0        1.450000    0.000000    0.000000
 ---------------------------------------------------------------------

 SCF Done:  E(UB3LYP) =  -100.873199088     a.u. after   11 cycles

 Alpha  occ. eigenvalues --  -24.63706  -1.10039  -0.45072  -0.37524  -0.36115
 Alpha  occ. eigenvalues --   -0.36115
 Alpha virt. eigenvalues --   -0.09427   0.22576   0.27692   0.94048   0.94048
 Alpha virt. eigenvalues --    1.00280   1.04413   1.19081   1.19081   1.34769
 Alpha virt. eigenvalues --    1.34769   1.39903   1.72772   2.11403   2.30562

  Beta  occ. eigenvalues --  -24.63011  -1.08210  -0.42338  -0.35459  -0.35459
  Beta virt. eigenvalues --   -0.18753  -0.05486   0.26046   0.31420   0.93925
  Beta virt. eigenvalues --    0.93925   1.04238   1.07105   1.30059   1.30059
  Beta virt. eigenvalues --    1.37717   1.37717   1.49375   1.74163   2.18077

 Mulliken charges and spin densities:
               1          2
     1  H    0.302500  -0.129028
     2  H    0.053130   0.913087
     3  F   -0.355631   0.215941
 Sum of Mulliken charges =   0.00000   1.00000

 Dipole moment (field-independent basis, Debye):
    X=             -3.0295    Y=             -0.0000    Z=              0.0000  Tot=              3.0295
 Quadrupole moment (field-independent basis, Debye-Ang):
   XX=             -8.6051   YY=             -7.2485   ZZ=             -7.2485
   XY=             -0.0000   XZ=              0.0000   YZ=             -0.0000

  Exact polarizability:      27.758      -0.000       2.268       0.000      -0.000       2.268
 Approx polarizability:      38.700      -0.000       2.206       0.000       0.000       2.206

 ******    2 imaginary frequencies (negative Signs) ******

                      1                      2                      3
                      A                      A                      A
 Frequencies --  -1929.8065              -385.6267              1022.7225
 Red. masses --      1.0311                 1.0816                 1.0212
 Frc consts  --      2.2625                 0.0948                 0.6293
 IR Inten    --     36.9368                 0.4962                64.1518

                      4
                      A
 Frequencies --   1022.7225
 Red. masses --      1.0212
 Frc consts  --      0.6293
 IR Inten    --     64.1518

 - Thermochemistry -
 -------------------
 Temperature   298.150 Kelvin.  Pressure   1.00000 Atm.
 Atom     1 has atomic number  1 and mass   1.00783

 Molecular mass:    21.01405 amu.
 Principal axes and moments of inertia in atomic units:
                           1         2         3
     Eigenvalues --     0.00000  42.86567  42.86567
           X            1.00000  -0.00000   0.00000
           Y            0.00000   1.00000   0.00000
           Z            0.00000   0.00000   1.00000
 This molecule is a prolate symmetric top.
 Rotational symmetry number  1.
 Rotational temperature (Kelvin)      2.02059
 Rotational constant (GHZ):          42.102246
    2 imaginary frequencies ignored.
 Zero-point vibrational energy      12234.5 (Joules/Mol)
                                    2.92411 (Kcal/Mol)
 Vibrational temperatures:   1471.47  1471.47
          (Kelvin)

 Zero-point correction=                           0.004660 (Hartree/Particle)
 Thermal correction to Energy=                    0.007088
 Thermal correction to Enthalpy=                  0.008032
 Thermal correction to Gibbs Free Energy=        -0.015025
 Sum of electronic and zero-point Energies=           -100.868539
 Sum of electronic and thermal Energies=              -100.866111
 Sum of electronic and thermal Enthalpies=            -100.865167
 Sum of electronic and thermal Free Energies=         -100.888224

                     E (Thermal)             CV                S
                      KCal/Mol        Cal/Mol-Kelvin    Cal/Mol-Kelvin
 Total                    4.448              5.674             48.528
 Electronic               0.000              0.000              1.377
 Translational            0.889              2.981             35.068
 Rotational               0.592              1.987             11.912
 Vibrational              2.966              0.706              0.171

 Normal termination of Gaussian 16 at Fri Aug 22 16:22:41 2025.
