 Gaussian 16, Revision C.01,
 Gaussian 16:  ES64L-G16RevC.01  3-Jul-2019

 -----------------------------------------
 # sp b3lyp/6-311g** Force nosymm scf=(qc)
 -----------------------------------------

 -------------------
 Title Card Required
 -------------------
 Symbolic Z-matrix:
 Charge =  0 Multiplicity = 2

                          Input orientation:
 ---------------------------------------------------------------------
 Center     Atomic      Atomic             Coordinates (Angstroms)
 Number     Number       Type             X           Y           Z
 ---------------------------------------------------------------------
      1          1           0        0.000000    0.000000    0.000000
      2          1           0       -1.250000    0.000000    0.000000
      3          9           0        2.000000    0.000000    0.000000
 ---------------------------------------------------------------------

 SCF Done:  E(UB3LYP) =  -100.870411825     a.u. after   13 cycles

 Alpha  occ. eigenvalues --  -24.71786  -1.18083  -0.51494  -0.42835  -0.42835
 Alpha  occ. eigenvalues --   -0.38940
 Alpha virt. eigenvalues --   -0.05766   0.21867   0.33172   0.88275   0.92481
 Alpha virt. eigenvalues --    0.92481   1.05427   1.11244   1.11244   1.36208
 Alpha virt. eigenvalues --    1.49128   1.49128   2.02800   2.27019   2.52546

  Beta  occ. eigenvalues --  -24.69026  -1.10282  -0.40097  -0.40097  -0.38586
  Beta virt. eigenvalues --   -0.24630  -0.04083   0.22999   0.33607   0.93679
  Beta virt. eigenvalues --    0.93679   0.94385   1.08636   1.12670   1.12670
  Beta virt. eigenvalues --    1.39650   1.50065   1.50065   2.04477   2.28314

 Mulliken charges and spin densities:
               1          2
     1  H    0.050726  -0.147636
     2  H    0.054053   0.282108
     3  F   -0.104779   0.865527
 Sum of Mulliken charges =  -0.00000   1.00000

 Dipole moment (field-independent basis, Debye):
    X=             -1.3495    Y=              0.0000    Z=             -0.0000  Tot=              1.3495
 Quadrupole moment (field-independent basis, Debye-Ang):
   XX=             -7.0323   YY=             -7.4119   ZZ=             -7.4119
   XY=              0.0000   XZ=             -0.0000   YZ=              0.0000

  Exact polarizability:      43.801       0.000       2.168      -0.000      -0.000       2.168
 Approx polarizability:      64.922      -0.000       2.154       0.000      -0.000       2.154

 ******    2 imaginary frequencies (negative Signs) ******

                      1                      2                      3
                      A                      A                      A
 Frequencies --  -1658.1677              -253.5899              1336.7863
 Red. masses --      1.0154                 1.0995                 1.0133
 Frc consts  --      1.6449                 0.0417                 1.0668
 IR Inten    --   1079.0775                 0.2707                 0.2068

                      4
                      A
 Frequencies --   1336.7863
 Red. masses --      1.0133
 Frc consts  --      1.0668
 IR Inten    --      0.2068

 - Thermochemistry -
 -------------------
 Temperature   298.150 Kelvin.  Pressure   1.00000 Atm.
 Atom     1 has atomic number  1 and mass   1.00783

 Molecular mass:    21.01405 amu.
 Principal axes and moments of inertia in atomic units:
                           1         2         3
     Eigenvalues --     0.00000  47.65308  47.65308
           X            1.00000  -0.00000   0.00000
           Y            0.00000   1.00000   0.00000
           Z            0.00000   0.00000   1.00000
 This molecule is a prolate symmetric top.
 Rotational symmetry number  1.
 Rotational temperature (Kelvin)      1.81759
 Rotational constant (GHZ):          37.872496
    2 imaginary frequencies ignored.
 Zero-point vibrational energy      15991.5 (Joules/Mol)
                                    3.82206 (Kcal/Mol)
 Vibrational temperatures:   1923.34  1923.34
          (Kelvin)

 Zero-point correction=                           0.006091 (Hartree/Particle)
 Thermal correction to Energy=                    0.008471
 Thermal correction to Enthalpy=                  0.009415
 Thermal correction to Gibbs Free Energy=        -0.013683
 Sum of electronic and zero-point Energies=           -100.864321
 Sum of electronic and thermal Energies=              -100.861941
 Sum of electronic and thermal Enthalpies=            -100.860997
 Sum of electronic and thermal Free Energies=         -100.884095

                     E (Thermal)             CV                S
                      KCal/Mol        Cal/Mol-Kelvin    Cal/Mol-Kelvin
 Total                    5.315              5.230             48.614
 Electronic               0.000              0.000              1.377
 Translational            0.889              2.981             35.068
 Rotational               0.592              1.987             12.122
 Vibrational              3.834              0.262              0.047

 Normal termination of Gaussian 16 at Fri Aug 22 16:55:48 2025.
