 Gaussian 16, Revision C.01,
 Gaussian 16:  ES64L-G16RevC.01  3-Jul-2019

 -----------------------------------------
 # sp b3lyp/6-311g** Force nosymm scf=(qc)
 -----------------------------------------

 -------------------
 Title Card Required
 -------------------
 Symbolic Z-matrix:
 Charge =  0 Multiplicity = 2

                          Input orientation:
 ---------------------------------------------------------------------
 Center     Atomic      Atomic             Coordinates (Angstroms)
 Number     Number       Type             X           Y           Z
 ---------------------------------------------------------------------
      1          1           0        0.000000    0.000000    0.000000
      2          1           0       -1.150000    0.000000    0.000000
      3          9           0        3.400000    0.000000    0.000000
 ---------------------------------------------------------------------

 SCF Done:  E(UB3LYP) =  -100.880952140     a.u. after  315 cycles

 Alpha  occ. eigenvalues --  -24.76426  -1.22287  -0.55485  -0.46687  -0.46638
 Alpha  occ. eigenvalues --   -0.36854
 Alpha virt. eigenvalues --   -0.02923   0.22516   0.35190   0.85926   0.90801
 Alpha virt. eigenvalues --    0.92528   1.01753   1.11837   1.11841   1.25928
 Alpha virt. eigenvalues --    1.57137   1.57141   2.12443   2.33240   2.55185

  Beta  occ. eigenvalues --  -24.73268  -1.13208  -0.43524  -0.43472  -0.36849
  Beta virt. eigenvalues --   -0.26123  -0.02916   0.22527   0.35233   0.92301
  Beta virt. eigenvalues --    0.94054   0.95389   1.05819   1.11837   1.11840
  Beta virt. eigenvalues --    1.25937   1.57137   1.57141   2.12451   2.33242

 Mulliken charges and spin densities:
               1          2
     1  H   -0.000332  -0.000252
     2  H   -0.003564  -0.000212
     3  F    0.003896   1.000464
 Sum of Mulliken charges =   0.00000   1.00000

 Dipole moment (field-independent basis, Debye):
    X=              0.0568    Y=              0.0000    Z=              0.0000  Tot=              0.0568
 Quadrupole moment (field-independent basis, Debye-Ang):
   XX=             -6.2345   YY=             -6.7044   ZZ=             -7.3220
   XY=              0.0000   XZ=             -0.0000   YZ=             -0.3022

  Exact polarizability:      15.109       0.000       2.476      -0.000      -0.162       2.144
 Approx polarizability:      21.856       0.000       2.610      -0.000      -0.203       2.194

 ******    1 imaginary frequencies (negative Signs) ******

                      1                      2                      3
                      A                      A                      A
 Frequencies --    -19.8403               584.4418              1502.6416
 Red. masses --      1.1085                 1.0078                 1.0099
 Frc consts  --      0.0003                 0.2028                 1.3435
 IR Inten    --      0.1985                 0.2392                 0.0007

                      4
                      A
 Frequencies --   1503.6234
 Red. masses --      1.0099
 Frc consts  --      1.3453
 IR Inten    --      0.0007

 - Thermochemistry -
 -------------------
 Temperature   298.150 Kelvin.  Pressure   1.00000 Atm.
 Atom     1 has atomic number  1 and mass   1.00783

 Molecular mass:    21.01405 amu.
 Principal axes and moments of inertia in atomic units:
                           1         2         3
     Eigenvalues --     0.00000 105.20382 105.20382
           X            1.00000  -0.00000   0.00000
           Y            0.00000   1.00000   0.00000
           Z            0.00000   0.00000   1.00000
 This molecule is a prolate symmetric top.
 Rotational symmetry number  1.
 Rotational temperature (Kelvin)      0.82330
 Rotational constant (GHZ):          17.154711
    1 imaginary frequencies ignored.
 Zero-point vibrational energy      21477.2 (Joules/Mol)
                                    5.13317 (Kcal/Mol)
 Warning -- explicit consideration of   1 degrees of freedom as
           vibrations may cause significant error
 Vibrational temperatures:    840.88  2161.97  2163.38
          (Kelvin)

 Zero-point correction=                           0.008180 (Hartree/Particle)
 Thermal correction to Energy=                    0.010719
 Thermal correction to Enthalpy=                  0.011663
 Thermal correction to Gibbs Free Energy=        -0.012398
 Sum of electronic and zero-point Energies=           -100.872772
 Sum of electronic and thermal Energies=              -100.870233
 Sum of electronic and thermal Enthalpies=            -100.869289
 Sum of electronic and thermal Free Energies=         -100.893350

                     E (Thermal)             CV                S
                      KCal/Mol        Cal/Mol-Kelvin    Cal/Mol-Kelvin
 Total                    6.726              6.181             50.642
 Electronic               0.000              0.000              1.377
 Translational            0.889              2.981             35.068
 Rotational               0.592              1.987             13.696
 Vibrational              5.245              1.213              0.500
 Vibration     1          0.941              1.065              0.477

 Normal termination of Gaussian 16 at Fri Aug 22 21:11:27 2025.
