 Gaussian 16, Revision C.01,
 Gaussian 16:  ES64L-G16RevC.01  3-Jul-2019

 -----------------------------------------
 # sp b3lyp/6-311g** Force nosymm scf=(qc)
 -----------------------------------------

 -------------------
 Title Card Required
 -------------------
 Symbolic Z-matrix:
 Charge =  0 Multiplicity = 2

                          Input orientation:
 ---------------------------------------------------------------------
 Center     Atomic      Atomic             Coordinates (Angstroms)
 Number     Number       Type             X           Y           Z
 ---------------------------------------------------------------------
      1          1           0        0.000000    0.000000    0.000000
      2          1           0       -2.100000    0.000000    0.000000
      3          9           0        1.200000    0.000000    0.000000
 ---------------------------------------------------------------------

 SCF Done:  E(UB3LYP) =  -100.927390492     a.u. after    6 cycles

 Alpha  occ. eigenvalues --  -24.63843  -1.11932  -0.47775  -0.37117  -0.37117
 Alpha  occ. eigenvalues --   -0.36329
 Alpha virt. eigenvalues --   -0.03526   0.24103   0.28723   0.93574   0.93574
 Alpha virt. eigenvalues --    1.00951   1.14379   1.21044   1.21044   1.35208
 Alpha virt. eigenvalues --    1.35208   1.41852   1.72475   2.12387   2.31128

  Beta  occ. eigenvalues --  -24.63720  -1.11619  -0.47154  -0.37005  -0.37005
  Beta virt. eigenvalues --   -0.13850  -0.00432   0.28565   0.34578   0.93570
  Beta virt. eigenvalues --    0.93570   1.01314   1.22443   1.34627   1.34627
  Beta virt. eigenvalues --    1.40848   1.40848   1.52344   1.72822   2.27107

 Mulliken charges and spin densities:
               1          2
     1  H    0.336484  -0.006013
     2  H    0.022396   0.969048
     3  F   -0.358881   0.036966
 Sum of Mulliken charges =  -0.00000   1.00000

 Dipole moment (field-independent basis, Debye):
    X=             -2.5407    Y=              0.0000    Z=              0.0000  Tot=              2.5407
 Quadrupole moment (field-independent basis, Debye-Ang):
   XX=             -8.3079   YY=             -7.0990   ZZ=             -7.0990
   XY=              0.0000   XZ=              0.0000   YZ=             -0.0000

  Exact polarizability:      15.010       0.000       2.371      -0.000       0.000       2.371
 Approx polarizability:      18.629       0.000       2.333       0.000       0.000       2.333

 ******    1 imaginary frequencies (negative Signs) ******

                      1                      2                      3
                      A                      A                      A
 Frequencies --   -346.6528               815.7482              1163.9390
 Red. masses --      1.0288                 1.0841                 1.0259
 Frc consts  --      0.0728                 0.4251                 0.8189
 IR Inten    --     36.8632               160.7778               114.3904

                      4
                      A
 Frequencies --   1163.9390
 Red. masses --      1.0259
 Frc consts  --      0.8189
 IR Inten    --    114.3904

 - Thermochemistry -
 -------------------
 Temperature   298.150 Kelvin.  Pressure   1.00000 Atm.
 Atom     1 has atomic number  1 and mass   1.00783

 Molecular mass:    21.01405 amu.
 Principal axes and moments of inertia in atomic units:
                           1         2         3
     Eigenvalues --     0.00000  40.88049  40.88049
           X            1.00000  -0.00000   0.00000
           Y            0.00000   1.00000   0.00000
           Z            0.00000   0.00000   1.00000
 This molecule is a prolate symmetric top.
 Rotational symmetry number  1.
 Rotational temperature (Kelvin)      2.11871
 Rotational constant (GHZ):          44.146766
    1 imaginary frequencies ignored.
 Zero-point vibrational energy      18803.1 (Joules/Mol)
                                    4.49404 (Kcal/Mol)
 Vibrational temperatures:   1173.68  1674.65  1674.65
          (Kelvin)

 Zero-point correction=                           0.007162 (Hartree/Particle)
 Thermal correction to Energy=                    0.009635
 Thermal correction to Enthalpy=                  0.010579
 Thermal correction to Gibbs Free Energy=        -0.012490
 Sum of electronic and zero-point Energies=           -100.920229
 Sum of electronic and thermal Energies=              -100.917756
 Sum of electronic and thermal Enthalpies=            -100.916811
 Sum of electronic and thermal Free Energies=         -100.939881

                     E (Thermal)             CV                S
                      KCal/Mol        Cal/Mol-Kelvin    Cal/Mol-Kelvin
 Total                    6.046              6.052             48.554
 Electronic               0.000              0.000              1.377
 Translational            0.889              2.981             35.068
 Rotational               0.592              1.987             11.817
 Vibrational              4.565              1.084              0.291

 Normal termination of Gaussian 16 at Fri Aug 22 16:10:13 2025.
