 Gaussian 16, Revision C.01,
 Gaussian 16:  ES64L-G16RevC.01  3-Jul-2019

 -----------------------------------------
 # sp b3lyp/6-311g** Force nosymm scf=(qc)
 -----------------------------------------

 -------------------
 Title Card Required
 -------------------
 Symbolic Z-matrix:
 Charge =  0 Multiplicity = 2

                          Input orientation:
 ---------------------------------------------------------------------
 Center     Atomic      Atomic             Coordinates (Angstroms)
 Number     Number       Type             X           Y           Z
 ---------------------------------------------------------------------
      1          1           0        0.000000    0.000000    0.000000
      2          1           0       -2.950000    0.000000    0.000000
      3          9           0        2.450000    0.000000    0.000000
 ---------------------------------------------------------------------

 SCF Done:  E(UB3LYP) =  -100.769584963     a.u. after   17 cycles

 Alpha  occ. eigenvalues --  -24.71445  -1.17675  -0.50541  -0.42461  -0.42461
 Alpha  occ. eigenvalues --   -0.33307
 Alpha virt. eigenvalues --   -0.11179   0.24087   0.34178   0.89687   0.93771
 Alpha virt. eigenvalues --    0.93771   1.06522   1.24241   1.24241   1.25299
 Alpha virt. eigenvalues --    1.39603   1.39603   1.44780   2.15017   2.34414

  Beta  occ. eigenvalues --  -24.68631  -1.09676  -0.39658  -0.39658  -0.35561
  Beta virt. eigenvalues --   -0.23157  -0.08045   0.24761   0.36521   0.95109
  Beta virt. eigenvalues --    0.95109   0.95804   1.08878   1.22007   1.22007
  Beta virt. eigenvalues --    1.31291   1.44268   1.44268   1.44447   2.13699

 Mulliken charges and spin densities:
               1          2
     1  H    0.093648  -0.880031
     2  H    0.003841   0.991418
     3  F   -0.097489   0.888613
 Sum of Mulliken charges =  -0.00000   1.00000

 Dipole moment (field-independent basis, Debye):
    X=             -1.2670    Y=             -0.0000    Z=              0.0000  Tot=              1.2670
 Quadrupole moment (field-independent basis, Debye-Ang):
   XX=             -9.2197   YY=             -7.5791   ZZ=             -7.5791
   XY=             -0.0000   XZ=              0.0000   YZ=              0.0000

  Exact polarizability:      34.551      -0.000       2.023       0.000       0.000       2.023
 Approx polarizability:      41.615      -0.000       1.919       0.000      -0.000       1.919

 ******    2 imaginary frequencies (negative Signs) ******

                      1                      2                      3
                      A                      A                      A
 Frequencies --   -690.1680              -227.5506               274.0349
 Red. masses --      1.0442                 1.0676                 1.0203
 Frc consts  --      0.2931                 0.0326                 0.0451
 IR Inten    --     79.2175                 3.8012                 7.9578

                      4
                      A
 Frequencies --    274.0349
 Red. masses --      1.0203
 Frc consts  --      0.0451
 IR Inten    --      7.9578

 - Thermochemistry -
 -------------------
 Temperature   298.150 Kelvin.  Pressure   1.00000 Atm.
 Atom     1 has atomic number  1 and mass   1.00783

 Molecular mass:    21.01405 amu.
 Principal axes and moments of inertia in atomic units:
                           1         2         3
     Eigenvalues --     0.00000 115.91367 115.91367
           X            1.00000  -0.00000   0.00000
           Y            0.00000   1.00000   0.00000
           Z            0.00000   0.00000   1.00000
 This molecule is a prolate symmetric top.
 Rotational symmetry number  1.
 Rotational temperature (Kelvin)      0.74723
 Rotational constant (GHZ):          15.569701
    2 imaginary frequencies ignored.
 Zero-point vibrational energy       3278.2 (Joules/Mol)
                                    0.78351 (Kcal/Mol)
 Warning -- explicit consideration of   2 degrees of freedom as
           vibrations may cause significant error
 Vibrational temperatures:    394.28   394.28
          (Kelvin)

 Zero-point correction=                           0.001249 (Hartree/Particle)
 Thermal correction to Energy=                    0.004516
 Thermal correction to Enthalpy=                  0.005461
 Thermal correction to Gibbs Free Energy=        -0.019947
 Sum of electronic and zero-point Energies=           -100.768336
 Sum of electronic and thermal Energies=              -100.765069
 Sum of electronic and thermal Enthalpies=            -100.764124
 Sum of electronic and thermal Free Energies=         -100.789532

                     E (Thermal)             CV                S
                      KCal/Mol        Cal/Mol-Kelvin    Cal/Mol-Kelvin
 Total                    2.834              8.411             53.475
 Electronic               0.000              0.000              1.377
 Translational            0.889              2.981             35.068
 Rotational               0.592              1.987             13.889
 Vibrational              1.353              3.443              3.141
 Vibration     1          0.676              1.721              1.571
 Vibration     2          0.676              1.721              1.571

 Normal termination of Gaussian 16 at Fri Aug 22 17:39:15 2025.
