 Gaussian 16, Revision C.01,
 Gaussian 16:  ES64L-G16RevC.01  3-Jul-2019

 -----------------------------------------
 # sp b3lyp/6-311g** Force nosymm scf=(qc)
 -----------------------------------------

 -------------------
 Title Card Required
 -------------------
 Symbolic Z-matrix:
 Charge =  0 Multiplicity = 2

                          Input orientation:
 ---------------------------------------------------------------------
 Center     Atomic      Atomic             Coordinates (Angstroms)
 Number     Number       Type             X           Y           Z
 ---------------------------------------------------------------------
      1          1           0        0.000000    0.000000    0.000000
      2          1           0       -0.750000    0.000000    0.000000
      3          9           0        2.900000    0.000000    0.000000
 ---------------------------------------------------------------------

 SCF Done:  E(UB3LYP) =  -100.934461174     a.u. after  173 cycles

 Alpha  occ. eigenvalues --  -24.76673  -1.22470  -0.55660  -0.46963  -0.46809
 Alpha  occ. eigenvalues --   -0.42928
 Alpha virt. eigenvalues --    0.06204   0.20052   0.47214   0.85814   0.90686
 Alpha virt. eigenvalues --    0.93875   1.07063   1.08681   1.08689   1.55504
 Alpha virt. eigenvalues --    1.82538   1.82548   1.98638   2.39022   3.28394

  Beta  occ. eigenvalues --  -24.73511  -1.13381  -0.44040  -0.43638  -0.42676
  Beta virt. eigenvalues --   -0.26279   0.06255   0.20087   0.47322   0.92184
  Beta virt. eigenvalues --    0.95270   0.95750   1.08681   1.08688   1.10665
  Beta virt. eigenvalues --    1.55516   1.82537   1.82547   1.98667   2.39030

 Mulliken charges and spin densities:
               1          2
     1  H   -0.006293  -0.001351
     2  H   -0.004363  -0.000105
     3  F    0.010657   1.001457
 Sum of Mulliken charges =   0.00000   1.00000

 Dipole moment (field-independent basis, Debye):
    X=              0.1047    Y=             -0.0000    Z=             -0.0000  Tot=              0.1047
 Quadrupole moment (field-independent basis, Debye-Ang):
   XX=             -6.0573   YY=             -6.7727   ZZ=             -6.2855
   XY=              0.0000   XZ=              0.0000   YZ=              0.3564

  Exact polarizability:       8.729      -0.000       2.065       0.000       0.189       2.324
 Approx polarizability:       9.923       0.000       2.168       0.000       0.238       2.493

                      1                      2                      3
                      A                      A                      A
 Frequencies --     76.3890               434.0277               439.4745
 Red. masses --      1.1085                 1.0091                 1.0091
 Frc consts  --      0.0038                 0.1120                 0.1148
 IR Inten    --      0.2886                 0.0131                 0.0120

                      4
                      A
 Frequencies --   4338.1527
 Red. masses --      1.0078
 Frc consts  --     11.1749
 IR Inten    --      0.6397

 - Thermochemistry -
 -------------------
 Temperature   298.150 Kelvin.  Pressure   1.00000 Atm.
 Atom     1 has atomic number  1 and mass   1.00783

 Molecular mass:    21.01405 amu.
 Principal axes and moments of inertia in atomic units:
                           1         2         3
     Eigenvalues --     0.00000  70.81018  70.81018
           X            1.00000  -0.00000   0.00000
           Y            0.00000   1.00000   0.00000
           Z            0.00000   0.00000   1.00000
 This molecule is a prolate symmetric top.
 Rotational symmetry number  1.
 Rotational temperature (Kelvin)      1.22318
 Rotational constant (GHZ):          25.487029
 Zero-point vibrational energy      31629.5 (Joules/Mol)
                                    7.55964 (Kcal/Mol)
 Warning -- explicit consideration of   3 degrees of freedom as
           vibrations may cause significant error
 Vibrational temperatures:    109.91   624.47   632.31  6241.63
          (Kelvin)

 Zero-point correction=                           0.012047 (Hartree/Particle)
 Thermal correction to Energy=                    0.015739
 Thermal correction to Enthalpy=                  0.016683
 Thermal correction to Gibbs Free Energy=        -0.009454
 Sum of electronic and zero-point Energies=           -100.922414
 Sum of electronic and thermal Energies=              -100.918722
 Sum of electronic and thermal Enthalpies=            -100.917778
 Sum of electronic and thermal Free Energies=         -100.943915

                     E (Thermal)             CV                S
                      KCal/Mol        Cal/Mol-Kelvin    Cal/Mol-Kelvin
 Total                    9.876              9.713             55.010
 Electronic               0.000              0.000              1.377
 Translational            0.889              2.981             35.068
 Rotational               0.592              1.987             12.909
 Vibrational              8.395              4.745              5.655
 Vibration     1          0.599              1.965              3.982
 Vibration     2          0.795              1.396              0.846
 Vibration     3          0.800              1.384              0.828

 Normal termination of Gaussian 16 at Fri Aug 22 18:57:25 2025.
