 Gaussian 16, Revision C.01,
 Gaussian 16:  ES64L-G16RevC.01  3-Jul-2019

 -----------------------------------------
 # sp b3lyp/6-311g** Force nosymm scf=(qc)
 -----------------------------------------

 -------------------
 Title Card Required
 -------------------
 Symbolic Z-matrix:
 Charge =  0 Multiplicity = 2

                          Input orientation:
 ---------------------------------------------------------------------
 Center     Atomic      Atomic             Coordinates (Angstroms)
 Number     Number       Type             X           Y           Z
 ---------------------------------------------------------------------
      1          1           0        0.000000    0.000000    0.000000
      2          1           0       -1.400000    0.000000    0.000000
      3          9           0        3.150000    0.000000    0.000000
 ---------------------------------------------------------------------

 SCF Done:  E(UB3LYP) =  -100.836919501     a.u. after  338 cycles

 Alpha  occ. eigenvalues --  -24.76596  -1.22438  -0.55631  -0.46859  -0.46782
 Alpha  occ. eigenvalues --   -0.34273
 Alpha virt. eigenvalues --   -0.07990   0.24351   0.31507   0.85805   0.90679
 Alpha virt. eigenvalues --    0.92894   1.02503   1.10815   1.18005   1.18010
 Alpha virt. eigenvalues --    1.45203   1.45208   1.90596   2.25915   2.50617

  Beta  occ. eigenvalues --  -24.73437  -1.13356  -0.43695  -0.43615  -0.34266
  Beta virt. eigenvalues --   -0.26262  -0.07981   0.24368   0.31563   0.92178
  Beta virt. eigenvalues --    0.94478   0.95265   1.06489   1.10826   1.18004
  Beta virt. eigenvalues --    1.18009   1.45202   1.45207   1.90604   2.25917

 Mulliken charges and spin densities:
               1          2
     1  H   -0.000342   0.000839
     2  H   -0.005414  -0.001585
     3  F    0.005756   1.000746
 Sum of Mulliken charges =   0.00000   1.00000

 Dipole moment (field-independent basis, Debye):
    X=              0.0888    Y=              0.0000    Z=             -0.0000  Tot=              0.0888
 Quadrupole moment (field-independent basis, Debye-Ang):
   XX=             -6.1784   YY=             -7.0111   ZZ=             -7.5004
   XY=             -0.0000   XZ=              0.0000   YZ=             -0.3560

  Exact polarizability:      20.834      -0.000       2.422      -0.000      -0.191       2.160
 Approx polarizability:      36.373      -0.000       2.521       0.000      -0.239       2.192

 ******    1 imaginary frequencies (negative Signs) ******

                      1                      2                      3
                      A                      A                      A
 Frequencies --  -1166.4372                38.7792              1307.6971
 Red. masses --      1.0078                 1.1085                 1.0111
 Frc consts  --      0.8079                 0.0010                 1.0187
 IR Inten    --      0.7054                 0.4638                 0.0044

                      4
                      A
 Frequencies --   1309.1801
 Red. masses --      1.0111
 Frc consts  --      1.0210
 IR Inten    --      0.0038

 - Thermochemistry -
 -------------------
 Temperature   298.150 Kelvin.  Pressure   1.00000 Atm.
 Atom     1 has atomic number  1 and mass   1.00783

 Molecular mass:    21.01405 amu.
 Principal axes and moments of inertia in atomic units:
                           1         2         3
     Eigenvalues --     0.00000  99.98577  99.98577
           X            1.00000  -0.00000   0.00000
           Y            0.00000   1.00000   0.00000
           Z            0.00000   0.00000   1.00000
 This molecule is a prolate symmetric top.
 Rotational symmetry number  1.
 Rotational temperature (Kelvin)      0.86626
 Rotational constant (GHZ):          18.049980
    1 imaginary frequencies ignored.
 Zero-point vibrational energy      15884.4 (Joules/Mol)
                                    3.79645 (Kcal/Mol)
 Warning -- explicit consideration of   1 degrees of freedom as
           vibrations may cause significant error
 Vibrational temperatures:     55.79  1881.48  1883.62
          (Kelvin)

 Zero-point correction=                           0.006050 (Hartree/Particle)
 Thermal correction to Energy=                    0.009291
 Thermal correction to Enthalpy=                  0.010235
 Thermal correction to Gibbs Free Energy=        -0.016094
 Sum of electronic and zero-point Energies=           -100.830869
 Sum of electronic and thermal Energies=              -100.827629
 Sum of electronic and thermal Enthalpies=            -100.826685
 Sum of electronic and thermal Free Energies=         -100.853013

                     E (Thermal)             CV                S
                      KCal/Mol        Cal/Mol-Kelvin    Cal/Mol-Kelvin
 Total                    5.830              7.237             55.413
 Electronic               0.000              0.000              1.377
 Translational            0.889              2.981             35.068
 Rotational               0.592              1.987             13.595
 Vibrational              4.349              2.269              5.373
 Vibration     1          0.594              1.981              5.320

 Normal termination of Gaussian 16 at Fri Aug 22 20:07:50 2025.
