 Gaussian 16, Revision C.01,
 Gaussian 16:  ES64L-G16RevC.01  3-Jul-2019

 -----------------------------------------
 # sp b3lyp/6-311g** Force nosymm scf=(qc)
 -----------------------------------------

 -------------------
 Title Card Required
 -------------------
 Symbolic Z-matrix:
 Charge =  0 Multiplicity = 2

                          Input orientation:
 ---------------------------------------------------------------------
 Center     Atomic      Atomic             Coordinates (Angstroms)
 Number     Number       Type             X           Y           Z
 ---------------------------------------------------------------------
      1          1           0        0.000000    0.000000    0.000000
      2          1           0       -0.500000    0.000000    0.000000
      3          9           0        3.050000    0.000000    0.000000
 ---------------------------------------------------------------------

 SCF Done:  E(UB3LYP) =  -100.862155074     a.u. after  449 cycles

 Alpha  occ. eigenvalues --  -24.76536  -1.22338  -0.55534  -0.49221  -0.46683
 Alpha  occ. eigenvalues --   -0.46678
 Alpha virt. eigenvalues --    0.10319   0.18463   0.56269   0.85928   0.90801
 Alpha virt. eigenvalues --    0.94020   1.06992   1.12165   1.12173   1.61998
 Alpha virt. eigenvalues --    1.86238   1.99699   1.99708   2.36711   3.64726

  Beta  occ. eigenvalues --  -24.73375  -1.13250  -0.49191  -0.43535  -0.43513
  Beta virt. eigenvalues --   -0.26156   0.10380   0.18497   0.56396   0.92299
  Beta virt. eigenvalues --    0.95386   0.95896   1.10550   1.12165   1.12172
  Beta virt. eigenvalues --    1.62026   1.86276   1.99699   1.99708   2.36716

 Mulliken charges and spin densities:
               1          2
     1  H   -0.009147  -0.001774
     2  H   -0.000624   0.000451
     3  F    0.009771   1.001323
 Sum of Mulliken charges =   0.00000   1.00000

 Dipole moment (field-independent basis, Debye):
    X=              0.0855    Y=             -0.0000    Z=              0.0000  Tot=              0.0855
 Quadrupole moment (field-independent basis, Debye-Ang):
   XX=             -5.9722   YY=             -6.4004   ZZ=             -5.9269
   XY=             -0.0000   XZ=              0.0000   YZ=             -0.3611

  Exact polarizability:       5.793      -0.000       1.910      -0.000      -0.193       2.163
 Approx polarizability:       6.062      -0.000       2.018       0.000      -0.241       2.334

 ******    2 imaginary frequencies (negative Signs) ******

                      1                      2                      3
                      A                      A                      A
 Frequencies --  -4824.1105             -4823.9126                67.0110
 Red. masses --      1.0084                 1.0084                 1.1085
 Frc consts  --     13.8267                13.8256                 0.0029
 IR Inten    --      0.0654                 0.0652                 0.1410

                      4
                      A
 Frequencies --   9960.4068
 Red. masses --      1.0078
 Frc consts  --     58.9101
 IR Inten    --      0.2252

 - Thermochemistry -
 -------------------
 Temperature   298.150 Kelvin.  Pressure   1.00000 Atm.
 Atom     1 has atomic number  1 and mass   1.00783

 Molecular mass:    21.01405 amu.
 Principal axes and moments of inertia in atomic units:
                           1         2         3
     Eigenvalues --     0.00000  71.31752  71.31752
           X            1.00000  -0.00000   0.00000
           Y            0.00000   1.00000   0.00000
           Z            0.00000   0.00000   1.00000
 This molecule is a prolate symmetric top.
 Rotational symmetry number  1.
 Rotational temperature (Kelvin)      1.21448
 Rotational constant (GHZ):          25.305718
    2 imaginary frequencies ignored.
 Zero-point vibrational energy      59977.3 (Joules/Mol)
                                   14.33491 (Kcal/Mol)
 Warning -- explicit consideration of   1 degrees of freedom as
           vibrations may cause significant error
 Vibrational temperatures:     96.41 14330.80
          (Kelvin)

 Zero-point correction=                           0.022844 (Hartree/Particle)
 Thermal correction to Energy=                    0.026004
 Thermal correction to Enthalpy=                  0.026949
 Thermal correction to Gibbs Free Energy=         0.001478
 Sum of electronic and zero-point Energies=           -100.839311
 Sum of electronic and thermal Energies=              -100.836151
 Sum of electronic and thermal Enthalpies=            -100.835207
 Sum of electronic and thermal Free Energies=         -100.860677

                     E (Thermal)             CV                S
                      KCal/Mol        Cal/Mol-Kelvin    Cal/Mol-Kelvin
 Total                   16.318              6.938             53.608
 Electronic               0.000              0.000              1.377
 Translational            0.889              2.981             35.068
 Rotational               0.592              1.987             12.923
 Vibrational             14.837              1.970              4.239
 Vibration     1          0.598              1.970              4.239

 Normal termination of Gaussian 16 at Fri Aug 22 19:35:05 2025.
