 Gaussian 16, Revision C.01,
 Gaussian 16:  ES64L-G16RevC.01  3-Jul-2019

 -----------------------------------------
 # sp b3lyp/6-311g** Force nosymm scf=(qc)
 -----------------------------------------

 -------------------
 Title Card Required
 -------------------
 Symbolic Z-matrix:
 Charge =  0 Multiplicity = 2

                          Input orientation:
 ---------------------------------------------------------------------
 Center     Atomic      Atomic             Coordinates (Angstroms)
 Number     Number       Type             X           Y           Z
 ---------------------------------------------------------------------
      1          1           0        0.000000    0.000000    0.000000
      2          1           0       -3.700000    0.000000    0.000000
      3          9           0        3.300000    0.000000    0.000000
 ---------------------------------------------------------------------

 SCF Done:  E(UB3LYP) =  -100.759491719     a.u. after   22 cycles

 Alpha  occ. eigenvalues --  -24.74973  -1.20967  -0.54095  -0.45419  -0.45419
 Alpha  occ. eigenvalues --   -0.32374
 Alpha virt. eigenvalues --   -0.07062   0.24084   0.36765   0.88275   0.91736
 Alpha virt. eigenvalues --    0.91736   1.02451   1.25125   1.25125   1.25197
 Alpha virt. eigenvalues --    1.45244   1.45244   1.45540   2.14709   2.41515

  Beta  occ. eigenvalues --  -24.71886  -1.12103  -0.42326  -0.42326  -0.33107
  Beta virt. eigenvalues --   -0.25265  -0.06203   0.23848   0.38087   0.93217
  Beta virt. eigenvalues --    0.93217   0.97265   1.06367   1.24282   1.24282
  Beta virt. eigenvalues --    1.24360   1.46244   1.46443   1.46443   2.14969

 Mulliken charges and spin densities:
               1          2
     1  H    0.019217  -0.977495
     2  H    0.000159   0.998721
     3  F   -0.019376   0.978774
 Sum of Mulliken charges =  -0.00000   1.00000

 Dipole moment (field-independent basis, Debye):
    X=             -0.3314    Y=             -0.0000    Z=              0.0000  Tot=              0.3314
 Quadrupole moment (field-independent basis, Debye-Ang):
   XX=             -7.7441   YY=             -7.6162   ZZ=             -7.6162
   XY=              0.0000   XZ=             -0.0000   YZ=              0.0000

  Exact polarizability:      27.714       0.000       2.031      -0.000       0.000       2.031
 Approx polarizability:      24.169       0.000       1.931      -0.000      -0.000       1.931

 ******    2 imaginary frequencies (negative Signs) ******

                      1                      2                      3
                      A                      A                      A
 Frequencies --   -277.1841               -92.9720                87.5593
 Red. masses --      1.0440                 1.0678                 1.0194
 Frc consts  --      0.0473                 0.0054                 0.0046
 IR Inten    --     20.6542                 0.4540                 0.3417

                      4
                      A
 Frequencies --     87.5593
 Red. masses --      1.0194
 Frc consts  --      0.0046
 IR Inten    --      0.3417

 - Thermochemistry -
 -------------------
 Temperature   298.150 Kelvin.  Pressure   1.00000 Atm.
 Atom     1 has atomic number  1 and mass   1.00783

 Molecular mass:    21.01405 amu.
 Principal axes and moments of inertia in atomic units:
                           1         2         3
     Eigenvalues --     0.00000 197.23275 197.23275
           X            1.00000  -0.00000   0.00000
           Y            0.00000   1.00000   0.00000
           Z            0.00000   0.00000   1.00000
 This molecule is a prolate symmetric top.
 Rotational symmetry number  1.
 Rotational temperature (Kelvin)      0.43915
 Rotational constant (GHZ):           9.150312
    2 imaginary frequencies ignored.
 Zero-point vibrational energy       1047.4 (Joules/Mol)
                                    0.25034 (Kcal/Mol)
 Warning -- explicit consideration of   2 degrees of freedom as
           vibrations may cause significant error
 Vibrational temperatures:    125.98   125.98
          (Kelvin)

 Zero-point correction=                           0.000399 (Hartree/Particle)
 Thermal correction to Energy=                    0.004277
 Thermal correction to Enthalpy=                  0.005221
 Thermal correction to Gibbs Free Energy=        -0.022725
 Sum of electronic and zero-point Energies=           -100.759093
 Sum of electronic and thermal Energies=              -100.755215
 Sum of electronic and thermal Enthalpies=            -100.754271
 Sum of electronic and thermal Free Energies=         -100.782217

                     E (Thermal)             CV                S
                      KCal/Mol        Cal/Mol-Kelvin    Cal/Mol-Kelvin
 Total                    2.684              8.884             58.818
 Electronic               0.000              0.000              1.377
 Translational            0.889              2.981             35.068
 Rotational               0.592              1.987             14.945
 Vibrational              1.203              3.916              7.428
 Vibration     1          0.601              1.958              3.714
 Vibration     2          0.601              1.958              3.714

 Normal termination of Gaussian 16 at Fri Aug 22 20:50:18 2025.
