 Gaussian 16, Revision C.01,
 Gaussian 16:  ES64L-G16RevC.01  3-Jul-2019

 -----------------------------------------
 # sp b3lyp/6-311g** Force nosymm scf=(qc)
 -----------------------------------------

 -------------------
 Title Card Required
 -------------------
 Symbolic Z-matrix:
 Charge =  0 Multiplicity = 2

                          Input orientation:
 ---------------------------------------------------------------------
 Center     Atomic      Atomic             Coordinates (Angstroms)
 Number     Number       Type             X           Y           Z
 ---------------------------------------------------------------------
      1          1           0        0.000000    0.000000    0.000000
      2          1           0       -1.100000    0.000000    0.000000
      3          9           0        1.100000    0.000000    0.000000
 ---------------------------------------------------------------------

 SCF Done:  E(UB3LYP) =  -100.955028264     a.u. after    6 cycles

 Alpha  occ. eigenvalues --  -24.64648  -1.15121  -0.55196  -0.38627  -0.38627
 Alpha  occ. eigenvalues --   -0.37297
 Alpha virt. eigenvalues --    0.09258   0.19107   0.37037   0.90940   0.90940
 Alpha virt. eigenvalues --    0.98680   1.08587   1.08587   1.33127   1.56512
 Alpha virt. eigenvalues --    1.56512   1.59243   2.20003   2.30388   2.64209

  Beta  occ. eigenvalues --  -24.63649  -1.12594  -0.49545  -0.37719  -0.37719
  Beta virt. eigenvalues --   -0.19761   0.11689   0.21947   0.41650   0.92091
  Beta virt. eigenvalues --    0.92091   1.00833   1.14630   1.14630   1.38166
  Beta virt. eigenvalues --    1.60818   1.60818   1.63931   2.26800   2.36220

 Mulliken charges and spin densities:
               1          2
     1  H    0.281625  -0.039826
     2  H    0.037329   0.763492
     3  F   -0.318955   0.276334
 Sum of Mulliken charges =   0.00000   1.00000

 Dipole moment (field-independent basis, Debye):
    X=             -2.2247    Y=              0.0000    Z=             -0.0000  Tot=              2.2247
 Quadrupole moment (field-independent basis, Debye-Ang):
   XX=             -7.7176   YY=             -6.7963   ZZ=             -6.7963
   XY=              0.0000   XZ=             -0.0000   YZ=              0.0000

  Exact polarizability:      17.968       0.000       2.545       0.000      -0.000       2.545
 Approx polarizability:      22.413       0.000       2.552      -0.000      -0.000       2.552

 ******    1 imaginary frequencies (negative Signs) ******

                      1                      2                      3
                      A                      A                      A
 Frequencies --  -1439.1441               881.8282               881.8282
 Red. masses --      1.0132                 1.0179                 1.0179
 Frc consts  --      1.2364                 0.4664                 0.4664
 IR Inten    --     41.2246                48.4594                48.4594

                      4
                      A
 Frequencies --   1304.2548
 Red. masses --      1.1021
 Frc consts  --      1.1046
 IR Inten    --     47.7787

 - Thermochemistry -
 -------------------
 Temperature   298.150 Kelvin.  Pressure   1.00000 Atm.
 Atom     1 has atomic number  1 and mass   1.00783

 Molecular mass:    21.01405 amu.
 Principal axes and moments of inertia in atomic units:
                           1         2         3
     Eigenvalues --     0.00000  19.89431  19.89431
           X            1.00000  -0.00000   0.00000
           Y            0.00000   1.00000   0.00000
           Z            0.00000   0.00000   1.00000
 This molecule is a prolate symmetric top.
 Rotational symmetry number  1.
 Rotational temperature (Kelvin)      4.35370
 Rotational constant (GHZ):          90.716440
    1 imaginary frequencies ignored.
 Zero-point vibrational energy      18350.2 (Joules/Mol)
                                    4.38580 (Kcal/Mol)
 Vibrational temperatures:   1268.75  1268.75  1876.53
          (Kelvin)

 Zero-point correction=                           0.006989 (Hartree/Particle)
 Thermal correction to Energy=                    0.009476
 Thermal correction to Enthalpy=                  0.010421
 Thermal correction to Gibbs Free Energy=        -0.011986
 Sum of electronic and zero-point Energies=           -100.948039
 Sum of electronic and thermal Energies=              -100.945552
 Sum of electronic and thermal Enthalpies=            -100.944608
 Sum of electronic and thermal Free Energies=         -100.967014

                     E (Thermal)             CV                S
                      KCal/Mol        Cal/Mol-Kelvin    Cal/Mol-Kelvin
 Total                    5.946              6.165             47.159
 Electronic               0.000              0.000              1.377
 Translational            0.889              2.981             35.068
 Rotational               0.592              1.987             10.386
 Vibrational              4.465              1.197              0.327

 Normal termination of Gaussian 16 at Fri Aug 22 16:04:42 2025.
