 Gaussian 16, Revision C.01,
 Gaussian 16:  ES64L-G16RevC.01  3-Jul-2019

 -----------------------------------------
 # sp b3lyp/6-311g** Force nosymm scf=(qc)
 -----------------------------------------

 -------------------
 Title Card Required
 -------------------
 Symbolic Z-matrix:
 Charge =  0 Multiplicity = 2

                          Input orientation:
 ---------------------------------------------------------------------
 Center     Atomic      Atomic             Coordinates (Angstroms)
 Number     Number       Type             X           Y           Z
 ---------------------------------------------------------------------
      1          1           0        0.000000    0.000000    0.000000
      2          1           0       -1.900000    0.000000    0.000000
      3          9           0        1.300000    0.000000    0.000000
 ---------------------------------------------------------------------

 SCF Done:  E(UB3LYP) =  -100.905279008     a.u. after    8 cycles

 Alpha  occ. eigenvalues --  -24.63573  -1.10693  -0.46491  -0.37086  -0.36446
 Alpha  occ. eigenvalues --   -0.36446
 Alpha virt. eigenvalues --   -0.05766   0.23068   0.27885   0.93656   0.93656
 Alpha virt. eigenvalues --    1.02222   1.07563   1.19742   1.19742   1.35288
 Alpha virt. eigenvalues --    1.35288   1.44321   1.70361   2.12612   2.31192

  Beta  occ. eigenvalues --  -24.63270  -1.09917  -0.44986  -0.36166  -0.36166
  Beta virt. eigenvalues --   -0.16491  -0.02041   0.27130   0.32654   0.93631
  Beta virt. eigenvalues --    0.93631   1.03086   1.14504   1.32713   1.32713
  Beta virt. eigenvalues --    1.39327   1.39327   1.53444   1.71939   2.23188

 Mulliken charges and spin densities:
               1          2
     1  H    0.327535  -0.034572
     2  H    0.038773   0.942580
     3  F   -0.366308   0.091992
 Sum of Mulliken charges =  -0.00000   1.00000

 Dipole moment (field-independent basis, Debye):
    X=             -2.8023    Y=              0.0000    Z=             -0.0000  Tot=              2.8023
 Quadrupole moment (field-independent basis, Debye-Ang):
   XX=             -8.3919   YY=             -7.1483   ZZ=             -7.1483
   XY=             -0.0000   XZ=             -0.0000   YZ=             -0.0000

  Exact polarizability:      19.870       0.000       2.340      -0.000       0.000       2.340
 Approx polarizability:      26.088      -0.000       2.294       0.000       0.000       2.294

 ******    2 imaginary frequencies (negative Signs) ******

                      1                      2                      3
                      A                      A                      A
 Frequencies --  -1233.5133              -113.3065              1114.9342
 Red. masses --      1.0258                 1.0876                 1.0231
 Frc consts  --      0.9196                 0.0082                 0.7493
 IR Inten    --    209.6413                 5.3870                88.9556

                      4
                      A
 Frequencies --   1114.9342
 Red. masses --      1.0231
 Frc consts  --      0.7493
 IR Inten    --     88.9556

 - Thermochemistry -
 -------------------
 Temperature   298.150 Kelvin.  Pressure   1.00000 Atm.
 Atom     1 has atomic number  1 and mass   1.00783

 Molecular mass:    21.01405 amu.
 Principal axes and moments of inertia in atomic units:
                           1         2         3
     Eigenvalues --     0.00000  39.44088  39.44088
           X            1.00000  -0.00000   0.00000
           Y            0.00000   1.00000   0.00000
           Z            0.00000   0.00000   1.00000
 This molecule is a prolate symmetric top.
 Rotational symmetry number  1.
 Rotational temperature (Kelvin)      2.19604
 Rotational constant (GHZ):          45.758135
    2 imaginary frequencies ignored.
 Zero-point vibrational energy      13337.6 (Joules/Mol)
                                    3.18776 (Kcal/Mol)
 Vibrational temperatures:   1604.14  1604.14
          (Kelvin)

 Zero-point correction=                           0.005080 (Hartree/Particle)
 Thermal correction to Energy=                    0.007487
 Thermal correction to Enthalpy=                  0.008432
 Thermal correction to Gibbs Free Energy=        -0.014521
 Sum of electronic and zero-point Energies=           -100.900199
 Sum of electronic and thermal Energies=              -100.897792
 Sum of electronic and thermal Enthalpies=            -100.896847
 Sum of electronic and thermal Free Energies=         -100.919800

                     E (Thermal)             CV                S
                      KCal/Mol        Cal/Mol-Kelvin    Cal/Mol-Kelvin
 Total                    4.698              5.503             48.309
 Electronic               0.000              0.000              1.377
 Translational            0.889              2.981             35.068
 Rotational               0.592              1.987             11.746
 Vibrational              3.217              0.535              0.117

 Normal termination of Gaussian 16 at Fri Aug 22 16:14:59 2025.
