 Gaussian 16, Revision C.01,
 Gaussian 16:  ES64L-G16RevC.01  3-Jul-2019

 -----------------------------------------
 # sp b3lyp/6-311g** Force nosymm scf=(qc)
 -----------------------------------------

 -------------------
 Title Card Required
 -------------------
 Symbolic Z-matrix:
 Charge =  0 Multiplicity = 2

                          Input orientation:
 ---------------------------------------------------------------------
 Center     Atomic      Atomic             Coordinates (Angstroms)
 Number     Number       Type             X           Y           Z
 ---------------------------------------------------------------------
      1          1           0        0.000000    0.000000    0.000000
      2          1           0       -1.200000    0.000000    0.000000
      3          9           0        2.950000    0.000000    0.000000
 ---------------------------------------------------------------------

 SCF Done:  E(UB3LYP) =  -100.872286612     a.u. after  154 cycles

 Alpha  occ. eigenvalues --  -24.76729  -1.22544  -0.55731  -0.46993  -0.46881
 Alpha  occ. eigenvalues --   -0.36156
 Alpha virt. eigenvalues --   -0.03815   0.23045   0.34690   0.85733   0.90605
 Alpha virt. eigenvalues --    0.93403   1.04391   1.13053   1.13060   1.22333
 Alpha virt. eigenvalues --    1.54555   1.54563   2.08589   2.32367   2.55524

  Beta  occ. eigenvalues --  -24.73567  -1.13458  -0.43836  -0.43711  -0.36140
  Beta virt. eigenvalues --   -0.26354  -0.03795   0.23068   0.34772   0.92104
  Beta virt. eigenvalues --    0.95122   0.95190   1.08217   1.13052   1.13059
  Beta virt. eigenvalues --    1.22336   1.54554   1.54561   2.08599   2.32370

 Mulliken charges and spin densities:
               1          2
     1  H   -0.001586  -0.000264
     2  H   -0.006944  -0.000882
     3  F    0.008529   1.001147
 Sum of Mulliken charges =   0.00000   1.00000

 Dipole moment (field-independent basis, Debye):
    X=              0.1137    Y=             -0.0000    Z=              0.0000  Tot=              0.1137
 Quadrupole moment (field-independent basis, Debye-Ang):
   XX=             -6.1390   YY=             -7.0733   ZZ=             -7.0683
   XY=             -0.0000   XZ=              0.0000   YZ=             -0.4318

  Exact polarizability:      16.578      -0.000       2.312       0.000      -0.230       2.314
 Approx polarizability:      24.581      -0.000       2.399       0.000      -0.289       2.402

 ******    1 imaginary frequencies (negative Signs) ******

                      1                      2                      3
                      A                      A                      A
 Frequencies --   -453.3933                39.4762              1468.9188
 Red. masses --      1.0078                 1.1085                 1.0106
 Frc consts  --      0.1221                 0.0010                 1.2848
 IR Inten    --      1.2333                 0.6291                 0.0026

                      4
                      A
 Frequencies --   1469.3245
 Red. masses --      1.0106
 Frc consts  --      1.2855
 IR Inten    --      0.0026

 - Thermochemistry -
 -------------------
 Temperature   298.150 Kelvin.  Pressure   1.00000 Atm.
 Atom     1 has atomic number  1 and mass   1.00783

 Molecular mass:    21.01405 amu.
 Principal axes and moments of inertia in atomic units:
                           1         2         3
     Eigenvalues --     0.00000  84.60318  84.60318
           X            1.00000  -0.00000   0.00000
           Y            0.00000   1.00000   0.00000
           Z            0.00000   0.00000   1.00000
 This molecule is a prolate symmetric top.
 Rotational symmetry number  1.
 Rotational temperature (Kelvin)      1.02377
 Rotational constant (GHZ):          21.331836
    1 imaginary frequencies ignored.
 Zero-point vibrational energy      17810.7 (Joules/Mol)
                                    4.25686 (Kcal/Mol)
 Warning -- explicit consideration of   1 degrees of freedom as
           vibrations may cause significant error
 Vibrational temperatures:     56.80  2113.45  2114.03
          (Kelvin)

 Zero-point correction=                           0.006784 (Hartree/Particle)
 Thermal correction to Energy=                    0.010012
 Thermal correction to Enthalpy=                  0.010957
 Thermal correction to Gibbs Free Energy=        -0.015185
 Sum of electronic and zero-point Energies=           -100.865503
 Sum of electronic and thermal Energies=              -100.862274
 Sum of electronic and thermal Enthalpies=            -100.861330
 Sum of electronic and thermal Free Energies=         -100.887472

                     E (Thermal)             CV                S
                      KCal/Mol        Cal/Mol-Kelvin    Cal/Mol-Kelvin
 Total                    6.283              7.116             55.020
 Electronic               0.000              0.000              1.377
 Translational            0.889              2.981             35.068
 Rotational               0.592              1.987             13.263
 Vibrational              4.802              2.148              5.312
 Vibration     1          0.594              1.981              5.285

 Normal termination of Gaussian 16 at Fri Aug 22 19:13:13 2025.
