 Gaussian 16, Revision C.01,
 Gaussian 16:  ES64L-G16RevC.01  3-Jul-2019

 -----------------------------------------
 # sp b3lyp/6-311g** Force nosymm scf=(qc)
 -----------------------------------------

 -------------------
 Title Card Required
 -------------------
 Symbolic Z-matrix:
 Charge =  0 Multiplicity = 2

                          Input orientation:
 ---------------------------------------------------------------------
 Center     Atomic      Atomic             Coordinates (Angstroms)
 Number     Number       Type             X           Y           Z
 ---------------------------------------------------------------------
      1          1           0        0.000000    0.000000    0.000000
      2          1           0       -1.600000    0.000000    0.000000
      3          9           0        1.900000    0.000000    0.000000
 ---------------------------------------------------------------------

 SCF Done:  E(UB3LYP) =  -100.830199767     a.u. after   14 cycles

 Alpha  occ. eigenvalues --  -24.68300  -1.14694  -0.47830  -0.39854  -0.39854
 Alpha  occ. eigenvalues --   -0.38033
 Alpha virt. eigenvalues --   -0.11254   0.22431   0.30482   0.85687   0.94307
 Alpha virt. eigenvalues --    0.94307   1.03067   1.17853   1.17853   1.31460
 Alpha virt. eigenvalues --    1.36680   1.36680   1.78378   2.17454   2.40205

  Beta  occ. eigenvalues --  -24.65930  -1.08079  -0.37973  -0.37521  -0.37521
  Beta virt. eigenvalues --   -0.22692  -0.09428   0.24960   0.30296   0.89103
  Beta virt. eigenvalues --    0.95018   0.95018   1.07260   1.20785   1.20785
  Beta virt. eigenvalues --    1.36729   1.37359   1.37359   1.79956   2.18161

 Mulliken charges and spin densities:
               1          2
     1  H    0.123969  -0.420263
     2  H    0.065489   0.677029
     3  F   -0.189458   0.743235
 Sum of Mulliken charges =  -0.00000   1.00000

 Dipole moment (field-independent basis, Debye):
    X=             -2.2797    Y=             -0.0000    Z=             -0.0000  Tot=              2.2797
 Quadrupole moment (field-independent basis, Debye-Ang):
   XX=             -8.0530   YY=             -7.4992   ZZ=             -7.4992
   XY=             -0.0000   XZ=             -0.0000   YZ=             -0.0000

  Exact polarizability:      50.564      -0.000       2.124      -0.000       0.000       2.124
 Approx polarizability:      73.841       0.000       2.059       0.000       0.000       2.059

 ******    2 imaginary frequencies (negative Signs) ******

                      1                      2                      3
                      A                      A                      A
 Frequencies --  -2173.9051              -559.6454               967.0617
 Red. masses --      1.0142                 1.1009                 1.0160
 Frc consts  --      2.8239                 0.2032                 0.5598
 IR Inten    --    524.4554                14.6387                 5.8432

                      4
                      A
 Frequencies --    967.0617
 Red. masses --      1.0160
 Frc consts  --      0.5598
 IR Inten    --      5.8432

 - Thermochemistry -
 -------------------
 Temperature   298.150 Kelvin.  Pressure   1.00000 Atm.
 Atom     1 has atomic number  1 and mass   1.00783

 Molecular mass:    21.01405 amu.
 Principal axes and moments of inertia in atomic units:
                           1         2         3
     Eigenvalues --     0.00000  52.04706  52.04706
           X            1.00000  -0.00000   0.00000
           Y            0.00000   1.00000   0.00000
           Z            0.00000   0.00000   1.00000
 This molecule is a prolate symmetric top.
 Rotational symmetry number  1.
 Rotational temperature (Kelvin)      1.66415
 Rotational constant (GHZ):          34.675182
    2 imaginary frequencies ignored.
 Zero-point vibrational energy      11568.6 (Joules/Mol)
                                    2.76497 (Kcal/Mol)
 Vibrational temperatures:   1391.39  1391.39
          (Kelvin)

 Zero-point correction=                           0.004406 (Hartree/Particle)
 Thermal correction to Energy=                    0.006850
 Thermal correction to Enthalpy=                  0.007795
 Thermal correction to Gibbs Free Energy=        -0.015466
 Sum of electronic and zero-point Energies=           -100.825794
 Sum of electronic and thermal Energies=              -100.823349
 Sum of electronic and thermal Enthalpies=            -100.822405
 Sum of electronic and thermal Free Energies=         -100.845666

                     E (Thermal)             CV                S
                      KCal/Mol        Cal/Mol-Kelvin    Cal/Mol-Kelvin
 Total                    4.299              5.797             48.956
 Electronic               0.000              0.000              1.377
 Translational            0.889              2.981             35.068
 Rotational               0.592              1.987             12.297
 Vibrational              2.817              0.829              0.214

 Normal termination of Gaussian 16 at Fri Aug 22 16:49:40 2025.
