 Gaussian 16, Revision C.01,
 Gaussian 16:  ES64L-G16RevC.01  3-Jul-2019

 -----------------------------------------
 # sp b3lyp/6-311g** Force nosymm scf=(qc)
 -----------------------------------------

 -------------------
 Title Card Required
 -------------------
 Symbolic Z-matrix:
 Charge =  0 Multiplicity = 2

                          Input orientation:
 ---------------------------------------------------------------------
 Center     Atomic      Atomic             Coordinates (Angstroms)
 Number     Number       Type             X           Y           Z
 ---------------------------------------------------------------------
      1          1           0        0.000000    0.000000    0.000000
      2          1           0       -0.750000    0.000000    0.000000
      3          9           0        1.250000    0.000000    0.000000
 ---------------------------------------------------------------------

 SCF Done:  E(UB3LYP) =  -100.940277999     a.u. after    6 cycles

 Alpha  occ. eigenvalues --  -24.68481  -1.17255  -0.58957  -0.41217  -0.41217
 Alpha  occ. eigenvalues --   -0.39477
 Alpha virt. eigenvalues --    0.10905   0.19131   0.46617   0.87924   0.87924
 Alpha virt. eigenvalues --    0.96684   1.09233   1.09233   1.43266   1.63857
 Alpha virt. eigenvalues --    1.78882   1.78882   2.01479   2.37474   3.15231

  Beta  occ. eigenvalues --  -24.66315  -1.11568  -0.50609  -0.39176  -0.39176
  Beta virt. eigenvalues --   -0.21267   0.12593   0.20232   0.50558   0.89322
  Beta virt. eigenvalues --    0.89322   1.01381   1.12660   1.12660   1.46723
  Beta virt. eigenvalues --    1.68663   1.81400   1.81400   2.02239   2.43109

 Mulliken charges and spin densities:
               1          2
     1  H    0.227416  -0.036867
     2  H   -0.001449   0.416111
     3  F   -0.225966   0.620755
 Sum of Mulliken charges =   0.00000   1.00000

 Dipole moment (field-independent basis, Debye):
    X=             -1.5261    Y=              0.0000    Z=              0.0000  Tot=              1.5261
 Quadrupole moment (field-independent basis, Debye-Ang):
   XX=             -7.2622   YY=             -6.6695   ZZ=             -6.6695
   XY=              0.0000   XZ=              0.0000   YZ=             -0.0000

  Exact polarizability:      17.869      -0.000       2.442       0.000       0.000       2.442
 Approx polarizability:      23.281      -0.000       2.477       0.000       0.000       2.477

 ******    2 imaginary frequencies (negative Signs) ******

                      1                      2                      3
                      A                      A                      A
 Frequencies --  -1266.0783             -1266.0783               175.1835
 Red. masses --      1.0129                 1.0129                 1.1054
 Frc consts  --      0.9567                 0.9567                 0.0200
 IR Inten    --      7.6788                 7.6788                79.6877

                      4
                      A
 Frequencies --   3681.3210
 Red. masses --      1.0104
 Frc consts  --      8.0676
 IR Inten    --    532.3365

 - Thermochemistry -
 -------------------
 Temperature   298.150 Kelvin.  Pressure   1.00000 Atm.
 Atom     1 has atomic number  1 and mass   1.00783

 Molecular mass:    21.01405 amu.
 Principal axes and moments of inertia in atomic units:
                           1         2         3
     Eigenvalues --     0.00000  18.19632  18.19632
           X            1.00000  -0.00000   0.00000
           Y            0.00000   1.00000   0.00000
           Z            0.00000   0.00000   1.00000
 This molecule is a prolate symmetric top.
 Rotational symmetry number  1.
 Rotational temperature (Kelvin)      4.75997
 Rotational constant (GHZ):          99.181635
    2 imaginary frequencies ignored.
 Zero-point vibrational energy      23067.0 (Joules/Mol)
                                    5.51315 (Kcal/Mol)
 Warning -- explicit consideration of   1 degrees of freedom as
           vibrations may cause significant error
 Vibrational temperatures:    252.05  5296.60
          (Kelvin)

 Zero-point correction=                           0.008786 (Hartree/Particle)
 Thermal correction to Energy=                    0.011747
 Thermal correction to Enthalpy=                  0.012691
 Thermal correction to Gibbs Free Energy=        -0.010606
 Sum of electronic and zero-point Energies=           -100.931492
 Sum of electronic and thermal Energies=              -100.928531
 Sum of electronic and thermal Enthalpies=            -100.927587
 Sum of electronic and thermal Free Energies=         -100.950884

                     E (Thermal)             CV                S
                      KCal/Mol        Cal/Mol-Kelvin    Cal/Mol-Kelvin
 Total                    7.371              6.841             49.034
 Electronic               0.000              0.000              1.377
 Translational            0.889              2.981             35.068
 Rotational               0.592              1.987             10.209
 Vibrational              5.890              1.873              2.379
 Vibration     1          0.627              1.873              2.379

 Normal termination of Gaussian 16 at Fri Aug 22 16:11:40 2025.
