 Gaussian 16, Revision C.01,
 Gaussian 16:  ES64L-G16RevC.01  3-Jul-2019

 -----------------------------------------
 # sp b3lyp/6-311g** Force nosymm scf=(qc)
 -----------------------------------------

 -------------------
 Title Card Required
 -------------------
 Symbolic Z-matrix:
 Charge =  0 Multiplicity = 2

                          Input orientation:
 ---------------------------------------------------------------------
 Center     Atomic      Atomic             Coordinates (Angstroms)
 Number     Number       Type             X           Y           Z
 ---------------------------------------------------------------------
      1          1           0        0.000000    0.000000    0.000000
      2          1           0       -3.850000    0.000000    0.000000
      3          9           0        3.100000    0.000000    0.000000
 ---------------------------------------------------------------------

 SCF Done:  E(UB3LYP) =  -100.760261415     a.u. after   22 cycles

 Alpha  occ. eigenvalues --  -24.74414  -1.20450  -0.53534  -0.44950  -0.44950
 Alpha  occ. eigenvalues --   -0.32429
 Alpha virt. eigenvalues --   -0.07481   0.23942   0.36393   0.89003   0.92077
 Alpha virt. eigenvalues --    0.92077   1.03339   1.25069   1.25069   1.25106
 Alpha virt. eigenvalues --    1.44816   1.44816   1.45193   2.14485   2.41071

  Beta  occ. eigenvalues --  -24.71364  -1.11703  -0.41896  -0.41896  -0.33490
  Beta virt. eigenvalues --   -0.24959  -0.06043   0.23767   0.38129   0.93546
  Beta virt. eigenvalues --    0.93546   0.97812   1.07134   1.23853   1.23853
  Beta virt. eigenvalues --    1.24040   1.46465   1.46624   1.46624   2.14669

 Mulliken charges and spin densities:
               1          2
     1  H    0.030254  -0.965833
     2  H    0.000153   0.999122
     3  F   -0.030407   0.966711
 Sum of Mulliken charges =  -0.00000   1.00000

 Dipole moment (field-independent basis, Debye):
    X=             -0.4870    Y=             -0.0000    Z=             -0.0000  Tot=              0.4870
 Quadrupole moment (field-independent basis, Debye-Ang):
   XX=             -8.1376   YY=             -7.6095   ZZ=             -7.6095
   XY=             -0.0000   XZ=             -0.0000   YZ=             -0.0000

  Exact polarizability:      30.249      -0.000       2.029      -0.000      -0.000       2.029
 Approx polarizability:      29.479      -0.000       1.928      -0.000       0.000       1.928

 ******    2 imaginary frequencies (negative Signs) ******

                      1                      2                      3
                      A                      A                      A
 Frequencies --   -328.8258               -80.6726               112.1513
 Red. masses --      1.0516                 1.0600                 1.0208
 Frc consts  --      0.0670                 0.0041                 0.0076
 IR Inten    --     32.8316                 0.1634                 0.8702

                      4
                      A
 Frequencies --    112.1513
 Red. masses --      1.0208
 Frc consts  --      0.0076
 IR Inten    --      0.8702

 - Thermochemistry -
 -------------------
 Temperature   298.150 Kelvin.  Pressure   1.00000 Atm.
 Atom     1 has atomic number  1 and mass   1.00783

 Molecular mass:    21.01405 amu.
 Principal axes and moments of inertia in atomic units:
                           1         2         3
     Eigenvalues --     0.00000 190.99385 190.99385
           X            1.00000  -0.00000   0.00000
           Y            0.00000   1.00000   0.00000
           Z            0.00000   0.00000   1.00000
 This molecule is a prolate symmetric top.
 Rotational symmetry number  1.
 Rotational temperature (Kelvin)      0.45349
 Rotational constant (GHZ):           9.449211
    2 imaginary frequencies ignored.
 Zero-point vibrational energy       1341.6 (Joules/Mol)
                                    0.32066 (Kcal/Mol)
 Warning -- explicit consideration of   2 degrees of freedom as
           vibrations may cause significant error
 Vibrational temperatures:    161.36   161.36
          (Kelvin)

 Zero-point correction=                           0.000511 (Hartree/Particle)
 Thermal correction to Energy=                    0.004295
 Thermal correction to Enthalpy=                  0.005239
 Thermal correction to Gibbs Free Energy=        -0.022219
 Sum of electronic and zero-point Energies=           -100.759750
 Sum of electronic and thermal Energies=              -100.755967
 Sum of electronic and thermal Enthalpies=            -100.755023
 Sum of electronic and thermal Free Energies=         -100.782480

                     E (Thermal)             CV                S
                      KCal/Mol        Cal/Mol-Kelvin    Cal/Mol-Kelvin
 Total                    2.695              8.847             57.789
 Electronic               0.000              0.000              1.377
 Translational            0.889              2.981             35.068
 Rotational               0.592              1.987             14.881
 Vibrational              1.214              3.879              6.463
 Vibration     1          0.607              1.939              3.231
 Vibration     2          0.607              1.939              3.231

 Normal termination of Gaussian 16 at Fri Aug 22 19:56:41 2025.
