 Gaussian 16, Revision C.01,
 Gaussian 16:  ES64L-G16RevC.01  3-Jul-2019

 -----------------------------------------
 # sp b3lyp/6-311g** Force nosymm scf=(qc)
 -----------------------------------------

 -------------------
 Title Card Required
 -------------------
 Symbolic Z-matrix:
 Charge =  0 Multiplicity = 2

                          Input orientation:
 ---------------------------------------------------------------------
 Center     Atomic      Atomic             Coordinates (Angstroms)
 Number     Number       Type             X           Y           Z
 ---------------------------------------------------------------------
      1          1           0        0.000000    0.000000    0.000000
      2          1           0       -3.650000    0.000000    0.000000
      3          9           0        1.300000    0.000000    0.000000
 ---------------------------------------------------------------------

 SCF Done:  E(UB3LYP) =  -100.901234036     a.u. after    7 cycles

 Alpha  occ. eigenvalues --  -24.64376  -1.11117  -0.46064  -0.37074  -0.37074
 Alpha  occ. eigenvalues --   -0.33769
 Alpha virt. eigenvalues --   -0.08948   0.21371   0.28337   0.92998   0.92998
 Alpha virt. eigenvalues --    1.02058   1.21409   1.23743   1.23743   1.23747
 Alpha virt. eigenvalues --    1.33789   1.33789   1.70475   2.13501   2.24727

  Beta  occ. eigenvalues --  -24.64372  -1.11105  -0.46051  -0.37070  -0.37070
  Beta virt. eigenvalues --   -0.09510  -0.05780   0.24992   0.38508   0.92997
  Beta virt. eigenvalues --    0.92997   1.02071   1.21454   1.33775   1.33775
  Beta virt. eigenvalues --    1.46585   1.47002   1.47002   1.70500   2.24133

 Mulliken charges and spin densities:
               1          2
     1  H    0.358219  -0.000398
     2  H    0.001010   0.998912
     3  F   -0.359229   0.001487
 Sum of Mulliken charges =   0.00000   1.00000

 Dipole moment (field-independent basis, Debye):
    X=             -2.4052    Y=              0.0000    Z=             -0.0000  Tot=              2.4052
 Quadrupole moment (field-independent basis, Debye-Ang):
   XX=             -9.2225   YY=             -7.1994   ZZ=             -7.1994
   XY=              0.0000   XZ=             -0.0000   YZ=              0.0000

  Exact polarizability:      11.120       0.000       2.279      -0.000      -0.000       2.279
 Approx polarizability:      17.281       0.000       2.222      -0.000       0.000       2.222

 ******    2 imaginary frequencies (negative Signs) ******

                      1                      2                      3
                      A                      A                      A
 Frequencies --   -605.9052               -53.3256              1162.9028
 Red. masses --      1.0570                 1.0546                 1.0335
 Frc consts  --      0.2286                 0.0018                 0.8235
 IR Inten    --     56.9586                 0.0302               136.9666

                      4
                      A
 Frequencies --   1162.9028
 Red. masses --      1.0335
 Frc consts  --      0.8235
 IR Inten    --    136.9666

 - Thermochemistry -
 -------------------
 Temperature   298.150 Kelvin.  Pressure   1.00000 Atm.
 Atom     1 has atomic number  1 and mass   1.00783

 Molecular mass:    21.01405 amu.
 Principal axes and moments of inertia in atomic units:
                           1         2         3
     Eigenvalues --     0.00000  87.52457  87.52457
           X            1.00000  -0.00000   0.00000
           Y            0.00000   1.00000   0.00000
           Z            0.00000   0.00000   1.00000
 This molecule is a prolate symmetric top.
 Rotational symmetry number  1.
 Rotational temperature (Kelvin)      0.98960
 Rotational constant (GHZ):          20.619823
    2 imaginary frequencies ignored.
 Zero-point vibrational energy      13911.4 (Joules/Mol)
                                    3.32491 (Kcal/Mol)
 Vibrational temperatures:   1673.16  1673.16
          (Kelvin)

 Zero-point correction=                           0.005299 (Hartree/Particle)
 Thermal correction to Energy=                    0.007698
 Thermal correction to Enthalpy=                  0.008642
 Thermal correction to Gibbs Free Energy=        -0.015054
 Sum of electronic and zero-point Energies=           -100.895935
 Sum of electronic and thermal Energies=              -100.893536
 Sum of electronic and thermal Enthalpies=            -100.892592
 Sum of electronic and thermal Free Energies=         -100.916288

                     E (Thermal)             CV                S
                      KCal/Mol        Cal/Mol-Kelvin    Cal/Mol-Kelvin
 Total                    4.831              5.429             49.872
 Electronic               0.000              0.000              1.377
 Translational            0.889              2.981             35.068
 Rotational               0.592              1.987             13.330
 Vibrational              3.349              0.461              0.096

 Normal termination of Gaussian 16 at Fri Aug 22 16:16:10 2025.
