 Gaussian 16, Revision C.01,
 Gaussian 16:  ES64L-G16RevC.01  3-Jul-2019

 -----------------------------------------
 # sp b3lyp/6-311g** Force nosymm scf=(qc)
 -----------------------------------------

 -------------------
 Title Card Required
 -------------------
 Symbolic Z-matrix:
 Charge =  0 Multiplicity = 2

                          Input orientation:
 ---------------------------------------------------------------------
 Center     Atomic      Atomic             Coordinates (Angstroms)
 Number     Number       Type             X           Y           Z
 ---------------------------------------------------------------------
      1          1           0        0.000000    0.000000    0.000000
      2          1           0       -2.700000    0.000000    0.000000
      3          9           0        3.050000    0.000000    0.000000
 ---------------------------------------------------------------------

 SCF Done:  E(UB3LYP) =  -100.762899763     a.u. after   22 cycles

 Alpha  occ. eigenvalues --  -24.74305  -1.20347  -0.53424  -0.44858  -0.44858
 Alpha  occ. eigenvalues --   -0.32854
 Alpha virt. eigenvalues --   -0.09717   0.25169   0.34227   0.89313   0.92144
 Alpha virt. eigenvalues --    0.92144   1.03654   1.24734   1.24734   1.26270
 Alpha virt. eigenvalues --    1.41275   1.41275   1.42126   2.15709   2.37811

  Beta  occ. eigenvalues --  -24.71264  -1.11627  -0.41813  -0.41813  -0.33669
  Beta virt. eigenvalues --   -0.24909  -0.08515   0.25190   0.35626   0.93610
  Beta virt. eigenvalues --    0.93610   0.98125   1.07535   1.23768   1.23768
  Beta virt. eigenvalues --    1.25210   1.43208   1.43208   1.43868   2.16472

 Mulliken charges and spin densities:
               1          2
     1  H    0.029465  -0.947156
     2  H    0.003184   0.983338
     3  F   -0.032650   0.963818
 Sum of Mulliken charges =  -0.00000   1.00000

 Dipole moment (field-independent basis, Debye):
    X=             -0.5523    Y=              0.0000    Z=              0.0000  Tot=              0.5523
 Quadrupole moment (field-independent basis, Debye-Ang):
   XX=             -7.9709   YY=             -7.6392   ZZ=             -7.6392
   XY=             -0.0000   XZ=             -0.0000   YZ=              0.0000

  Exact polarizability:      38.896      -0.000       2.019      -0.000      -0.000       2.019
 Approx polarizability:      35.452      -0.000       1.924      -0.000       0.000       1.924

 ******    2 imaginary frequencies (negative Signs) ******

                      1                      2                      3
                      A                      A                      A
 Frequencies --   -555.1761              -213.1809               206.0945
 Red. masses --      1.0126                 1.1028                 1.0165
 Frc consts  --      0.1839                 0.0295                 0.0254
 IR Inten    --     24.1966                13.2443                 0.7212

                      4
                      A
 Frequencies --    206.0945
 Red. masses --      1.0165
 Frc consts  --      0.0254
 IR Inten    --      0.7212

 - Thermochemistry -
 -------------------
 Temperature   298.150 Kelvin.  Pressure   1.00000 Atm.
 Atom     1 has atomic number  1 and mass   1.00783

 Molecular mass:    21.01405 amu.
 Principal axes and moments of inertia in atomic units:
                           1         2         3
     Eigenvalues --     0.00000 139.10532 139.10532
           X            1.00000  -0.00000   0.00000
           Y            0.00000   1.00000   0.00000
           Z            0.00000   0.00000   1.00000
 This molecule is a prolate symmetric top.
 Rotational symmetry number  1.
 Rotational temperature (Kelvin)      0.62265
 Rotational constant (GHZ):          12.973920
    2 imaginary frequencies ignored.
 Zero-point vibrational energy       2465.4 (Joules/Mol)
                                    0.58925 (Kcal/Mol)
 Warning -- explicit consideration of   2 degrees of freedom as
           vibrations may cause significant error
 Vibrational temperatures:    296.52   296.52
          (Kelvin)

 Zero-point correction=                           0.000939 (Hartree/Particle)
 Thermal correction to Energy=                    0.004402
 Thermal correction to Enthalpy=                  0.005346
 Thermal correction to Gibbs Free Energy=        -0.020716
 Sum of electronic and zero-point Energies=           -100.761961
 Sum of electronic and thermal Energies=              -100.758498
 Sum of electronic and thermal Enthalpies=            -100.757554
 Sum of electronic and thermal Free Energies=         -100.783616

                     E (Thermal)             CV                S
                      KCal/Mol        Cal/Mol-Kelvin    Cal/Mol-Kelvin
 Total                    2.762              8.630             54.852
 Electronic               0.000              0.000              1.377
 Translational            0.889              2.981             35.068
 Rotational               0.592              1.987             14.251
 Vibrational              1.281              3.662              4.156
 Vibration     1          0.641              1.831              2.078
 Vibration     2          0.641              1.831              2.078

 Normal termination of Gaussian 16 at Fri Aug 22 19:44:26 2025.
