 Gaussian 16, Revision C.01,
 Gaussian 16:  ES64L-G16RevC.01  3-Jul-2019

 -----------------------------------------
 # sp b3lyp/6-311g** Force nosymm scf=(qc)
 -----------------------------------------

 -------------------
 Title Card Required
 -------------------
 Symbolic Z-matrix:
 Charge =  0 Multiplicity = 2

                          Input orientation:
 ---------------------------------------------------------------------
 Center     Atomic      Atomic             Coordinates (Angstroms)
 Number     Number       Type             X           Y           Z
 ---------------------------------------------------------------------
      1          1           0        0.000000    0.000000    0.000000
      2          1           0       -3.450000    0.000000    0.000000
      3          9           0        3.450000    0.000000    0.000000
 ---------------------------------------------------------------------

 SCF Done:  E(UB3LYP) =  -100.759284998     a.u. after   31 cycles

 Alpha  occ. eigenvalues --  -24.75297  -1.21267  -0.54420  -0.45691  -0.45691
 Alpha  occ. eigenvalues --   -0.32363
 Alpha virt. eigenvalues --   -0.07167   0.24317   0.36840   0.87762   0.91536
 Alpha virt. eigenvalues --    0.91536   1.01953   1.25144   1.25144   1.25326
 Alpha virt. eigenvalues --    1.45025   1.45061   1.45061   2.15074   2.41042

  Beta  occ. eigenvalues --  -24.72189  -1.12337  -0.42576  -0.42576  -0.32894
  Beta virt. eigenvalues --   -0.25437  -0.06567   0.24085   0.37849   0.93024
  Beta virt. eigenvalues --    0.93024   0.96863   1.05942   1.24532   1.24532
  Beta virt. eigenvalues --    1.24695   1.45779   1.46020   1.46020   2.15314

 Mulliken charges and spin densities:
               1          2
     1  H    0.012976  -0.983099
     2  H    0.000229   0.997613
     3  F   -0.013204   0.985486
 Sum of Mulliken charges =  -0.00000   1.00000

 Dipole moment (field-independent basis, Debye):
    X=             -0.2381    Y=             -0.0000    Z=             -0.0000  Tot=              0.2381
 Quadrupole moment (field-independent basis, Debye-Ang):
   XX=             -7.4670   YY=             -7.6220   ZZ=             -7.6220
   XY=             -0.0000   XZ=             -0.0000   YZ=             -0.0000

  Exact polarizability:      25.084      -0.000       2.033      -0.000       0.000       2.033
 Approx polarizability:      20.245      -0.000       1.933      -0.000       0.000       1.933

 ******    2 imaginary frequencies (negative Signs) ******

                      1                      2                      3
                      A                      A                      A
 Frequencies --   -259.6694              -109.2661                82.9660
 Red. masses --      1.0271                 1.0860                 1.0179
 Frc consts  --      0.0408                 0.0076                 0.0041
 IR Inten    --     12.1100                 1.5274                 0.1496

                      4
                      A
 Frequencies --     82.9660
 Red. masses --      1.0179
 Frc consts  --      0.0041
 IR Inten    --      0.1496

 - Thermochemistry -
 -------------------
 Temperature   298.150 Kelvin.  Pressure   1.00000 Atm.
 Atom     1 has atomic number  1 and mass   1.00783

 Molecular mass:    21.01405 amu.
 Principal axes and moments of inertia in atomic units:
                           1         2         3
     Eigenvalues --     0.00000 195.69591 195.69591
           X            1.00000  -0.00000   0.00000
           Y            0.00000   1.00000   0.00000
           Z            0.00000   0.00000   1.00000
 This molecule is a prolate symmetric top.
 Rotational symmetry number  1.
 Rotational temperature (Kelvin)      0.44259
 Rotational constant (GHZ):           9.222171
    2 imaginary frequencies ignored.
 Zero-point vibrational energy        992.5 (Joules/Mol)
                                    0.23721 (Kcal/Mol)
 Warning -- explicit consideration of   2 degrees of freedom as
           vibrations may cause significant error
 Vibrational temperatures:    119.37   119.37
          (Kelvin)

 Zero-point correction=                           0.000378 (Hartree/Particle)
 Thermal correction to Energy=                    0.004274
 Thermal correction to Enthalpy=                  0.005218
 Thermal correction to Gibbs Free Energy=        -0.022821
 Sum of electronic and zero-point Energies=           -100.758907
 Sum of electronic and thermal Energies=              -100.755011
 Sum of electronic and thermal Enthalpies=            -100.754067
 Sum of electronic and thermal Free Energies=         -100.782106

                     E (Thermal)             CV                S
                      KCal/Mol        Cal/Mol-Kelvin    Cal/Mol-Kelvin
 Total                    2.682              8.890             59.014
 Electronic               0.000              0.000              1.377
 Translational            0.889              2.981             35.068
 Rotational               0.592              1.987             14.929
 Vibrational              1.201              3.922              7.639
 Vibration     1          0.600              1.961              3.819
 Vibration     2          0.600              1.961              3.819

 Normal termination of Gaussian 16 at Fri Aug 22 21:43:14 2025.
