 Gaussian 16, Revision C.01,
 Gaussian 16:  ES64L-G16RevC.01  3-Jul-2019

 -----------------------------------------
 # sp b3lyp/6-311g** Force nosymm scf=(qc)
 -----------------------------------------

 -------------------
 Title Card Required
 -------------------
 Symbolic Z-matrix:
 Charge =  0 Multiplicity = 2

                          Input orientation:
 ---------------------------------------------------------------------
 Center     Atomic      Atomic             Coordinates (Angstroms)
 Number     Number       Type             X           Y           Z
 ---------------------------------------------------------------------
      1          1           0        0.000000    0.000000    0.000000
      2          1           0       -3.050000    0.000000    0.000000
      3          9           0        1.800000    0.000000    0.000000
 ---------------------------------------------------------------------

 SCF Done:  E(UB3LYP) =  -100.805259560     a.u. after   21 cycles

 Alpha  occ. eigenvalues --  -24.66553  -1.12739  -0.45357  -0.38305  -0.38305
 Alpha  occ. eigenvalues --   -0.34231
 Alpha virt. eigenvalues --   -0.14835   0.22214   0.29975   0.93041   0.94804
 Alpha virt. eigenvalues --    0.94804   1.06023   1.23308   1.23308   1.23882
 Alpha virt. eigenvalues --    1.33709   1.33709   1.69830   2.13942   2.26095

  Beta  occ. eigenvalues --  -24.64648  -1.07494  -0.39296  -0.36446  -0.36446
  Beta virt. eigenvalues --   -0.19296  -0.08100   0.22747   0.36904   0.93851
  Beta virt. eigenvalues --    0.94821   0.94821   1.08085   1.23834   1.23834
  Beta virt. eigenvalues --    1.44046   1.44427   1.44427   1.65186   2.12829

 Mulliken charges and spin densities:
               1          2
     1  H    0.251120  -0.591464
     2  H    0.005949   0.992246
     3  F   -0.257069   0.599218
 Sum of Mulliken charges =   0.00000   1.00000

 Dipole moment (field-independent basis, Debye):
    X=             -2.3466    Y=             -0.0000    Z=              0.0000  Tot=              2.3466
 Quadrupole moment (field-independent basis, Debye-Ang):
   XX=             -9.9645   YY=             -7.4468   ZZ=             -7.4468
   XY=              0.0000   XZ=             -0.0000   YZ=             -0.0000

  Exact polarizability:      26.438       0.000       2.097      -0.000      -0.000       2.097
 Approx polarizability:      38.364      -0.000       1.989       0.000       0.000       1.989

 ******    2 imaginary frequencies (negative Signs) ******

                      1                      2                      3
                      A                      A                      A
 Frequencies --  -1522.1738              -199.1545               652.7302
 Red. masses --      1.0561                 1.0555                 1.0254
 Frc consts  --      1.4417                 0.0247                 0.2574
 IR Inten    --    120.7220                 1.9871                56.6842

                      4
                      A
 Frequencies --    652.7302
 Red. masses --      1.0254
 Frc consts  --      0.2574
 IR Inten    --     56.6842

 - Thermochemistry -
 -------------------
 Temperature   298.150 Kelvin.  Pressure   1.00000 Atm.
 Atom     1 has atomic number  1 and mass   1.00783

 Molecular mass:    21.01405 amu.
 Principal axes and moments of inertia in atomic units:
                           1         2         3
     Eigenvalues --     0.00000  88.68536  88.68536
           X            1.00000  -0.00000   0.00000
           Y            0.00000   1.00000   0.00000
           Z            0.00000   0.00000   1.00000
 This molecule is a prolate symmetric top.
 Rotational symmetry number  1.
 Rotational temperature (Kelvin)      0.97664
 Rotational constant (GHZ):          20.349935
    2 imaginary frequencies ignored.
 Zero-point vibrational energy       7808.4 (Joules/Mol)
                                    1.86625 (Kcal/Mol)
 Vibrational temperatures:    939.13   939.13
          (Kelvin)

 Zero-point correction=                           0.002974 (Hartree/Particle)
 Thermal correction to Energy=                    0.005601
 Thermal correction to Enthalpy=                  0.006545
 Thermal correction to Gibbs Free Energy=        -0.017466
 Sum of electronic and zero-point Energies=           -100.802286
 Sum of electronic and thermal Energies=              -100.799659
 Sum of electronic and thermal Enthalpies=            -100.798715
 Sum of electronic and thermal Free Energies=         -100.822726

                     E (Thermal)             CV                S
                      KCal/Mol        Cal/Mol-Kelvin    Cal/Mol-Kelvin
 Total                    3.515              6.813             50.537
 Electronic               0.000              0.000              1.377
 Translational            0.889              2.981             35.068
 Rotational               0.592              1.987             13.356
 Vibrational              2.033              1.845              0.735

 Normal termination of Gaussian 16 at Fri Aug 22 16:44:32 2025.
