 Gaussian 16, Revision C.01,
 Gaussian 16:  ES64L-G16RevC.01  3-Jul-2019

 -----------------------------------------
 # sp b3lyp/6-311g** Force nosymm scf=(qc)
 -----------------------------------------

 -------------------
 Title Card Required
 -------------------
 Symbolic Z-matrix:
 Charge =  0 Multiplicity = 2

                          Input orientation:
 ---------------------------------------------------------------------
 Center     Atomic      Atomic             Coordinates (Angstroms)
 Number     Number       Type             X           Y           Z
 ---------------------------------------------------------------------
      1          1           0        0.000000    0.000000    0.000000
      2          1           0       -3.500000    0.000000    0.000000
      3          9           0        0.950000    0.000000    0.000000
 ---------------------------------------------------------------------

 SCF Done:  E(UB3LYP) =  -100.971022080     a.u. after    6 cycles

 Alpha  occ. eigenvalues --  -24.64105  -1.17442  -0.52740  -0.39213  -0.39213
 Alpha  occ. eigenvalues --   -0.33657
 Alpha virt. eigenvalues --    0.01939   0.24172   0.36900   0.94222   0.94222
 Alpha virt. eigenvalues --    0.98134   1.23701   1.23857   1.23857   1.29621
 Alpha virt. eigenvalues --    1.36476   1.36476   1.95879   2.14285   2.34871

  Beta  occ. eigenvalues --  -24.64103  -1.17438  -0.52736  -0.39211  -0.39211
  Beta virt. eigenvalues --   -0.05724   0.02532   0.35807   0.39731   0.94222
  Beta virt. eigenvalues --    0.94222   0.98133   1.29370   1.36475   1.36475
  Beta virt. eigenvalues --    1.50164   1.50553   1.50553   1.95925   2.34763

 Mulliken charges and spin densities:
               1          2
     1  H    0.307746   0.000583
     2  H    0.000937   0.998886
     3  F   -0.308683   0.000531
 Sum of Mulliken charges =   0.00000   1.00000

 Dipole moment (field-independent basis, Debye):
    X=             -1.9668    Y=             -0.0000    Z=             -0.0000  Tot=              1.9668
 Quadrupole moment (field-independent basis, Debye-Ang):
   XX=             -8.0645   YY=             -6.9163   ZZ=             -6.9163
   XY=             -0.0000   XZ=             -0.0000   YZ=             -0.0000

  Exact polarizability:       6.124      -0.000       2.413      -0.000      -0.000       2.413
 Approx polarizability:       7.305      -0.000       2.389      -0.000       0.000       2.389

 ******    1 imaginary frequencies (negative Signs) ******

                      1                      2                      3
                      A                      A                      A
 Frequencies --    -44.6941               676.2337               676.2337
 Red. masses --      1.0532                 1.0377                 1.0377
 Frc consts  --      0.0012                 0.2796                 0.2796
 IR Inten    --      0.0467               174.9319               174.9319

                      4
                      A
 Frequencies --   3679.5948
 Red. masses --      1.0583
 Frc consts  --      8.4425
 IR Inten    --     95.1272

 - Thermochemistry -
 -------------------
 Temperature   298.150 Kelvin.  Pressure   1.00000 Atm.
 Atom     1 has atomic number  1 and mass   1.00783

 Molecular mass:    21.01405 amu.
 Principal axes and moments of inertia in atomic units:
                           1         2         3
     Eigenvalues --     0.00000  69.48425  69.48425
           X            1.00000  -0.00000   0.00000
           Y            0.00000   1.00000   0.00000
           Z            0.00000   0.00000   1.00000
 This molecule is a prolate symmetric top.
 Rotational symmetry number  1.
 Rotational temperature (Kelvin)      1.24653
 Rotational constant (GHZ):          25.973384
    1 imaginary frequencies ignored.
 Zero-point vibrational energy      30098.4 (Joules/Mol)
                                    7.19369 (Kcal/Mol)
 Vibrational temperatures:    972.95   972.95  5294.12
          (Kelvin)

 Zero-point correction=                           0.011464 (Hartree/Particle)
 Thermal correction to Energy=                    0.014070
 Thermal correction to Enthalpy=                  0.015014
 Thermal correction to Gibbs Free Energy=        -0.008737
 Sum of electronic and zero-point Energies=           -100.959558
 Sum of electronic and thermal Energies=              -100.956953
 Sum of electronic and thermal Enthalpies=            -100.956008
 Sum of electronic and thermal Free Energies=         -100.979759

                     E (Thermal)             CV                S
                      KCal/Mol        Cal/Mol-Kelvin    Cal/Mol-Kelvin
 Total                    8.829              6.719             49.988
 Electronic               0.000              0.000              1.377
 Translational            0.889              2.981             35.068
 Rotational               0.592              1.987             12.872
 Vibrational              7.348              1.751              0.671

 Normal termination of Gaussian 16 at Fri Aug 22 15:59:08 2025.
