 Gaussian 16, Revision C.01,
 Gaussian 16:  ES64L-G16RevC.01  3-Jul-2019

 -----------------------------------------
 # sp b3lyp/6-311g** Force nosymm scf=(qc)
 -----------------------------------------

 -------------------
 Title Card Required
 -------------------
 Symbolic Z-matrix:
 Charge =  0 Multiplicity = 2

                          Input orientation:
 ---------------------------------------------------------------------
 Center     Atomic      Atomic             Coordinates (Angstroms)
 Number     Number       Type             X           Y           Z
 ---------------------------------------------------------------------
      1          1           0        0.000000    0.000000    0.000000
      2          1           0       -1.600000    0.000000    0.000000
      3          9           0        2.650000    0.000000    0.000000
 ---------------------------------------------------------------------

 SCF Done:  E(UB3LYP) =  -100.809302033     a.u. after   22 cycles

 Alpha  occ. eigenvalues --  -24.73669  -1.19759  -0.52816  -0.44335  -0.44335
 Alpha  occ. eigenvalues --   -0.35176
 Alpha virt. eigenvalues --   -0.11436   0.24268   0.30659   0.89832   0.92471
 Alpha virt. eigenvalues --    0.92471   1.03592   1.10235   1.20458   1.20458
 Alpha virt. eigenvalues --    1.37769   1.37769   1.72842   2.17518   2.43834

  Beta  occ. eigenvalues --  -24.70693  -1.11247  -0.41360  -0.41360  -0.34827
  Beta virt. eigenvalues --   -0.24880  -0.10905   0.25418   0.30592   0.93902
  Beta virt. eigenvalues --    0.93902   0.97161   1.05680   1.13661   1.20912
  Beta virt. eigenvalues --    1.20912   1.38206   1.38206   1.73433   2.18518

 Mulliken charges and spin densities:
               1          2
     1  H    0.016742  -0.460494
     2  H    0.032470   0.518804
     3  F   -0.049212   0.941690
 Sum of Mulliken charges =  -0.00000   1.00000

 Dipole moment (field-independent basis, Debye):
    X=             -0.9115    Y=             -0.0000    Z=             -0.0000  Tot=              0.9115
 Quadrupole moment (field-independent basis, Debye-Ang):
   XX=             -6.9597   YY=             -7.7073   ZZ=             -7.7073
   XY=             -0.0000   XZ=             -0.0000   YZ=             -0.0000

  Exact polarizability:      61.286      -0.000       2.031      -0.000      -0.000       2.031
 Approx polarizability:      78.800      -0.000       1.997      -0.000       0.000       1.997

 ******    2 imaginary frequencies (negative Signs) ******

                      1                      2                      3
                      A                      A                      A
 Frequencies --  -2050.4035              -292.8920              1016.4876
 Red. masses --      1.0081                 1.1082                 1.0130
 Frc consts  --      2.4971                 0.0560                 0.6167
 IR Inten    --    332.8891                36.5906                 0.0067

                      4
                      A
 Frequencies --   1016.4876
 Red. masses --      1.0130
 Frc consts  --      0.6167
 IR Inten    --      0.0067

 - Thermochemistry -
 -------------------
 Temperature   298.150 Kelvin.  Pressure   1.00000 Atm.
 Atom     1 has atomic number  1 and mass   1.00783

 Molecular mass:    21.01405 amu.
 Principal axes and moments of inertia in atomic units:
                           1         2         3
     Eigenvalues --     0.00000  82.06331  82.06331
           X            1.00000  -0.00000   0.00000
           Y            0.00000   1.00000   0.00000
           Z            0.00000   0.00000   1.00000
 This molecule is a prolate symmetric top.
 Rotational symmetry number  1.
 Rotational temperature (Kelvin)      1.05545
 Rotational constant (GHZ):          21.992059
    2 imaginary frequencies ignored.
 Zero-point vibrational energy      12159.9 (Joules/Mol)
                                    2.90628 (Kcal/Mol)
 Vibrational temperatures:   1462.50  1462.50
          (Kelvin)

 Zero-point correction=                           0.004631 (Hartree/Particle)
 Thermal correction to Energy=                    0.007061
 Thermal correction to Enthalpy=                  0.008005
 Thermal correction to Gibbs Free Energy=        -0.015667
 Sum of electronic and zero-point Energies=           -100.804671
 Sum of electronic and thermal Energies=              -100.802241
 Sum of electronic and thermal Enthalpies=            -100.801297
 Sum of electronic and thermal Free Energies=         -100.824969

                     E (Thermal)             CV                S
                      KCal/Mol        Cal/Mol-Kelvin    Cal/Mol-Kelvin
 Total                    4.431              5.687             49.823
 Electronic               0.000              0.000              1.377
 Translational            0.889              2.981             35.068
 Rotational               0.592              1.987             13.202
 Vibrational              2.950              0.719              0.175

 Normal termination of Gaussian 16 at Fri Aug 22 18:13:52 2025.
