 Gaussian 16, Revision C.01,
 Gaussian 16:  ES64L-G16RevC.01  3-Jul-2019

 -----------------------------------------
 # sp b3lyp/6-311g** Force nosymm scf=(qc)
 -----------------------------------------

 -------------------
 Title Card Required
 -------------------
 Symbolic Z-matrix:
 Charge =  0 Multiplicity = 2

                          Input orientation:
 ---------------------------------------------------------------------
 Center     Atomic      Atomic             Coordinates (Angstroms)
 Number     Number       Type             X           Y           Z
 ---------------------------------------------------------------------
      1          1           0        0.000000    0.000000    0.000000
      2          1           0       -3.250000    0.000000    0.000000
      3          9           0        0.650000    0.000000    0.000000
 ---------------------------------------------------------------------

 SCF Done:  E(UB3LYP) =  -100.800721564     a.u. after    6 cycles

 Alpha  occ. eigenvalues --  -24.62932  -1.31309  -0.59800  -0.42352  -0.42352
 Alpha  occ. eigenvalues --   -0.33560
 Alpha virt. eigenvalues --    0.07073   0.25277   0.55394   0.92887   0.92887
 Alpha virt. eigenvalues --    0.94693   1.23351   1.23957   1.23957   1.34040
 Alpha virt. eigenvalues --    1.46917   1.46917   1.96134   2.14948   3.09630

  Beta  occ. eigenvalues --  -24.62931  -1.31306  -0.59798  -0.42351  -0.42351
  Beta virt. eigenvalues --   -0.05548   0.07801   0.39486   0.55489   0.92886
  Beta virt. eigenvalues --    0.92886   0.94687   1.32520   1.46918   1.46918
  Beta virt. eigenvalues --    1.50824   1.50824   1.51685   1.96120   2.44839

 Mulliken charges and spin densities:
               1          2
     1  H    0.254084   0.000842
     2  H    0.001190   0.998473
     3  F   -0.255275   0.000685
 Sum of Mulliken charges =   0.00000   1.00000

 Dipole moment (field-independent basis, Debye):
    X=             -1.5222    Y=              0.0000    Z=             -0.0000  Tot=              1.5222
 Quadrupole moment (field-independent basis, Debye-Ang):
   XX=             -7.0956   YY=             -6.6078   ZZ=             -6.6078
   XY=              0.0000   XZ=             -0.0000   YZ=             -0.0000

  Exact polarizability:       3.940      -0.000       2.449      -0.000       0.000       2.449
 Approx polarizability:       4.191      -0.000       2.430       0.000       0.000       2.430

 ******    3 imaginary frequencies (negative Signs) ******

                      1                      2                      3
                      A                      A                      A
 Frequencies --  -4591.3065             -4591.3065               -36.9643
 Red. masses --      1.0420                 1.0420                 1.0532
 Frc consts  --     12.9413                12.9413                 0.0008
 IR Inten    --    223.9346               223.9346                 0.0502

                      4
                      A
 Frequencies --  10873.5091
 Red. masses --      1.0583
 Frc consts  --     73.7231
 IR Inten    --    105.0485

 - Thermochemistry -
 -------------------
 Temperature   298.150 Kelvin.  Pressure   1.00000 Atm.
 Atom     1 has atomic number  1 and mass   1.00783

 Molecular mass:    21.01405 amu.
 Principal axes and moments of inertia in atomic units:
                           1         2         3
     Eigenvalues --     0.00000  52.68811  52.68811
           X            1.00000  -0.00000   0.00000
           Y            0.00000   1.00000   0.00000
           Z            0.00000   0.00000   1.00000
 This molecule is a prolate symmetric top.
 Rotational symmetry number  1.
 Rotational temperature (Kelvin)      1.64390
 Rotational constant (GHZ):          34.253294
    3 imaginary frequencies ignored.
 Zero-point vibrational energy      65038.0 (Joules/Mol)
                                   15.54446 (Kcal/Mol)
 Vibrational temperatures:  15644.55
          (Kelvin)

 Zero-point correction=                           0.024772 (Hartree/Particle)
 Thermal correction to Energy=                    0.027132
 Thermal correction to Enthalpy=                  0.028076
 Thermal correction to Gibbs Free Energy=         0.004905
 Sum of electronic and zero-point Energies=           -100.775950
 Sum of electronic and thermal Energies=              -100.773589
 Sum of electronic and thermal Enthalpies=            -100.772645
 Sum of electronic and thermal Free Energies=         -100.795816

                     E (Thermal)             CV                S
                      KCal/Mol        Cal/Mol-Kelvin    Cal/Mol-Kelvin
 Total                   17.026              4.968             48.767
 Electronic               0.000              0.000              1.377
 Translational            0.889              2.981             35.068
 Rotational               0.592              1.987             12.322
 Vibrational             15.544              0.000              0.000

 Normal termination of Gaussian 16 at Fri Aug 22 15:44:53 2025.
