 Gaussian 16, Revision C.01,
 Gaussian 16:  ES64L-G16RevC.01  3-Jul-2019

 -----------------------------------------
 # sp b3lyp/6-311g** Force nosymm scf=(qc)
 -----------------------------------------

 -------------------
 Title Card Required
 -------------------
 Symbolic Z-matrix:
 Charge =  0 Multiplicity = 2

                          Input orientation:
 ---------------------------------------------------------------------
 Center     Atomic      Atomic             Coordinates (Angstroms)
 Number     Number       Type             X           Y           Z
 ---------------------------------------------------------------------
      1          1           0        0.000000    0.000000    0.000000
      2          1           0       -2.950000    0.000000    0.000000
      3          9           0        1.300000    0.000000    0.000000
 ---------------------------------------------------------------------

 SCF Done:  E(UB3LYP) =  -100.901511802     a.u. after    7 cycles

 Alpha  occ. eigenvalues --  -24.64293  -1.11059  -0.46031  -0.37004  -0.37004
 Alpha  occ. eigenvalues --   -0.34578
 Alpha virt. eigenvalues --   -0.08688   0.22600   0.28017   0.93071   0.93071
 Alpha virt. eigenvalues --    1.02099   1.21495   1.22949   1.22949   1.24222
 Alpha virt. eigenvalues --    1.33889   1.33889   1.71248   2.13916   2.25192

  Beta  occ. eigenvalues --  -24.64270  -1.10998  -0.45951  -0.36982  -0.36982
  Beta virt. eigenvalues --   -0.10931  -0.05550   0.25959   0.37443   0.93067
  Beta virt. eigenvalues --    0.93067   1.02162   1.22301   1.33824   1.33824
  Beta virt. eigenvalues --    1.44954   1.45252   1.45252   1.71418   2.25105

 Mulliken charges and spin densities:
               1          2
     1  H    0.355068  -0.001836
     2  H    0.004990   0.994301
     3  F   -0.360059   0.007535
 Sum of Mulliken charges =   0.00000   1.00000

 Dipole moment (field-independent basis, Debye):
    X=             -2.4637    Y=              0.0000    Z=              0.0000  Tot=              2.4637
 Quadrupole moment (field-independent basis, Debye-Ang):
   XX=             -9.0348   YY=             -7.2000   ZZ=             -7.2000
   XY=              0.0000   XZ=              0.0000   YZ=             -0.0000

  Exact polarizability:      12.955      -0.000       2.287       0.000       0.000       2.287
 Approx polarizability:      18.908       0.000       2.233       0.000       0.000       2.233

 ******    2 imaginary frequencies (negative Signs) ******

                      1                      2                      3
                      A                      A                      A
 Frequencies --   -643.1355              -114.0886              1149.3218
 Red. masses --      1.0510                 1.0606                 1.0301
 Frc consts  --      0.2561                 0.0081                 0.8017
 IR Inten    --     80.6088                 0.0985               129.8582

                      4
                      A
 Frequencies --   1149.3218
 Red. masses --      1.0301
 Frc consts  --      0.8017
 IR Inten    --    129.8582

 - Thermochemistry -
 -------------------
 Temperature   298.150 Kelvin.  Pressure   1.00000 Atm.
 Atom     1 has atomic number  1 and mass   1.00783

 Molecular mass:    21.01405 amu.
 Principal axes and moments of inertia in atomic units:
                           1         2         3
     Eigenvalues --     0.00000  65.77269  65.77269
           X            1.00000  -0.00000   0.00000
           Y            0.00000   1.00000   0.00000
           Z            0.00000   0.00000   1.00000
 This molecule is a prolate symmetric top.
 Rotational symmetry number  1.
 Rotational temperature (Kelvin)      1.31687
 Rotational constant (GHZ):          27.439066
    2 imaginary frequencies ignored.
 Zero-point vibrational energy      13748.9 (Joules/Mol)
                                    3.28608 (Kcal/Mol)
 Vibrational temperatures:   1653.62  1653.62
          (Kelvin)

 Zero-point correction=                           0.005237 (Hartree/Particle)
 Thermal correction to Energy=                    0.007638
 Thermal correction to Enthalpy=                  0.008582
 Thermal correction to Gibbs Free Energy=        -0.014846
 Sum of electronic and zero-point Energies=           -100.896275
 Sum of electronic and thermal Energies=              -100.893874
 Sum of electronic and thermal Enthalpies=            -100.892929
 Sum of electronic and thermal Free Energies=         -100.916358

                     E (Thermal)             CV                S
                      KCal/Mol        Cal/Mol-Kelvin    Cal/Mol-Kelvin
 Total                    4.793              5.449             49.310
 Electronic               0.000              0.000              1.377
 Translational            0.889              2.981             35.068
 Rotational               0.592              1.987             12.763
 Vibrational              3.312              0.481              0.102

 Normal termination of Gaussian 16 at Fri Aug 22 16:15:42 2025.
