 Gaussian 16, Revision C.01,
 Gaussian 16:  ES64L-G16RevC.01  3-Jul-2019

 -----------------------------------------
 # sp b3lyp/6-311g** Force nosymm scf=(qc)
 -----------------------------------------

 -------------------
 Title Card Required
 -------------------
 Symbolic Z-matrix:
 Charge =  0 Multiplicity = 2

                          Input orientation:
 ---------------------------------------------------------------------
 Center     Atomic      Atomic             Coordinates (Angstroms)
 Number     Number       Type             X           Y           Z
 ---------------------------------------------------------------------
      1          1           0        0.000000    0.000000    0.000000
      2          1           0       -1.950000    0.000000    0.000000
      3          9           0        2.600000    0.000000    0.000000
 ---------------------------------------------------------------------

 SCF Done:  E(UB3LYP) =  -100.782522091     a.u. after   20 cycles

 Alpha  occ. eigenvalues --  -24.72542  -1.18698  -0.51656  -0.43371  -0.43371
 Alpha  occ. eigenvalues --   -0.34665
 Alpha virt. eigenvalues --   -0.12545   0.24925   0.31772   0.90168   0.93187
 Alpha virt. eigenvalues --    0.93187   1.05537   1.17662   1.23261   1.23261
 Alpha virt. eigenvalues --    1.35371   1.35371   1.51376   2.11583   2.36083

  Beta  occ. eigenvalues --  -24.69636  -1.10407  -0.40470  -0.40470  -0.34839
  Beta virt. eigenvalues --   -0.24009  -0.11628   0.26464   0.31734   0.94592
  Beta virt. eigenvalues --    0.94592   0.97636   1.08562   1.19710   1.23136
  Beta virt. eigenvalues --    1.23136   1.36801   1.36801   1.52185   2.12510

 Mulliken charges and spin densities:
               1          2
     1  H    0.042659  -0.762782
     2  H    0.027601   0.843801
     3  F   -0.070261   0.918982
 Sum of Mulliken charges =  -0.00000   1.00000

 Dipole moment (field-independent basis, Debye):
    X=             -1.1901    Y=             -0.0000    Z=              0.0000  Tot=              1.1901
 Quadrupole moment (field-independent basis, Debye-Ang):
   XX=             -7.9116   YY=             -7.6801   ZZ=             -7.6801
   XY=             -0.0000   XZ=              0.0000   YZ=              0.0000

  Exact polarizability:      61.204      -0.000       2.007       0.000       0.000       2.007
 Approx polarizability:      64.969      -0.000       1.933       0.000      -0.000       1.933

 ******    2 imaginary frequencies (negative Signs) ******

                      1                      2                      3
                      A                      A                      A
 Frequencies --  -1474.7624              -355.5049               602.5241
 Red. masses --      1.0086                 1.1076                 1.0148
 Frc consts  --      1.2924                 0.0825                 0.2171
 IR Inten    --     81.3805                47.9696                 0.8357

                      4
                      A
 Frequencies --    602.5241
 Red. masses --      1.0148
 Frc consts  --      0.2171
 IR Inten    --      0.8357

 - Thermochemistry -
 -------------------
 Temperature   298.150 Kelvin.  Pressure   1.00000 Atm.
 Atom     1 has atomic number  1 and mass   1.00783

 Molecular mass:    21.01405 amu.
 Principal axes and moments of inertia in atomic units:
                           1         2         3
     Eigenvalues --     0.00000  90.01368  90.01368
           X            1.00000  -0.00000   0.00000
           Y            0.00000   1.00000   0.00000
           Z            0.00000   0.00000   1.00000
 This molecule is a prolate symmetric top.
 Rotational symmetry number  1.
 Rotational temperature (Kelvin)      0.96223
 Rotational constant (GHZ):          20.049634
    2 imaginary frequencies ignored.
 Zero-point vibrational energy       7207.8 (Joules/Mol)
                                    1.72270 (Kcal/Mol)
 Warning -- explicit consideration of   2 degrees of freedom as
           vibrations may cause significant error
 Vibrational temperatures:    866.90   866.90
          (Kelvin)

 Zero-point correction=                           0.002745 (Hartree/Particle)
 Thermal correction to Energy=                    0.005423
 Thermal correction to Enthalpy=                  0.006367
 Thermal correction to Gibbs Free Energy=        -0.017733
 Sum of electronic and zero-point Energies=           -100.779777
 Sum of electronic and thermal Energies=              -100.777099
 Sum of electronic and thermal Enthalpies=            -100.776155
 Sum of electronic and thermal Free Energies=         -100.800255

                     E (Thermal)             CV                S
                      KCal/Mol        Cal/Mol-Kelvin    Cal/Mol-Kelvin
 Total                    3.403              7.021             50.722
 Electronic               0.000              0.000              1.377
 Translational            0.889              2.981             35.068
 Rotational               0.592              1.987             13.386
 Vibrational              1.922              2.053              0.891
 Vibration     1          0.961              1.026              0.445
 Vibration     2          0.961              1.026              0.445

 Normal termination of Gaussian 16 at Fri Aug 22 18:03:40 2025.
