 Gaussian 16, Revision C.01,
 Gaussian 16:  ES64L-G16RevC.01  3-Jul-2019

 -----------------------------------------
 # sp b3lyp/6-311g** Force nosymm scf=(qc)
 -----------------------------------------

 -------------------
 Title Card Required
 -------------------
 Symbolic Z-matrix:
 Charge =  0 Multiplicity = 2

                          Input orientation:
 ---------------------------------------------------------------------
 Center     Atomic      Atomic             Coordinates (Angstroms)
 Number     Number       Type             X           Y           Z
 ---------------------------------------------------------------------
      1          1           0        0.000000    0.000000    0.000000
      2          1           0       -0.800000    0.000000    0.000000
      3          9           0        1.400000    0.000000    0.000000
 ---------------------------------------------------------------------

 SCF Done:  E(UB3LYP) =  -100.940279688     a.u. after    7 cycles

 Alpha  occ. eigenvalues --  -24.69679  -1.17254  -0.56321  -0.41713  -0.41713
 Alpha  occ. eigenvalues --   -0.41235
 Alpha virt. eigenvalues --    0.08795   0.19600   0.41922   0.88555   0.88555
 Alpha virt. eigenvalues --    0.97492   1.08180   1.08180   1.33163   1.66277
 Alpha virt. eigenvalues --    1.76827   1.76827   2.06063   2.39008   2.85880

  Beta  occ. eigenvalues --  -24.67276  -1.10765  -0.47885  -0.39404  -0.39404
  Beta virt. eigenvalues --   -0.22725   0.10473   0.20718   0.44819   0.89748
  Beta virt. eigenvalues --    0.89748   1.02963   1.11072   1.11072   1.37027
  Beta virt. eigenvalues --    1.69835   1.78665   1.78665   2.07110   2.43001

 Mulliken charges and spin densities:
               1          2
     1  H    0.173520  -0.052404
     2  H    0.019221   0.336865
     3  F   -0.192741   0.715538
 Sum of Mulliken charges =   0.00000   1.00000

 Dipole moment (field-independent basis, Debye):
    X=             -1.4372    Y=             -0.0000    Z=              0.0000  Tot=              1.4372
 Quadrupole moment (field-independent basis, Debye-Ang):
   XX=             -7.1316   YY=             -6.7910   ZZ=             -6.7910
   XY=             -0.0000   XZ=              0.0000   YZ=             -0.0000

  Exact polarizability:      20.911       0.000       2.378      -0.000      -0.000       2.378
 Approx polarizability:      27.878      -0.000       2.405      -0.000      -0.000       2.405

 ******    3 imaginary frequencies (negative Signs) ******

                      1                      2                      3
                      A                      A                      A
 Frequencies --   -704.6914              -158.3505              -158.3505
 Red. masses --      1.1048                 1.0126                 1.0126
 Frc consts  --      0.3232                 0.0150                 0.0150
 IR Inten    --    158.2066                 3.1818                 3.1818

                      4
                      A
 Frequencies --   3111.7548
 Red. masses --      1.0109
 Frc consts  --      5.7673
 IR Inten    --    684.9669

 - Thermochemistry -
 -------------------
 Temperature   298.150 Kelvin.  Pressure   1.00000 Atm.
 Atom     1 has atomic number  1 and mass   1.00783

 Molecular mass:    21.01405 amu.
 Principal axes and moments of inertia in atomic units:
                           1         2         3
     Eigenvalues --     0.00000  22.23627  22.23627
           X            1.00000  -0.00000   0.00000
           Y            0.00000   1.00000   0.00000
           Z            0.00000   0.00000   1.00000
 This molecule is a prolate symmetric top.
 Rotational symmetry number  1.
 Rotational temperature (Kelvin)      3.89516
 Rotational constant (GHZ):          81.162039
    3 imaginary frequencies ignored.
 Zero-point vibrational energy      18612.4 (Joules/Mol)
                                    4.44848 (Kcal/Mol)
 Vibrational temperatures:   4477.12
          (Kelvin)

 Zero-point correction=                           0.007089 (Hartree/Particle)
 Thermal correction to Energy=                    0.009450
 Thermal correction to Enthalpy=                  0.010394
 Thermal correction to Gibbs Free Energy=        -0.011963
 Sum of electronic and zero-point Energies=           -100.933191
 Sum of electronic and thermal Energies=              -100.930830
 Sum of electronic and thermal Enthalpies=            -100.929886
 Sum of electronic and thermal Free Energies=         -100.952242

                     E (Thermal)             CV                S
                      KCal/Mol        Cal/Mol-Kelvin    Cal/Mol-Kelvin
 Total                    5.930              4.968             47.053
 Electronic               0.000              0.000              1.377
 Translational            0.889              2.981             35.068
 Rotational               0.592              1.987             10.607
 Vibrational              4.448              0.000              0.000

 Normal termination of Gaussian 16 at Fri Aug 22 16:19:11 2025.
