 Gaussian 16, Revision C.01,
 Gaussian 16:  ES64L-G16RevC.01  3-Jul-2019

 -----------------------------------------
 # sp b3lyp/6-311g** Force nosymm scf=(qc)
 -----------------------------------------

 -------------------
 Title Card Required
 -------------------
 Symbolic Z-matrix:
 Charge =  0 Multiplicity = 2

                          Input orientation:
 ---------------------------------------------------------------------
 Center     Atomic      Atomic             Coordinates (Angstroms)
 Number     Number       Type             X           Y           Z
 ---------------------------------------------------------------------
      1          1           0        0.000000    0.000000    0.000000
      2          1           0       -2.300000    0.000000    0.000000
      3          9           0        1.750000    0.000000    0.000000
 ---------------------------------------------------------------------

 SCF Done:  E(UB3LYP) =  -100.815658533     a.u. after   15 cycles

 Alpha  occ. eigenvalues --  -24.65882  -1.12054  -0.44807  -0.37719  -0.37719
 Alpha  occ. eigenvalues --   -0.36110
 Alpha virt. eigenvalues --   -0.14201   0.23672   0.28858   0.94920   0.94920
 Alpha virt. eigenvalues --    0.94921   1.06320   1.21573   1.21573   1.26295
 Alpha virt. eigenvalues --    1.33608   1.33608   1.71601   2.11860   2.25701

  Beta  occ. eigenvalues --  -24.64122  -1.07229  -0.39330  -0.36006  -0.36006
  Beta virt. eigenvalues --   -0.19299  -0.10220   0.24781   0.33698   0.94855
  Beta virt. eigenvalues --    0.94855   0.96362   1.08493   1.25149   1.25149
  Beta virt. eigenvalues --    1.39365   1.39365   1.42349   1.67833   2.13057

 Mulliken charges and spin densities:
               1          2
     1  H    0.242723  -0.506711
     2  H    0.030479   0.953102
     3  F   -0.273201   0.553609
 Sum of Mulliken charges =   0.00000   1.00000

 Dipole moment (field-independent basis, Debye):
    X=             -2.6696    Y=              0.0000    Z=             -0.0000  Tot=              2.6696
 Quadrupole moment (field-independent basis, Debye-Ang):
   XX=             -9.2792   YY=             -7.4509   ZZ=             -7.4509
   XY=              0.0000   XZ=             -0.0000   YZ=              0.0000

  Exact polarizability:      36.052       0.000       2.117      -0.000      -0.000       2.117
 Approx polarizability:      46.552      -0.000       2.018       0.000      -0.000       2.018

 ******    2 imaginary frequencies (negative Signs) ******

                      1                      2                      3
                      A                      A                      A
 Frequencies --  -1709.2107              -453.7595               724.7802
 Red. masses --      1.0448                 1.0669                 1.0216
 Frc consts  --      1.7984                 0.1294                 0.3162
 IR Inten    --     79.9301                15.0306                45.8662

                      4
                      A
 Frequencies --    724.7802
 Red. masses --      1.0216
 Frc consts  --      0.3162
 IR Inten    --     45.8662

 - Thermochemistry -
 -------------------
 Temperature   298.150 Kelvin.  Pressure   1.00000 Atm.
 Atom     1 has atomic number  1 and mass   1.00783

 Molecular mass:    21.01405 amu.
 Principal axes and moments of inertia in atomic units:
                           1         2         3
     Eigenvalues --     0.00000  64.24820  64.24820
           X            1.00000  -0.00000   0.00000
           Y            0.00000   1.00000   0.00000
           Z            0.00000   0.00000   1.00000
 This molecule is a prolate symmetric top.
 Rotational symmetry number  1.
 Rotational temperature (Kelvin)      1.34811
 Rotational constant (GHZ):          28.090142
    2 imaginary frequencies ignored.
 Zero-point vibrational energy       8670.3 (Joules/Mol)
                                    2.07225 (Kcal/Mol)
 Vibrational temperatures:   1042.80  1042.80
          (Kelvin)

 Zero-point correction=                           0.003302 (Hartree/Particle)
 Thermal correction to Energy=                    0.005869
 Thermal correction to Enthalpy=                  0.006813
 Thermal correction to Gibbs Free Energy=        -0.016809
 Sum of electronic and zero-point Energies=           -100.812356
 Sum of electronic and thermal Energies=              -100.809790
 Sum of electronic and thermal Enthalpies=            -100.808845
 Sum of electronic and thermal Free Energies=         -100.832468

                     E (Thermal)             CV                S
                      KCal/Mol        Cal/Mol-Kelvin    Cal/Mol-Kelvin
 Total                    3.683              6.533             49.717
 Electronic               0.000              0.000              1.377
 Translational            0.889              2.981             35.068
 Rotational               0.592              1.987             12.716
 Vibrational              2.202              1.565              0.556

 Normal termination of Gaussian 16 at Fri Aug 22 16:40:44 2025.
