 Gaussian 16, Revision C.01,
 Gaussian 16:  ES64L-G16RevC.01  3-Jul-2019

 -----------------------------------------
 # sp b3lyp/6-311g** Force nosymm scf=(qc)
 -----------------------------------------

 -------------------
 Title Card Required
 -------------------
 Symbolic Z-matrix:
 Charge =  0 Multiplicity = 2

                          Input orientation:
 ---------------------------------------------------------------------
 Center     Atomic      Atomic             Coordinates (Angstroms)
 Number     Number       Type             X           Y           Z
 ---------------------------------------------------------------------
      1          1           0        0.000000    0.000000    0.000000
      2          1           0       -1.450000    0.000000    0.000000
      3          9           0        2.000000    0.000000    0.000000
 ---------------------------------------------------------------------

 SCF Done:  E(UB3LYP) =  -100.841497395     a.u. after   13 cycles

 Alpha  occ. eigenvalues --  -24.70151  -1.16503  -0.49694  -0.41434  -0.41434
 Alpha  occ. eigenvalues --   -0.38088
 Alpha virt. eigenvalues --   -0.09712   0.22297   0.31344   0.85870   0.93579
 Alpha virt. eigenvalues --    0.93579   1.03226   1.15436   1.15436   1.30336
 Alpha virt. eigenvalues --    1.40524   1.40524   1.86604   2.21232   2.46047

  Beta  occ. eigenvalues --  -24.67542  -1.09158  -0.38851  -0.38851  -0.37625
  Beta virt. eigenvalues --   -0.23764  -0.07989   0.24151   0.31355   0.90323
  Beta virt. eigenvalues --    0.94622   0.94622   1.07181   1.17344   1.17344
  Beta virt. eigenvalues --    1.34579   1.41428   1.41428   1.88338   2.22274

 Mulliken charges and spin densities:
               1          2
     1  H    0.078672  -0.308818
     2  H    0.061889   0.489816
     3  F   -0.140561   0.819002
 Sum of Mulliken charges =  -0.00000   1.00000

 Dipole moment (field-independent basis, Debye):
    X=             -1.8204    Y=              0.0000    Z=             -0.0000  Tot=              1.8204
 Quadrupole moment (field-independent basis, Debye-Ang):
   XX=             -7.5561   YY=             -7.5104   ZZ=             -7.5104
   XY=              0.0000   XZ=             -0.0000   YZ=              0.0000

  Exact polarizability:      51.018       0.000       2.128      -0.000      -0.000       2.128
 Approx polarizability:      78.368      -0.000       2.087       0.000      -0.000       2.087

 ******    2 imaginary frequencies (negative Signs) ******

                      1                      2                      3
                      A                      A                      A
 Frequencies --  -2144.5866              -445.9490              1136.2918
 Red. masses --      1.0121                 1.1034                 1.0145
 Frc consts  --      2.7426                 0.1293                 0.7718
 IR Inten    --    912.3118                12.7294                 1.3717

                      4
                      A
 Frequencies --   1136.2918
 Red. masses --      1.0145
 Frc consts  --      0.7718
 IR Inten    --      1.3717

 - Thermochemistry -
 -------------------
 Temperature   298.150 Kelvin.  Pressure   1.00000 Atm.
 Atom     1 has atomic number  1 and mass   1.00783

 Molecular mass:    21.01405 amu.
 Principal axes and moments of inertia in atomic units:
                           1         2         3
     Eigenvalues --     0.00000  52.10638  52.10638
           X            1.00000  -0.00000   0.00000
           Y            0.00000   1.00000   0.00000
           Z            0.00000   0.00000   1.00000
 This molecule is a prolate symmetric top.
 Rotational symmetry number  1.
 Rotational temperature (Kelvin)      1.66225
 Rotational constant (GHZ):          34.635707
    2 imaginary frequencies ignored.
 Zero-point vibrational energy      13593.1 (Joules/Mol)
                                    3.24882 (Kcal/Mol)
 Vibrational temperatures:   1634.87  1634.87
          (Kelvin)

 Zero-point correction=                           0.005177 (Hartree/Particle)
 Thermal correction to Energy=                    0.007581
 Thermal correction to Enthalpy=                  0.008525
 Thermal correction to Gibbs Free Energy=        -0.014686
 Sum of electronic and zero-point Energies=           -100.836320
 Sum of electronic and thermal Energies=              -100.833916
 Sum of electronic and thermal Enthalpies=            -100.832972
 Sum of electronic and thermal Free Energies=         -100.856184

                     E (Thermal)             CV                S
                      KCal/Mol        Cal/Mol-Kelvin    Cal/Mol-Kelvin
 Total                    4.757              5.469             48.853
 Electronic               0.000              0.000              1.377
 Translational            0.889              2.981             35.068
 Rotational               0.592              1.987             12.300
 Vibrational              3.276              0.501              0.107

 Normal termination of Gaussian 16 at Fri Aug 22 16:56:00 2025.
