 Gaussian 16, Revision C.01,
 Gaussian 16:  ES64L-G16RevC.01  3-Jul-2019

 -----------------------------------------
 # sp b3lyp/6-311g** Force nosymm scf=(qc)
 -----------------------------------------

 -------------------
 Title Card Required
 -------------------
 Symbolic Z-matrix:
 Charge =  0 Multiplicity = 2

                          Input orientation:
 ---------------------------------------------------------------------
 Center     Atomic      Atomic             Coordinates (Angstroms)
 Number     Number       Type             X           Y           Z
 ---------------------------------------------------------------------
      1          1           0        0.000000    0.000000    0.000000
      2          1           0       -2.400000    0.000000    0.000000
      3          9           0        3.250000    0.000000    0.000000
 ---------------------------------------------------------------------

 SCF Done:  E(UB3LYP) =  -100.764833723     a.u. after   22 cycles

 Alpha  occ. eigenvalues --  -24.74949  -1.20943  -0.54069  -0.45398  -0.45398
 Alpha  occ. eigenvalues --   -0.32923
 Alpha virt. eigenvalues --   -0.10242   0.25634   0.33608   0.88539   0.91749
 Alpha virt. eigenvalues --    0.91749   1.02634   1.24777   1.24777   1.26137
 Alpha virt. eigenvalues --    1.40093   1.40093   1.42629   2.15181   2.36152

  Beta  occ. eigenvalues --  -24.71866  -1.12091  -0.42309  -0.42309  -0.33333
  Beta virt. eigenvalues --   -0.25272  -0.09512   0.25566   0.34562   0.93229
  Beta virt. eigenvalues --    0.93229   0.97542   1.06608   1.24270   1.24270
  Beta virt. eigenvalues --    1.25509   1.41246   1.41246   1.43768   2.16083

 Mulliken charges and spin densities:
               1          2
     1  H    0.015472  -0.937440
     2  H    0.004641   0.959949
     3  F   -0.020113   0.977491
 Sum of Mulliken charges =   0.00000   1.00000

 Dipole moment (field-independent basis, Debye):
    X=             -0.3886    Y=              0.0000    Z=              0.0000  Tot=              0.3886
 Quadrupole moment (field-independent basis, Debye-Ang):
   XX=             -7.4072   YY=             -7.6703   ZZ=             -7.6703
   XY=             -0.0000   XZ=             -0.0000   YZ=              0.0000

  Exact polarizability:      42.509      -0.000       2.016      -0.000      -0.000       2.016
 Approx polarizability:      34.173      -0.000       1.926      -0.000      -0.000       1.926

 ******    2 imaginary frequencies (negative Signs) ******

                      1                      2                      3
                      A                      A                      A
 Frequencies --   -780.9807              -185.7198               291.5608
 Red. masses --      1.0082                 1.1080                 1.0147
 Frc consts  --      0.3623                 0.0225                 0.0508
 IR Inten    --     13.1559                13.4520                 0.1624

                      4
                      A
 Frequencies --    291.5608
 Red. masses --      1.0147
 Frc consts  --      0.0508
 IR Inten    --      0.1624

 - Thermochemistry -
 -------------------
 Temperature   298.150 Kelvin.  Pressure   1.00000 Atm.
 Atom     1 has atomic number  1 and mass   1.00783

 Molecular mass:    21.01405 amu.
 Principal axes and moments of inertia in atomic units:
                           1         2         3
     Eigenvalues --     0.00000 139.23168 139.23168
           X            1.00000  -0.00000   0.00000
           Y            0.00000   1.00000   0.00000
           Z            0.00000   0.00000   1.00000
 This molecule is a prolate symmetric top.
 Rotational symmetry number  1.
 Rotational temperature (Kelvin)      0.62208
 Rotational constant (GHZ):          12.962144
    2 imaginary frequencies ignored.
 Zero-point vibrational energy       3487.8 (Joules/Mol)
                                    0.83361 (Kcal/Mol)
 Warning -- explicit consideration of   2 degrees of freedom as
           vibrations may cause significant error
 Vibrational temperatures:    419.49   419.49
          (Kelvin)

 Zero-point correction=                           0.001328 (Hartree/Particle)
 Thermal correction to Energy=                    0.004551
 Thermal correction to Enthalpy=                  0.005495
 Thermal correction to Gibbs Free Energy=        -0.019986
 Sum of electronic and zero-point Energies=           -100.763505
 Sum of electronic and thermal Energies=              -100.760283
 Sum of electronic and thermal Enthalpies=            -100.759339
 Sum of electronic and thermal Free Energies=         -100.784819

                     E (Thermal)             CV                S
                      KCal/Mol        Cal/Mol-Kelvin    Cal/Mol-Kelvin
 Total                    2.856              8.347             53.628
 Electronic               0.000              0.000              1.377
 Translational            0.889              2.981             35.068
 Rotational               0.592              1.987             14.253
 Vibrational              1.374              3.379              2.930
 Vibration     1          0.687              1.689              1.465
 Vibration     2          0.687              1.689              1.465

 Normal termination of Gaussian 16 at Fri Aug 22 20:34:55 2025.
