 Gaussian 16, Revision C.01,
 Gaussian 16:  ES64L-G16RevC.01  3-Jul-2019

 -----------------------------------------
 # sp b3lyp/6-311g** Force nosymm scf=(qc)
 -----------------------------------------

 -------------------
 Title Card Required
 -------------------
 Symbolic Z-matrix:
 Charge =  0 Multiplicity = 2

                          Input orientation:
 ---------------------------------------------------------------------
 Center     Atomic      Atomic             Coordinates (Angstroms)
 Number     Number       Type             X           Y           Z
 ---------------------------------------------------------------------
      1          1           0        0.000000    0.000000    0.000000
      2          1           0       -2.800000    0.000000    0.000000
      3          9           0        3.200000    0.000000    0.000000
 ---------------------------------------------------------------------

 SCF Done:  E(UB3LYP) =  -100.761609560     a.u. after   23 cycles

 Alpha  occ. eigenvalues --  -24.74758  -1.20767  -0.53878  -0.45238  -0.45238
 Alpha  occ. eigenvalues --   -0.32677
 Alpha virt. eigenvalues --   -0.09092   0.25127   0.34757   0.88715   0.91868
 Alpha virt. eigenvalues --    0.91868   1.02878   1.24889   1.24889   1.26104
 Alpha virt. eigenvalues --    1.42260   1.42260   1.42708   2.15786   2.38549

  Beta  occ. eigenvalues --  -24.71686  -1.11950  -0.42161  -0.42161  -0.33353
  Beta virt. eigenvalues --   -0.25157  -0.08140   0.25002   0.36026   0.93344
  Beta virt. eigenvalues --    0.93344   0.97659   1.06801   1.24089   1.24089
  Beta virt. eigenvalues --    1.25209   1.43788   1.43788   1.44128   2.16440

 Mulliken charges and spin densities:
               1          2
     1  H    0.021740  -0.961112
     2  H    0.001929   0.987288
     3  F   -0.023669   0.973824
 Sum of Mulliken charges =  -0.00000   1.00000

 Dipole moment (field-independent basis, Debye):
    X=             -0.4148    Y=              0.0000    Z=             -0.0000  Tot=              0.4148
 Quadrupole moment (field-independent basis, Debye-Ang):
   XX=             -7.7394   YY=             -7.6383   ZZ=             -7.6383
   XY=              0.0000   XZ=             -0.0000   YZ=              0.0000

  Exact polarizability:      35.269       0.000       2.022      -0.000       0.000       2.022
 Approx polarizability:      30.435       0.000       1.926      -0.000      -0.000       1.926

 ******    2 imaginary frequencies (negative Signs) ******

                      1                      2                      3
                      A                      A                      A
 Frequencies --   -479.3274              -181.0233               174.4766
 Red. masses --      1.0120                 1.1035                 1.0164
 Frc consts  --      0.1370                 0.0213                 0.0182
 IR Inten    --     17.8664                 9.4976                 0.3954

                      4
                      A
 Frequencies --    174.4766
 Red. masses --      1.0164
 Frc consts  --      0.0182
 IR Inten    --      0.3954

 - Thermochemistry -
 -------------------
 Temperature   298.150 Kelvin.  Pressure   1.00000 Atm.
 Atom     1 has atomic number  1 and mass   1.00783

 Molecular mass:    21.01405 amu.
 Principal axes and moments of inertia in atomic units:
                           1         2         3
     Eigenvalues --     0.00000 151.80871 151.80871
           X            1.00000  -0.00000   0.00000
           Y            0.00000   1.00000   0.00000
           Z            0.00000   0.00000   1.00000
 This molecule is a prolate symmetric top.
 Rotational symmetry number  1.
 Rotational temperature (Kelvin)      0.57055
 Rotational constant (GHZ):          11.888259
    2 imaginary frequencies ignored.
 Zero-point vibrational energy       2087.2 (Joules/Mol)
                                    0.49885 (Kcal/Mol)
 Warning -- explicit consideration of   2 degrees of freedom as
           vibrations may cause significant error
 Vibrational temperatures:    251.03   251.03
          (Kelvin)

 Zero-point correction=                           0.000795 (Hartree/Particle)
 Thermal correction to Energy=                    0.004359
 Thermal correction to Enthalpy=                  0.005303
 Thermal correction to Gibbs Free Energy=        -0.021135
 Sum of electronic and zero-point Energies=           -100.760815
 Sum of electronic and thermal Energies=              -100.757250
 Sum of electronic and thermal Enthalpies=            -100.756306
 Sum of electronic and thermal Free Energies=         -100.782744

                     E (Thermal)             CV                S
                      KCal/Mol        Cal/Mol-Kelvin    Cal/Mol-Kelvin
 Total                    2.735              8.716             55.643
 Electronic               0.000              0.000              1.377
 Translational            0.889              2.981             35.068
 Rotational               0.592              1.987             14.425
 Vibrational              1.254              3.748              4.773
 Vibration     1          0.627              1.874              2.387
 Vibration     2          0.627              1.874              2.387

 Normal termination of Gaussian 16 at Fri Aug 22 20:24:07 2025.
