 Gaussian 16, Revision C.01,
 Gaussian 16:  ES64L-G16RevC.01  3-Jul-2019

 -----------------------------------------
 # sp b3lyp/6-311g** Force nosymm scf=(qc)
 -----------------------------------------

 -------------------
 Title Card Required
 -------------------
 Symbolic Z-matrix:
 Charge =  0 Multiplicity = 2

                          Input orientation:
 ---------------------------------------------------------------------
 Center     Atomic      Atomic             Coordinates (Angstroms)
 Number     Number       Type             X           Y           Z
 ---------------------------------------------------------------------
      1          1           0        0.000000    0.000000    0.000000
      2          1           0       -1.050000    0.000000    0.000000
      3          9           0        3.750000    0.000000    0.000000
 ---------------------------------------------------------------------

 SCF Done:  E(UB3LYP) =  -100.898452813     a.u. after  466 cycles

 Alpha  occ. eigenvalues --  -24.76262  -1.22150  -0.55352  -0.46533  -0.46507
 Alpha  occ. eigenvalues --   -0.38166
 Alpha virt. eigenvalues --   -0.00754   0.21784   0.37414   0.86028   0.90905
 Alpha virt. eigenvalues --    0.91765   1.01105   1.09932   1.09934   1.33639
 Alpha virt. eigenvalues --    1.62839   1.62842   2.19823   2.35194   2.56225

  Beta  occ. eigenvalues --  -24.73106  -1.13075  -0.43370  -0.43343  -0.38165
  Beta virt. eigenvalues --   -0.25999  -0.00750   0.21789   0.37437   0.92406
  Beta virt. eigenvalues --    0.93259   0.95494   1.05239   1.09931   1.09934
  Beta virt. eigenvalues --    1.33643   1.62839   1.62841   2.19828   2.35195

 Mulliken charges and spin densities:
               1          2
     1  H    0.000487  -0.000137
     2  H   -0.002266  -0.000061
     3  F    0.001778   1.000198
 Sum of Mulliken charges =   0.00000   1.00000

 Dipole moment (field-independent basis, Debye):
    X=              0.0302    Y=             -0.0000    Z=              0.0000  Tot=              0.0302
 Quadrupole moment (field-independent basis, Debye-Ang):
   XX=             -6.3103   YY=             -7.3315   ZZ=             -6.4673
   XY=             -0.0000   XZ=             -0.0000   YZ=              0.0118

  Exact polarizability:      12.926       0.000       2.067      -0.000       0.006       2.533
 Approx polarizability:      17.606      -0.000       2.112      -0.000       0.008       2.694

 ******    1 imaginary frequencies (negative Signs) ******

                      1                      2                      3
                      A                      A                      A
 Frequencies --    -64.1331              1410.5464              1543.5252
 Red. masses --      1.1085                 1.0078                 1.0093
 Frc consts  --      0.0027                 1.1814                 1.4168
 IR Inten    --      0.0772                 0.0823                 0.0009

                      4
                      A
 Frequencies --   1544.4489
 Red. masses --      1.0093
 Frc consts  --      1.4185
 IR Inten    --      0.0006

 - Thermochemistry -
 -------------------
 Temperature   298.150 Kelvin.  Pressure   1.00000 Atm.
 Atom     1 has atomic number  1 and mass   1.00783

 Molecular mass:    21.01405 amu.
 Principal axes and moments of inertia in atomic units:
                           1         2         3
     Eigenvalues --     0.00000 120.91422 120.91422
           X            1.00000  -0.00000   0.00000
           Y            0.00000   1.00000   0.00000
           Z            0.00000   0.00000   1.00000
 This molecule is a prolate symmetric top.
 Rotational symmetry number  1.
 Rotational temperature (Kelvin)      0.71633
 Rotational constant (GHZ):          14.925798
    1 imaginary frequencies ignored.
 Zero-point vibrational energy      26907.1 (Joules/Mol)
                                    6.43096 (Kcal/Mol)
 Vibrational temperatures:   2029.46  2220.79  2222.12
          (Kelvin)

 Zero-point correction=                           0.010248 (Hartree/Particle)
 Thermal correction to Energy=                    0.012624
 Thermal correction to Enthalpy=                  0.013568
 Thermal correction to Gibbs Free Energy=        -0.010404
 Sum of electronic and zero-point Energies=           -100.888204
 Sum of electronic and thermal Energies=              -100.885829
 Sum of electronic and thermal Enthalpies=            -100.884884
 Sum of electronic and thermal Free Energies=         -100.908857

                     E (Thermal)             CV                S
                      KCal/Mol        Cal/Mol-Kelvin    Cal/Mol-Kelvin
 Total                    7.922              5.198             50.455
 Electronic               0.000              0.000              1.377
 Translational            0.889              2.981             35.068
 Rotational               0.592              1.987             13.972
 Vibrational              6.441              0.230              0.037

 Normal termination of Gaussian 16 at Sat Aug 23 00:12:56 2025.
