 Gaussian 16, Revision C.01,
 Gaussian 16:  ES64L-G16RevC.01  3-Jul-2019

 -----------------------------------------
 # sp b3lyp/6-311g** Force nosymm scf=(qc)
 -----------------------------------------

 -------------------
 Title Card Required
 -------------------
 Symbolic Z-matrix:
 Charge =  0 Multiplicity = 2

                          Input orientation:
 ---------------------------------------------------------------------
 Center     Atomic      Atomic             Coordinates (Angstroms)
 Number     Number       Type             X           Y           Z
 ---------------------------------------------------------------------
      1          1           0        0.000000    0.000000    0.000000
      2          1           0       -1.850000    0.000000    0.000000
      3          9           0        3.200000    0.000000    0.000000
 ---------------------------------------------------------------------

 SCF Done:  E(UB3LYP) =  -100.783377640     a.u. after   30 cycles

 Alpha  occ. eigenvalues --  -24.75110  -1.21093  -0.54232  -0.45539  -0.45539
 Alpha  occ. eigenvalues --   -0.33595
 Alpha virt. eigenvalues --   -0.11485   0.25551   0.31098   0.88775   0.91633
 Alpha virt. eigenvalues --    0.91633   1.02815   1.11111   1.24202   1.24202
 Alpha virt. eigenvalues --    1.36849   1.36849   1.57941   2.13639   2.38738

  Beta  occ. eigenvalues --  -24.72023  -1.12228  -0.42446  -0.42446  -0.33593
  Beta virt. eigenvalues --   -0.25430  -0.11184   0.25729   0.31518   0.93113
  Beta virt. eigenvalues --    0.93113   0.97720   1.06778   1.11211   1.24187
  Beta virt. eigenvalues --    1.24187   1.37235   1.37235   1.58284   2.14511

 Mulliken charges and spin densities:
               1          2
     1  H    0.005813  -0.749317
     2  H    0.012456   0.770580
     3  F   -0.018269   0.978737
 Sum of Mulliken charges =   0.00000   1.00000

 Dipole moment (field-independent basis, Debye):
    X=             -0.4087    Y=             -0.0000    Z=              0.0000  Tot=              0.4087
 Quadrupole moment (field-independent basis, Debye-Ang):
   XX=             -6.7258   YY=             -7.7402   ZZ=             -7.7402
   XY=              0.0000   XZ=             -0.0000   YZ=             -0.0000

  Exact polarizability:      55.043       0.000       2.012      -0.000      -0.000       2.012
 Approx polarizability:      53.592       0.000       1.949      -0.000       0.000       1.949

 ******    2 imaginary frequencies (negative Signs) ******

                      1                      2                      3
                      A                      A                      A
 Frequencies --  -1641.6132              -183.8931               705.4106
 Red. masses --      1.0079                 1.1085                 1.0127
 Frc consts  --      1.6003                 0.0221                 0.2969
 IR Inten    --     39.6616                17.2991                 0.0006

                      4
                      A
 Frequencies --    705.4106
 Red. masses --      1.0127
 Frc consts  --      0.2969
 IR Inten    --      0.0006

 - Thermochemistry -
 -------------------
 Temperature   298.150 Kelvin.  Pressure   1.00000 Atm.
 Atom     1 has atomic number  1 and mass   1.00783

 Molecular mass:    21.01405 amu.
 Principal axes and moments of inertia in atomic units:
                           1         2         3
     Eigenvalues --     0.00000 116.88950 116.88950
           X            1.00000  -0.00000   0.00000
           Y            0.00000   1.00000   0.00000
           Z            0.00000   0.00000   1.00000
 This molecule is a prolate symmetric top.
 Rotational symmetry number  1.
 Rotational temperature (Kelvin)      0.74099
 Rotational constant (GHZ):          15.439720
    2 imaginary frequencies ignored.
 Zero-point vibrational energy       8438.6 (Joules/Mol)
                                    2.01687 (Kcal/Mol)
 Vibrational temperatures:   1014.93  1014.93
          (Kelvin)

 Zero-point correction=                           0.003214 (Hartree/Particle)
 Thermal correction to Energy=                    0.005796
 Thermal correction to Enthalpy=                  0.006740
 Thermal correction to Gibbs Free Energy=        -0.017468
 Sum of electronic and zero-point Energies=           -100.780164
 Sum of electronic and thermal Energies=              -100.777582
 Sum of electronic and thermal Enthalpies=            -100.776638
 Sum of electronic and thermal Free Energies=         -100.800846

                     E (Thermal)             CV                S
                      KCal/Mol        Cal/Mol-Kelvin    Cal/Mol-Kelvin
 Total                    3.637              6.606             50.950
 Electronic               0.000              0.000              1.377
 Translational            0.889              2.981             35.068
 Rotational               0.592              1.987             13.905
 Vibrational              2.156              1.638              0.599

 Normal termination of Gaussian 16 at Fri Aug 22 20:22:51 2025.
