 Gaussian 16, Revision C.01,
 Gaussian 16:  ES64L-G16RevC.01  3-Jul-2019

 -----------------------------------------
 # sp b3lyp/6-311g** Force nosymm scf=(qc)
 -----------------------------------------

 -------------------
 Title Card Required
 -------------------
 Symbolic Z-matrix:
 Charge =  0 Multiplicity = 2

                          Input orientation:
 ---------------------------------------------------------------------
 Center     Atomic      Atomic             Coordinates (Angstroms)
 Number     Number       Type             X           Y           Z
 ---------------------------------------------------------------------
      1          1           0        0.000000    0.000000    0.000000
      2          1           0       -2.100000    0.000000    0.000000
      3          9           0        2.000000    0.000000    0.000000
 ---------------------------------------------------------------------

 SCF Done:  E(UB3LYP) =  -100.797262571     a.u. after   14 cycles

 Alpha  occ. eigenvalues --  -24.68080  -1.14408  -0.47133  -0.39610  -0.39610
 Alpha  occ. eigenvalues --   -0.36075
 Alpha virt. eigenvalues --   -0.13687   0.24055   0.30828   0.88908   0.95003
 Alpha virt. eigenvalues --    0.95003   1.05447   1.21789   1.21789   1.27888
 Alpha virt. eigenvalues --    1.34129   1.34129   1.59457   2.11065   2.30086

  Beta  occ. eigenvalues --  -24.65698  -1.07747  -0.37460  -0.37262  -0.37262
  Beta virt. eigenvalues --   -0.21185  -0.11340   0.25895   0.32408   0.91550
  Beta virt. eigenvalues --    0.95714   0.95714   1.08615   1.22933   1.22933
  Beta virt. eigenvalues --    1.37289   1.37289   1.40538   1.54963   2.11941

 Mulliken charges and spin densities:
               1          2
     1  H    0.151027  -0.661764
     2  H    0.038341   0.912885
     3  F   -0.189368   0.748878
 Sum of Mulliken charges =  -0.00000   1.00000

 Dipole moment (field-independent basis, Debye):
    X=             -2.2644    Y=              0.0000    Z=             -0.0000  Tot=              2.2644
 Quadrupole moment (field-independent basis, Debye-Ang):
   XX=             -8.8823   YY=             -7.5444   ZZ=             -7.5444
   XY=              0.0000   XZ=             -0.0000   YZ=              0.0000

  Exact polarizability:      47.157      -0.000       2.060       0.000       0.000       2.060
 Approx polarizability:      55.687       0.000       1.962      -0.000       0.000       1.962

 ******    2 imaginary frequencies (negative Signs) ******

                      1                      2                      3
                      A                      A                      A
 Frequencies --  -1454.1792              -548.2119               603.2006
 Red. masses --      1.0239                 1.0897                 1.0185
 Frc consts  --      1.2757                 0.1929                 0.2184
 IR Inten    --     96.0479                33.2799                15.4885

                      4
                      A
 Frequencies --    603.2006
 Red. masses --      1.0185
 Frc consts  --      0.2184
 IR Inten    --     15.4885

 - Thermochemistry -
 -------------------
 Temperature   298.150 Kelvin.  Pressure   1.00000 Atm.
 Atom     1 has atomic number  1 and mass   1.00783

 Molecular mass:    21.01405 amu.
 Principal axes and moments of inertia in atomic units:
                           1         2         3
     Eigenvalues --     0.00000  68.47266  68.47266
           X            1.00000  -0.00000   0.00000
           Y            0.00000   1.00000   0.00000
           Z            0.00000   0.00000   1.00000
 This molecule is a prolate symmetric top.
 Rotational symmetry number  1.
 Rotational temperature (Kelvin)      1.26494
 Rotational constant (GHZ):          26.357105
    2 imaginary frequencies ignored.
 Zero-point vibrational energy       7215.9 (Joules/Mol)
                                    1.72464 (Kcal/Mol)
 Warning -- explicit consideration of   2 degrees of freedom as
           vibrations may cause significant error
 Vibrational temperatures:    867.87   867.87
          (Kelvin)

 Zero-point correction=                           0.002748 (Hartree/Particle)
 Thermal correction to Energy=                    0.005425
 Thermal correction to Enthalpy=                  0.006369
 Thermal correction to Gibbs Free Energy=        -0.017471
 Sum of electronic and zero-point Energies=           -100.794514
 Sum of electronic and thermal Energies=              -100.791837
 Sum of electronic and thermal Enthalpies=            -100.790893
 Sum of electronic and thermal Free Energies=         -100.814733

                     E (Thermal)             CV                S
                      KCal/Mol        Cal/Mol-Kelvin    Cal/Mol-Kelvin
 Total                    3.404              7.018             50.176
 Electronic               0.000              0.000              1.377
 Translational            0.889              2.981             35.068
 Rotational               0.592              1.987             12.842
 Vibrational              1.923              2.050              0.888
 Vibration     1          0.962              1.025              0.444
 Vibration     2          0.962              1.025              0.444

 Normal termination of Gaussian 16 at Fri Aug 22 16:56:35 2025.
