 Gaussian 16, Revision C.01,
 Gaussian 16:  ES64L-G16RevC.01  3-Jul-2019

 -----------------------------------------
 # sp b3lyp/6-311g** Force nosymm scf=(qc)
 -----------------------------------------

 -------------------
 Title Card Required
 -------------------
 Symbolic Z-matrix:
 Charge =  0 Multiplicity = 2

                          Input orientation:
 ---------------------------------------------------------------------
 Center     Atomic      Atomic             Coordinates (Angstroms)
 Number     Number       Type             X           Y           Z
 ---------------------------------------------------------------------
      1          1           0        0.000000    0.000000    0.000000
      2          1           0       -3.600000    0.000000    0.000000
      3          9           0        0.900000    0.000000    0.000000
 ---------------------------------------------------------------------

 SCF Done:  E(UB3LYP) =  -100.971459527     a.u. after    5 cycles

 Alpha  occ. eigenvalues --  -24.64000  -1.19051  -0.53863  -0.39660  -0.39660
 Alpha  occ. eigenvalues --   -0.33537
 Alpha virt. eigenvalues --    0.03129   0.24249   0.39629   0.94329   0.94329
 Alpha virt. eigenvalues --    0.97743   1.23826   1.23974   1.23974   1.29437
 Alpha virt. eigenvalues --    1.37259   1.37259   2.00503   2.14367   2.37206

  Beta  occ. eigenvalues --  -24.63999  -1.19048  -0.53861  -0.39659  -0.39659
  Beta virt. eigenvalues --   -0.05385   0.03587   0.37870   0.40673   0.94329
  Beta virt. eigenvalues --    0.94329   0.97740   1.29221   1.37259   1.37259
  Beta virt. eigenvalues --    1.50467   1.50896   1.50896   2.00601   2.37136

 Mulliken charges and spin densities:
               1          2
     1  H    0.295613   0.000508
     2  H    0.000727   0.999141
     3  F   -0.296340   0.000351
 Sum of Mulliken charges =   0.00000   1.00000

 Dipole moment (field-independent basis, Debye):
    X=             -1.8912    Y=             -0.0000    Z=             -0.0000  Tot=              1.8912
 Quadrupole moment (field-independent basis, Debye-Ang):
   XX=             -7.9204   YY=             -6.8689   ZZ=             -6.8689
   XY=             -0.0000   XZ=             -0.0000   YZ=             -0.0000

  Exact polarizability:       5.504      -0.000       2.424      -0.000       0.000       2.424
 Approx polarizability:       6.435       0.000       2.402       0.000       0.000       2.402

 ******    3 imaginary frequencies (negative Signs) ******

                      1                      2                      3
                      A                      A                      A
 Frequencies --   -625.8093              -625.8093               -41.2507
 Red. masses --      1.0389                 1.0389                 1.0532
 Frc consts  --      0.2397                 0.2397                 0.0011
 IR Inten    --    182.0827               182.0827                 0.0302

                      4
                      A
 Frequencies --   4432.0636
 Red. masses --      1.0583
 Frc consts  --     12.2484
 IR Inten    --     98.9088

 - Thermochemistry -
 -------------------
 Temperature   298.150 Kelvin.  Pressure   1.00000 Atm.
 Atom     1 has atomic number  1 and mass   1.00783

 Molecular mass:    21.01405 amu.
 Principal axes and moments of inertia in atomic units:
                           1         2         3
     Eigenvalues --     0.00000  70.76190  70.76190
           X            1.00000  -0.00000   0.00000
           Y            0.00000   1.00000   0.00000
           Z            0.00000   0.00000   1.00000
 This molecule is a prolate symmetric top.
 Rotational symmetry number  1.
 Rotational temperature (Kelvin)      1.22402
 Rotational constant (GHZ):          25.504419
    3 imaginary frequencies ignored.
 Zero-point vibrational energy      26509.6 (Joules/Mol)
                                    6.33595 (Kcal/Mol)
 Vibrational temperatures:   6376.75
          (Kelvin)

 Zero-point correction=                           0.010097 (Hartree/Particle)
 Thermal correction to Energy=                    0.012457
 Thermal correction to Enthalpy=                  0.013402
 Thermal correction to Gibbs Free Energy=        -0.010048
 Sum of electronic and zero-point Energies=           -100.961363
 Sum of electronic and thermal Energies=              -100.959002
 Sum of electronic and thermal Enthalpies=            -100.958058
 Sum of electronic and thermal Free Energies=         -100.981507

                     E (Thermal)             CV                S
                      KCal/Mol        Cal/Mol-Kelvin    Cal/Mol-Kelvin
 Total                    7.817              4.968             49.353
 Electronic               0.000              0.000              1.377
 Translational            0.889              2.981             35.068
 Rotational               0.592              1.987             12.908
 Vibrational              6.336              0.000              0.000

 Normal termination of Gaussian 16 at Fri Aug 22 15:56:50 2025.
