 Gaussian 16, Revision C.01,
 Gaussian 16:  ES64L-G16RevC.01  3-Jul-2019

 -----------------------------------------
 # sp b3lyp/6-311g** Force nosymm scf=(qc)
 -----------------------------------------

 -------------------
 Title Card Required
 -------------------
 Symbolic Z-matrix:
 Charge =  0 Multiplicity = 2

                          Input orientation:
 ---------------------------------------------------------------------
 Center     Atomic      Atomic             Coordinates (Angstroms)
 Number     Number       Type             X           Y           Z
 ---------------------------------------------------------------------
      1          1           0        0.000000    0.000000    0.000000
      2          1           0       -3.600000    0.000000    0.000000
      3          9           0        0.600000    0.000000    0.000000
 ---------------------------------------------------------------------

 SCF Done:  E(UB3LYP) =  -100.687908284     a.u. after    6 cycles

 Alpha  occ. eigenvalues --  -24.62730  -1.34729  -0.61025  -0.42981  -0.42981
 Alpha  occ. eigenvalues --   -0.33272
 Alpha virt. eigenvalues --    0.07378   0.24893   0.58041   0.92121   0.92121
 Alpha virt. eigenvalues --    0.93148   1.24042   1.24236   1.24236   1.33797
 Alpha virt. eigenvalues --    1.50263   1.50263   1.95451   2.14634   3.36529

  Beta  occ. eigenvalues --  -24.62730  -1.34728  -0.61025  -0.42980  -0.42980
  Beta virt. eigenvalues --   -0.05232   0.07754   0.39264   0.58046   0.92121
  Beta virt. eigenvalues --    0.92121   0.93144   1.33298   1.49943   1.50264
  Beta virt. eigenvalues --    1.50264   1.50286   1.50286   1.95417   2.45037

 Mulliken charges and spin densities:
               1          2
     1  H    0.238099   0.000455
     2  H    0.000609   0.999283
     3  F   -0.238707   0.000262
 Sum of Mulliken charges =   0.00000   1.00000

 Dipole moment (field-independent basis, Debye):
    X=             -1.4385    Y=              0.0000    Z=              0.0000  Tot=              1.4385
 Quadrupole moment (field-independent basis, Debye-Ang):
   XX=             -6.9767   YY=             -6.5520   ZZ=             -6.5520
   XY=             -0.0000   XZ=              0.0000   YZ=             -0.0000

  Exact polarizability:       3.368      -0.000       2.437      -0.000       0.000       2.437
 Approx polarizability:       3.605       0.000       2.416      -0.000       0.000       2.416

 ******    3 imaginary frequencies (negative Signs) ******

                      1                      2                      3
                      A                      A                      A
 Frequencies --  -5887.7704             -5887.7704               -35.0367
 Red. masses --      1.0442                 1.0442                 1.0532
 Frc consts  --     21.3273                21.3273                 0.0008
 IR Inten    --    241.1226               241.1226                 0.0186

                      4
                      A
 Frequencies --  13070.6024
 Red. masses --      1.0583
 Frc consts  --    106.5258
 IR Inten    --     97.1388

 - Thermochemistry -
 -------------------
 Temperature   298.150 Kelvin.  Pressure   1.00000 Atm.
 Atom     1 has atomic number  1 and mass   1.00783

 Molecular mass:    21.01405 amu.
 Principal axes and moments of inertia in atomic units:
                           1         2         3
     Eigenvalues --     0.00000  60.80529  60.80529
           X            1.00000  -0.00000   0.00000
           Y            0.00000   1.00000   0.00000
           Z            0.00000   0.00000   1.00000
 This molecule is a prolate symmetric top.
 Rotational symmetry number  1.
 Rotational temperature (Kelvin)      1.42445
 Rotational constant (GHZ):          29.680661
    3 imaginary frequencies ignored.
 Zero-point vibrational energy      78179.6 (Joules/Mol)
                                   18.68536 (Kcal/Mol)
 Vibrational temperatures:  18805.68
          (Kelvin)

 Zero-point correction=                           0.029777 (Hartree/Particle)
 Thermal correction to Energy=                    0.032137
 Thermal correction to Enthalpy=                  0.033082
 Thermal correction to Gibbs Free Energy=         0.009776
 Sum of electronic and zero-point Energies=           -100.658131
 Sum of electronic and thermal Energies=              -100.655771
 Sum of electronic and thermal Enthalpies=            -100.654827
 Sum of electronic and thermal Free Energies=         -100.678133

                     E (Thermal)             CV                S
                      KCal/Mol        Cal/Mol-Kelvin    Cal/Mol-Kelvin
 Total                   20.167              4.968             49.052
 Electronic               0.000              0.000              1.377
 Translational            0.889              2.981             35.068
 Rotational               0.592              1.987             12.606
 Vibrational             18.685              0.000              0.000

 Normal termination of Gaussian 16 at Fri Aug 22 15:42:44 2025.
