 Gaussian 16, Revision C.01,
 Gaussian 16:  ES64L-G16RevC.01  3-Jul-2019

 -----------------------------------------
 # sp b3lyp/6-311g** Force nosymm scf=(qc)
 -----------------------------------------

 -------------------
 Title Card Required
 -------------------
 Symbolic Z-matrix:
 Charge =  0 Multiplicity = 2

                          Input orientation:
 ---------------------------------------------------------------------
 Center     Atomic      Atomic             Coordinates (Angstroms)
 Number     Number       Type             X           Y           Z
 ---------------------------------------------------------------------
      1          1           0        0.000000    0.000000    0.000000
      2          1           0       -3.250000    0.000000    0.000000
      3          9           0        2.800000    0.000000    0.000000
 ---------------------------------------------------------------------

 SCF Done:  E(UB3LYP) =  -100.763112265     a.u. after   20 cycles

 Alpha  occ. eigenvalues --  -24.73287  -1.19404  -0.52403  -0.44006  -0.44006
 Alpha  occ. eigenvalues --   -0.32757
 Alpha virt. eigenvalues --   -0.09215   0.24108   0.35468   0.89929   0.92749
 Alpha virt. eigenvalues --    0.92749   1.05107   1.24762   1.24762   1.25166
 Alpha virt. eigenvalues --    1.42532   1.42532   1.43280   2.15038   2.38252

  Beta  occ. eigenvalues --  -24.70318  -1.10912  -0.41038  -0.41038  -0.34295
  Beta virt. eigenvalues --   -0.24310  -0.07116   0.24305   0.37410   0.94189
  Beta virt. eigenvalues --    0.94189   0.98192   1.08556   1.23037   1.23037
  Beta virt. eigenvalues --    1.24742   1.45216   1.45450   1.45450   2.14845

 Mulliken charges and spin densities:
               1          2
     1  H    0.052946  -0.936337
     2  H    0.001147   0.996141
     3  F   -0.054093   0.940196
 Sum of Mulliken charges =  -0.00000   1.00000

 Dipole moment (field-independent basis, Debye):
    X=             -0.7942    Y=             -0.0000    Z=             -0.0000  Tot=              0.7942
 Quadrupole moment (field-independent basis, Debye-Ang):
   XX=             -8.6662   YY=             -7.6031   ZZ=             -7.6031
   XY=             -0.0000   XZ=             -0.0000   YZ=             -0.0000

  Exact polarizability:      33.558      -0.000       2.022      -0.000      -0.000       2.022
 Approx polarizability:      36.927      -0.000       1.922      -0.000       0.000       1.922

 ******    2 imaginary frequencies (negative Signs) ******

                      1                      2                      3
                      A                      A                      A
 Frequencies --   -475.5523              -156.8389               175.6111
 Red. masses --      1.0444                 1.0674                 1.0198
 Frc consts  --      0.1392                 0.0155                 0.0185
 IR Inten    --     53.5959                 1.4872                 2.6009

                      4
                      A
 Frequencies --    175.6111
 Red. masses --      1.0198
 Frc consts  --      0.0185
 IR Inten    --      2.6009

 - Thermochemistry -
 -------------------
 Temperature   298.150 Kelvin.  Pressure   1.00000 Atm.
 Atom     1 has atomic number  1 and mass   1.00783

 Molecular mass:    21.01405 amu.
 Principal axes and moments of inertia in atomic units:
                           1         2         3
     Eigenvalues --     0.00000 146.42993 146.42993
           X            1.00000  -0.00000   0.00000
           Y            0.00000   1.00000   0.00000
           Z            0.00000   0.00000   1.00000
 This molecule is a prolate symmetric top.
 Rotational symmetry number  1.
 Rotational temperature (Kelvin)      0.59150
 Rotational constant (GHZ):          12.324947
    2 imaginary frequencies ignored.
 Zero-point vibrational energy       2100.8 (Joules/Mol)
                                    0.50210 (Kcal/Mol)
 Warning -- explicit consideration of   2 degrees of freedom as
           vibrations may cause significant error
 Vibrational temperatures:    252.67   252.67
          (Kelvin)

 Zero-point correction=                           0.000800 (Hartree/Particle)
 Thermal correction to Energy=                    0.004361
 Thermal correction to Enthalpy=                  0.005305
 Thermal correction to Gibbs Free Energy=        -0.021088
 Sum of electronic and zero-point Energies=           -100.762312
 Sum of electronic and thermal Energies=              -100.758752
 Sum of electronic and thermal Enthalpies=            -100.757808
 Sum of electronic and thermal Free Energies=         -100.784200

                     E (Thermal)             CV                S
                      KCal/Mol        Cal/Mol-Kelvin    Cal/Mol-Kelvin
 Total                    2.736              8.713             55.548
 Electronic               0.000              0.000              1.377
 Translational            0.889              2.981             35.068
 Rotational               0.592              1.987             14.353
 Vibrational              1.255              3.745              4.749
 Vibration     1          0.628              1.872              2.375
 Vibration     2          0.628              1.872              2.375

 Normal termination of Gaussian 16 at Fri Aug 22 18:44:21 2025.
