 Gaussian 16, Revision C.01,
 Gaussian 16:  ES64L-G16RevC.01  3-Jul-2019

 -----------------------------------------
 # sp b3lyp/6-311g** Force nosymm scf=(qc)
 -----------------------------------------

 -------------------
 Title Card Required
 -------------------
 Symbolic Z-matrix:
 Charge =  0 Multiplicity = 2

                          Input orientation:
 ---------------------------------------------------------------------
 Center     Atomic      Atomic             Coordinates (Angstroms)
 Number     Number       Type             X           Y           Z
 ---------------------------------------------------------------------
      1          1           0        0.000000    0.000000    0.000000
      2          1           0       -3.700000    0.000000    0.000000
      3          9           0        2.800000    0.000000    0.000000
 ---------------------------------------------------------------------

 SCF Done:  E(UB3LYP) =  -100.762676949     a.u. after   21 cycles

 Alpha  occ. eigenvalues --  -24.73275  -1.19393  -0.52392  -0.43996  -0.43996
 Alpha  occ. eigenvalues --   -0.32611
 Alpha virt. eigenvalues --   -0.08703   0.23752   0.35953   0.89849   0.92755
 Alpha virt. eigenvalues --    0.92755   1.05036   1.24891   1.24891   1.24964
 Alpha virt. eigenvalues --    1.43026   1.43026   1.44075   2.14464   2.39429

  Beta  occ. eigenvalues --  -24.70306  -1.10903  -0.41028  -0.41028  -0.34282
  Beta virt. eigenvalues --   -0.24300  -0.06318   0.23853   0.38050   0.94195
  Beta virt. eigenvalues --    0.94195   0.98068   1.08411   1.23030   1.23030
  Beta virt. eigenvalues --    1.24591   1.46160   1.46386   1.46386   2.14046

 Mulliken charges and spin densities:
               1          2
     1  H    0.054029  -0.938779
     2  H    0.000359   0.998747
     3  F   -0.054388   0.940032
 Sum of Mulliken charges =  -0.00000   1.00000

 Dipole moment (field-independent basis, Debye):
    X=             -0.7868    Y=             -0.0000    Z=              0.0000  Tot=              0.7868
 Quadrupole moment (field-independent basis, Debye-Ang):
   XX=             -8.7396   YY=             -7.5959   ZZ=             -7.5959
   XY=              0.0000   XZ=             -0.0000   YZ=              0.0000

  Exact polarizability:      31.731       0.000       2.025      -0.000       0.000       2.025
 Approx polarizability:      35.810       0.000       1.923      -0.000       0.000       1.923

 ******    2 imaginary frequencies (negative Signs) ******

                      1                      2                      3
                      A                      A                      A
 Frequencies --   -452.9068               -96.6081               165.0477
 Red. masses --      1.0533                 1.0583                 1.0217
 Frc consts  --      0.1273                 0.0058                 0.0164
 IR Inten    --     54.8723                 0.1857                 2.8010

                      4
                      A
 Frequencies --    165.0477
 Red. masses --      1.0217
 Frc consts  --      0.0164
 IR Inten    --      2.8010

 - Thermochemistry -
 -------------------
 Temperature   298.150 Kelvin.  Pressure   1.00000 Atm.
 Atom     1 has atomic number  1 and mass   1.00783

 Molecular mass:    21.01405 amu.
 Principal axes and moments of inertia in atomic units:
                           1         2         3
     Eigenvalues --     0.00000 165.34557 165.34557
           X            1.00000  -0.00000   0.00000
           Y            0.00000   1.00000   0.00000
           Z            0.00000   0.00000   1.00000
 This molecule is a prolate symmetric top.
 Rotational symmetry number  1.
 Rotational temperature (Kelvin)      0.52384
 Rotational constant (GHZ):          10.914966
    2 imaginary frequencies ignored.
 Zero-point vibrational energy       1974.4 (Joules/Mol)
                                    0.47189 (Kcal/Mol)
 Warning -- explicit consideration of   2 degrees of freedom as
           vibrations may cause significant error
 Vibrational temperatures:    237.47   237.47
          (Kelvin)

 Zero-point correction=                           0.000752 (Hartree/Particle)
 Thermal correction to Energy=                    0.004348
 Thermal correction to Enthalpy=                  0.005292
 Thermal correction to Gibbs Free Energy=        -0.021326
 Sum of electronic and zero-point Energies=           -100.761925
 Sum of electronic and thermal Energies=              -100.758329
 Sum of electronic and thermal Enthalpies=            -100.757385
 Sum of electronic and thermal Free Energies=         -100.784003

                     E (Thermal)             CV                S
                      KCal/Mol        Cal/Mol-Kelvin    Cal/Mol-Kelvin
 Total                    2.728              8.739             56.022
 Electronic               0.000              0.000              1.377
 Translational            0.889              2.981             35.068
 Rotational               0.592              1.987             14.594
 Vibrational              1.247              3.771              4.982
 Vibration     1          0.623              1.885              2.491
 Vibration     2          0.623              1.885              2.491

 Normal termination of Gaussian 16 at Fri Aug 22 18:44:48 2025.
