 Gaussian 16, Revision C.01,
 Gaussian 16:  ES64L-G16RevC.01  3-Jul-2019

 -----------------------------------------
 # sp b3lyp/6-311g** Force nosymm scf=(qc)
 -----------------------------------------

 -------------------
 Title Card Required
 -------------------
 Symbolic Z-matrix:
 Charge =  0 Multiplicity = 2

                          Input orientation:
 ---------------------------------------------------------------------
 Center     Atomic      Atomic             Coordinates (Angstroms)
 Number     Number       Type             X           Y           Z
 ---------------------------------------------------------------------
      1          1           0        0.000000    0.000000    0.000000
      2          1           0       -0.750000    0.000000    0.000000
      3          9           0        1.000000    0.000000    0.000000
 ---------------------------------------------------------------------

 SCF Done:  E(UB3LYP) =  -100.932423832     a.u. after    6 cycles

 Alpha  occ. eigenvalues --  -24.66617  -1.19857  -0.62756  -0.41205  -0.41205
 Alpha  occ. eigenvalues --   -0.35506
 Alpha virt. eigenvalues --    0.13762   0.18366   0.56163   0.87476   0.87476
 Alpha virt. eigenvalues --    0.95434   1.09698   1.09698   1.45856   1.73446
 Alpha virt. eigenvalues --    1.76138   1.76138   2.04522   2.37357   3.67210

  Beta  occ. eigenvalues --  -24.65122  -1.16074  -0.55392  -0.39856  -0.39856
  Beta virt. eigenvalues --   -0.17896   0.15814   0.19840   0.61474   0.89408
  Beta virt. eigenvalues --    0.89408   0.98461   1.14067   1.14067   1.47940
  Beta virt. eigenvalues --    1.80320   1.80320   1.81744   2.05271   2.45019

 Mulliken charges and spin densities:
               1          2
     1  H    0.278435  -0.018884
     2  H   -0.028361   0.640269
     3  F   -0.250074   0.378616
 Sum of Mulliken charges =   0.00000   1.00000

 Dipole moment (field-independent basis, Debye):
    X=             -1.5528    Y=             -0.0000    Z=             -0.0000  Tot=              1.5528
 Quadrupole moment (field-independent basis, Debye-Ang):
   XX=             -7.4786   YY=             -6.5496   ZZ=             -6.5496
   XY=             -0.0000   XZ=             -0.0000   YZ=             -0.0000

  Exact polarizability:      13.634      -0.000       2.537       0.000       0.000       2.537
 Approx polarizability:      16.318       0.000       2.591       0.000       0.000       2.591

 ******    2 imaginary frequencies (negative Signs) ******

                      1                      2                      3
                      A                      A                      A
 Frequencies --  -1912.2853             -1912.2853              2127.7388
 Red. masses --      1.0148                 1.0148                 1.1085
 Frc consts  --      2.1865                 2.1865                 2.9568
 IR Inten    --     34.6754                34.6754                24.6101

                      4
                      A
 Frequencies --   3853.1116
 Red. masses --      1.0078
 Frc consts  --      8.8157
 IR Inten    --    124.3762

 - Thermochemistry -
 -------------------
 Temperature   298.150 Kelvin.  Pressure   1.00000 Atm.
 Atom     1 has atomic number  1 and mass   1.00783

 Molecular mass:    21.01405 amu.
 Principal axes and moments of inertia in atomic units:
                           1         2         3
     Eigenvalues --     0.00000  13.31563  13.31563
           X            1.00000  -0.00000   0.00000
           Y            0.00000   1.00000   0.00000
           Z            0.00000   0.00000   1.00000
 This molecule is a prolate symmetric top.
 Rotational symmetry number  1.
 Rotational temperature (Kelvin)      6.50468
 Rotational constant (GHZ):         135.535523
    2 imaginary frequencies ignored.
 Zero-point vibrational energy      35773.4 (Joules/Mol)
                                    8.55005 (Kcal/Mol)
 Vibrational temperatures:   3061.34  5543.77
          (Kelvin)

 Zero-point correction=                           0.013625 (Hartree/Particle)
 Thermal correction to Energy=                    0.015986
 Thermal correction to Enthalpy=                  0.016930
 Thermal correction to Gibbs Free Energy=        -0.004942
 Sum of electronic and zero-point Energies=           -100.918798
 Sum of electronic and thermal Energies=              -100.916438
 Sum of electronic and thermal Enthalpies=            -100.915493
 Sum of electronic and thermal Free Energies=         -100.937366

                     E (Thermal)             CV                S
                      KCal/Mol        Cal/Mol-Kelvin    Cal/Mol-Kelvin
 Total                   10.031              4.975             46.035
 Electronic               0.000              0.000              1.377
 Translational            0.889              2.981             35.068
 Rotational               0.592              1.987              9.588
 Vibrational              8.550              0.007              0.001

 Normal termination of Gaussian 16 at Fri Aug 22 15:59:40 2025.
