 Gaussian 16, Revision C.01,
 Gaussian 16:  ES64L-G16RevC.01  3-Jul-2019

 -----------------------------------------
 # sp b3lyp/6-311g** Force nosymm scf=(qc)
 -----------------------------------------

 -------------------
 Title Card Required
 -------------------
 Symbolic Z-matrix:
 Charge =  0 Multiplicity = 2

                          Input orientation:
 ---------------------------------------------------------------------
 Center     Atomic      Atomic             Coordinates (Angstroms)
 Number     Number       Type             X           Y           Z
 ---------------------------------------------------------------------
      1          1           0        0.000000    0.000000    0.000000
      2          1           0       -1.850000    0.000000    0.000000
      3          9           0        1.300000    0.000000    0.000000
 ---------------------------------------------------------------------

 SCF Done:  E(UB3LYP) =  -100.905804433     a.u. after    8 cycles

 Alpha  occ. eigenvalues --  -24.63528  -1.10693  -0.46624  -0.37217  -0.36417
 Alpha  occ. eigenvalues --   -0.36417
 Alpha virt. eigenvalues --   -0.05434   0.22798   0.27967   0.93688   0.93688
 Alpha virt. eigenvalues --    1.02181   1.06412   1.19381   1.19381   1.35588
 Alpha virt. eigenvalues --    1.35588   1.45967   1.70796   2.13354   2.32095

  Beta  occ. eigenvalues --  -24.63187  -1.09817  -0.44902  -0.36101  -0.36101
  Beta virt. eigenvalues --   -0.16901  -0.01702   0.26992   0.32286   0.93666
  Beta virt. eigenvalues --    0.93666   1.03183   1.13383   1.32105   1.32105
  Beta virt. eigenvalues --    1.39384   1.39384   1.54140   1.73078   2.23482

 Mulliken charges and spin densities:
               1          2
     1  H    0.324509  -0.039419
     2  H    0.041914   0.935735
     3  F   -0.366423   0.103684
 Sum of Mulliken charges =  -0.00000   1.00000

 Dipole moment (field-independent basis, Debye):
    X=             -2.8231    Y=              0.0000    Z=              0.0000  Tot=              2.8231
 Quadrupole moment (field-independent basis, Debye-Ang):
   XX=             -8.3540   YY=             -7.1405   ZZ=             -7.1405
   XY=              0.0000   XZ=              0.0000   YZ=             -0.0000

  Exact polarizability:      20.353       0.000       2.345      -0.000       0.000       2.345
 Approx polarizability:      26.674       0.000       2.300       0.000      -0.000       2.300

 ******    2 imaginary frequencies (negative Signs) ******

                      1                      2                      3
                      A                      A                      A
 Frequencies --  -1315.3705               -84.2248              1113.1472
 Red. masses --      1.0250                 1.0885                 1.0227
 Frc consts  --      1.0449                 0.0045                 0.7467
 IR Inten    --    198.5878                 6.7562                85.1826

                      4
                      A
 Frequencies --   1113.1472
 Red. masses --      1.0227
 Frc consts  --      0.7467
 IR Inten    --     85.1826

 - Thermochemistry -
 -------------------
 Temperature   298.150 Kelvin.  Pressure   1.00000 Atm.
 Atom     1 has atomic number  1 and mass   1.00783

 Molecular mass:    21.01405 amu.
 Principal axes and moments of inertia in atomic units:
                           1         2         3
     Eigenvalues --     0.00000  38.37544  38.37544
           X            1.00000  -0.00000   0.00000
           Y            0.00000   1.00000   0.00000
           Z            0.00000   0.00000   1.00000
 This molecule is a prolate symmetric top.
 Rotational symmetry number  1.
 Rotational temperature (Kelvin)      2.25701
 Rotational constant (GHZ):          47.028550
    2 imaginary frequencies ignored.
 Zero-point vibrational energy      13316.2 (Joules/Mol)
                                    3.18265 (Kcal/Mol)
 Vibrational temperatures:   1601.57  1601.57
          (Kelvin)

 Zero-point correction=                           0.005072 (Hartree/Particle)
 Thermal correction to Energy=                    0.007480
 Thermal correction to Enthalpy=                  0.008424
 Thermal correction to Gibbs Free Energy=        -0.014504
 Sum of electronic and zero-point Energies=           -100.900733
 Sum of electronic and thermal Energies=              -100.898325
 Sum of electronic and thermal Enthalpies=            -100.897381
 Sum of electronic and thermal Free Energies=         -100.920308

                     E (Thermal)             CV                S
                      KCal/Mol        Cal/Mol-Kelvin    Cal/Mol-Kelvin
 Total                    4.694              5.506             48.255
 Electronic               0.000              0.000              1.377
 Translational            0.889              2.981             35.068
 Rotational               0.592              1.987             11.692
 Vibrational              3.212              0.538              0.118

 Normal termination of Gaussian 16 at Fri Aug 22 16:14:57 2025.
