 Gaussian 16, Revision C.01,
 Gaussian 16:  ES64L-G16RevC.01  3-Jul-2019

 -----------------------------------------
 # sp b3lyp/6-311g** Force nosymm scf=(qc)
 -----------------------------------------

 -------------------
 Title Card Required
 -------------------
 Symbolic Z-matrix:
 Charge =  0 Multiplicity = 2

                          Input orientation:
 ---------------------------------------------------------------------
 Center     Atomic      Atomic             Coordinates (Angstroms)
 Number     Number       Type             X           Y           Z
 ---------------------------------------------------------------------
      1          1           0        0.000000    0.000000    0.000000
      2          1           0       -1.500000    0.000000    0.000000
      3          9           0        1.550000    0.000000    0.000000
 ---------------------------------------------------------------------

 SCF Done:  E(UB3LYP) =  -100.870487627     a.u. after   13 cycles

 Alpha  occ. eigenvalues --  -24.65414  -1.12044  -0.47127  -0.38716  -0.37584
 Alpha  occ. eigenvalues --   -0.37584
 Alpha virt. eigenvalues --   -0.07479   0.21012   0.29199   0.93553   0.93553
 Alpha virt. eigenvalues --    0.94602   1.03387   1.15223   1.15223   1.40101
 Alpha virt. eigenvalues --    1.40101   1.45856   1.86375   2.18252   2.42454

  Beta  occ. eigenvalues --  -24.63809  -1.07709  -0.40999  -0.36038  -0.36038
  Beta virt. eigenvalues --   -0.21994  -0.04308   0.24099   0.30168   0.93673
  Beta virt. eigenvalues --    0.93673   0.99168   1.06623   1.21296   1.21296
  Beta virt. eigenvalues --    1.41553   1.41553   1.50985   1.89968   2.21457

 Mulliken charges and spin densities:
               1          2
     1  H    0.224352  -0.241989
     2  H    0.072604   0.743496
     3  F   -0.296956   0.498493
 Sum of Mulliken charges =   0.00000   1.00000

 Dipole moment (field-independent basis, Debye):
    X=             -2.7795    Y=             -0.0000    Z=             -0.0000  Tot=              2.7795
 Quadrupole moment (field-independent basis, Debye-Ang):
   XX=             -8.1712   YY=             -7.2692   ZZ=             -7.2692
   XY=              0.0000   XZ=              0.0000   YZ=              0.0000

  Exact polarizability:      37.572      -0.000       2.276      -0.000      -0.000       2.276
 Approx polarizability:      55.170      -0.000       2.215      -0.000      -0.000       2.215

 ******    2 imaginary frequencies (negative Signs) ******

                      1                      2                      3
                      A                      A                      A
 Frequencies --  -2590.8854              -463.0346              1059.9522
 Red. masses --      1.0226                 1.0912                 1.0176
 Frc consts  --      4.0443                 0.1378                 0.6736
 IR Inten    --    420.9081                 3.5030                23.0270

                      4
                      A
 Frequencies --   1059.9522
 Red. masses --      1.0176
 Frc consts  --      0.6736
 IR Inten    --     23.0270

 - Thermochemistry -
 -------------------
 Temperature   298.150 Kelvin.  Pressure   1.00000 Atm.
 Atom     1 has atomic number  1 and mass   1.00783

 Molecular mass:    21.01405 amu.
 Principal axes and moments of inertia in atomic units:
                           1         2         3
     Eigenvalues --     0.00000  38.47403  38.47403
           X            1.00000  -0.00000   0.00000
           Y            0.00000   1.00000   0.00000
           Z            0.00000   0.00000   1.00000
 This molecule is a prolate symmetric top.
 Rotational symmetry number  1.
 Rotational temperature (Kelvin)      2.25123
 Rotational constant (GHZ):          46.908033
    2 imaginary frequencies ignored.
 Zero-point vibrational energy      12679.8 (Joules/Mol)
                                    3.03056 (Kcal/Mol)
 Vibrational temperatures:   1525.03  1525.03
          (Kelvin)

 Zero-point correction=                           0.004829 (Hartree/Particle)
 Thermal correction to Energy=                    0.007248
 Thermal correction to Enthalpy=                  0.008193
 Thermal correction to Gibbs Free Energy=        -0.014751
 Sum of electronic and zero-point Energies=           -100.865658
 Sum of electronic and thermal Energies=              -100.863239
 Sum of electronic and thermal Enthalpies=            -100.862295
 Sum of electronic and thermal Free Energies=         -100.885239

                     E (Thermal)             CV                S
                      KCal/Mol        Cal/Mol-Kelvin    Cal/Mol-Kelvin
 Total                    4.548              5.600             48.289
 Electronic               0.000              0.000              1.377
 Translational            0.889              2.981             35.068
 Rotational               0.592              1.987             11.697
 Vibrational              3.067              0.632              0.147

 Normal termination of Gaussian 16 at Fri Aug 22 16:27:49 2025.
