 Gaussian 16, Revision C.01,
 Gaussian 16:  ES64L-G16RevC.01  3-Jul-2019

 -----------------------------------------
 # sp b3lyp/6-311g** Force nosymm scf=(qc)
 -----------------------------------------

 -------------------
 Title Card Required
 -------------------
 Symbolic Z-matrix:
 Charge =  0 Multiplicity = 2

                          Input orientation:
 ---------------------------------------------------------------------
 Center     Atomic      Atomic             Coordinates (Angstroms)
 Number     Number       Type             X           Y           Z
 ---------------------------------------------------------------------
      1          1           0        0.000000    0.000000    0.000000
      2          1           0       -0.550000    0.000000    0.000000
      3          9           0        2.000000    0.000000    0.000000
 ---------------------------------------------------------------------

 SCF Done:  E(UB3LYP) =  -100.893739125     a.u. after    6 cycles

 Alpha  occ. eigenvalues --  -24.75392  -1.21443  -0.55796  -0.48343  -0.45831
 Alpha  occ. eigenvalues --   -0.45831
 Alpha virt. eigenvalues --    0.10956   0.19706   0.51221   0.90440   0.90440
 Alpha virt. eigenvalues --    0.93038   1.10283   1.10283   1.18073   1.64932
 Alpha virt. eigenvalues --    1.81458   1.95380   1.95380   2.43910   3.67900

  Beta  occ. eigenvalues --  -24.72304  -1.12627  -0.49289  -0.42750  -0.42750
  Beta virt. eigenvalues --   -0.25661   0.11490   0.20288   0.51848   0.91839
  Beta virt. eigenvalues --    0.91839   1.00759   1.10734   1.10734   1.21948
  Beta virt. eigenvalues --    1.65844   1.81914   1.95538   1.95538   2.44491

 Mulliken charges and spin densities:
               1          2
     1  H   -0.004262  -0.017219
     2  H    0.023774   0.048073
     3  F   -0.019512   0.969146
 Sum of Mulliken charges =   0.00000   1.00000

 Dipole moment (field-independent basis, Debye):
    X=             -0.2389    Y=              0.0000    Z=              0.0000  Tot=              0.2389
 Quadrupole moment (field-independent basis, Debye-Ang):
   XX=             -5.7583   YY=             -6.6382   ZZ=             -6.6382
   XY=              0.0000   XZ=              0.0000   YZ=             -0.0000

  Exact polarizability:      10.895      -0.000       1.986       0.000      -0.000       1.986
 Approx polarizability:      11.320       0.000       2.063       0.000       0.000       2.063

 ******    2 imaginary frequencies (negative Signs) ******

                      1                      2                      3
                      A                      A                      A
 Frequencies --  -3725.8632             -3725.8632               190.0345
 Red. masses --      1.0093                 1.0093                 1.1085
 Frc consts  --      8.2550                 8.2550                 0.0236
 IR Inten    --      0.6200                 0.6200                11.4012

                      4
                      A
 Frequencies --   8313.8504
 Red. masses --      1.0078
 Frc consts  --     41.0431
 IR Inten    --     98.1264

 - Thermochemistry -
 -------------------
 Temperature   298.150 Kelvin.  Pressure   1.00000 Atm.
 Atom     1 has atomic number  1 and mass   1.00783

 Molecular mass:    21.01405 amu.
 Principal axes and moments of inertia in atomic units:
                           1         2         3
     Eigenvalues --     0.00000  34.22519  34.22519
           X            1.00000  -0.00000   0.00000
           Y            0.00000   1.00000   0.00000
           Z            0.00000   0.00000   1.00000
 This molecule is a prolate symmetric top.
 Rotational symmetry number  1.
 Rotational temperature (Kelvin)      2.53071
 Rotational constant (GHZ):          52.731367
    2 imaginary frequencies ignored.
 Zero-point vibrational energy      50864.5 (Joules/Mol)
                                   12.15691 (Kcal/Mol)
 Warning -- explicit consideration of   1 degrees of freedom as
           vibrations may cause significant error
 Vibrational temperatures:    273.42 11961.78
          (Kelvin)

 Zero-point correction=                           0.019373 (Hartree/Particle)
 Thermal correction to Energy=                    0.022310
 Thermal correction to Enthalpy=                  0.023254
 Thermal correction to Gibbs Free Energy=        -0.000567
 Sum of electronic and zero-point Energies=           -100.874366
 Sum of electronic and thermal Energies=              -100.871429
 Sum of electronic and thermal Enthalpies=            -100.870485
 Sum of electronic and thermal Free Energies=         -100.894307

                     E (Thermal)             CV                S
                      KCal/Mol        Cal/Mol-Kelvin    Cal/Mol-Kelvin
 Total                   14.000              6.822             50.137
 Electronic               0.000              0.000              1.377
 Translational            0.889              2.981             35.068
 Rotational               0.592              1.987             11.464
 Vibrational             12.519              1.854              2.227
 Vibration     1          0.633              1.854              2.227

 Normal termination of Gaussian 16 at Fri Aug 22 16:55:13 2025.
