 Gaussian 16, Revision C.01,
 Gaussian 16:  ES64L-G16RevC.01  3-Jul-2019

 -----------------------------------------
 # sp b3lyp/6-311g** Force nosymm scf=(qc)
 -----------------------------------------

 -------------------
 Title Card Required
 -------------------
 Symbolic Z-matrix:
 Charge =  0 Multiplicity = 2

                          Input orientation:
 ---------------------------------------------------------------------
 Center     Atomic      Atomic             Coordinates (Angstroms)
 Number     Number       Type             X           Y           Z
 ---------------------------------------------------------------------
      1          1           0        0.000000    0.000000    0.000000
      2          1           0       -3.950000    0.000000    0.000000
      3          9           0        2.950000    0.000000    0.000000
 ---------------------------------------------------------------------

 SCF Done:  E(UB3LYP) =  -100.761192270     a.u. after   22 cycles

 Alpha  occ. eigenvalues --  -24.73889  -1.19964  -0.53008  -0.44511  -0.44511
 Alpha  occ. eigenvalues --   -0.32480
 Alpha virt. eigenvalues --   -0.07922   0.23856   0.36190   0.89489   0.92393
 Alpha virt. eigenvalues --    0.92393   1.04151   1.25017   1.25017   1.25038
 Alpha virt. eigenvalues --    1.44043   1.44043   1.45015   2.14345   2.40700

  Beta  occ. eigenvalues --  -24.70875  -1.11331  -0.41495  -0.41495  -0.33850
  Beta virt. eigenvalues --   -0.24661  -0.05955   0.23763   0.38132   0.93850
  Beta virt. eigenvalues --    0.93850   0.98082   1.07797   1.23466   1.23466
  Beta virt. eigenvalues --    1.24017   1.46594   1.46722   1.46722   2.14284

 Mulliken charges and spin densities:
               1          2
     1  H    0.041037  -0.954149
     2  H    0.000149   0.999317
     3  F   -0.041186   0.954832
 Sum of Mulliken charges =  -0.00000   1.00000

 Dipole moment (field-independent basis, Debye):
    X=             -0.6264    Y=             -0.0000    Z=             -0.0000  Tot=              0.6264
 Quadrupole moment (field-independent basis, Debye-Ang):
   XX=             -8.4505   YY=             -7.6025   ZZ=             -7.6025
   XY=             -0.0000   XZ=             -0.0000   YZ=             -0.0000

  Exact polarizability:      31.076      -0.000       2.027      -0.000      -0.000       2.027
 Approx polarizability:      32.847      -0.000       1.926      -0.000       0.000       1.926

 ******    2 imaginary frequencies (negative Signs) ******

                      1                      2                      3
                      A                      A                      A
 Frequencies --   -382.9233               -72.9346               134.7854
 Red. masses --      1.0544                 1.0571                 1.0218
 Frc consts  --      0.0911                 0.0033                 0.0109
 IR Inten    --     43.2050                 0.0775                 1.6269

                      4
                      A
 Frequencies --    134.7854
 Red. masses --      1.0218
 Frc consts  --      0.0109
 IR Inten    --      1.6269

 - Thermochemistry -
 -------------------
 Temperature   298.150 Kelvin.  Pressure   1.00000 Atm.
 Atom     1 has atomic number  1 and mass   1.00783

 Molecular mass:    21.01405 amu.
 Principal axes and moments of inertia in atomic units:
                           1         2         3
     Eigenvalues --     0.00000 185.92241 185.92241
           X            1.00000  -0.00000   0.00000
           Y            0.00000   1.00000   0.00000
           Z            0.00000   0.00000   1.00000
 This molecule is a prolate symmetric top.
 Rotational symmetry number  1.
 Rotational temperature (Kelvin)      0.46586
 Rotational constant (GHZ):           9.706959
    2 imaginary frequencies ignored.
 Zero-point vibrational energy       1612.4 (Joules/Mol)
                                    0.38537 (Kcal/Mol)
 Warning -- explicit consideration of   2 degrees of freedom as
           vibrations may cause significant error
 Vibrational temperatures:    193.93   193.93
          (Kelvin)

 Zero-point correction=                           0.000614 (Hartree/Particle)
 Thermal correction to Energy=                    0.004315
 Thermal correction to Enthalpy=                  0.005259
 Thermal correction to Gibbs Free Energy=        -0.021836
 Sum of electronic and zero-point Energies=           -100.760578
 Sum of electronic and thermal Energies=              -100.756877
 Sum of electronic and thermal Enthalpies=            -100.755933
 Sum of electronic and thermal Free Energies=         -100.783028

                     E (Thermal)             CV                S
                      KCal/Mol        Cal/Mol-Kelvin    Cal/Mol-Kelvin
 Total                    2.708              8.805             57.026
 Electronic               0.000              0.000              1.377
 Translational            0.889              2.981             35.068
 Rotational               0.592              1.987             14.827
 Vibrational              1.226              3.837              5.753
 Vibration     1          0.613              1.919              2.877
 Vibration     2          0.613              1.919              2.877

 Normal termination of Gaussian 16 at Fri Aug 22 19:19:26 2025.
