 Gaussian 16, Revision C.01,
 Gaussian 16:  ES64L-G16RevC.01  3-Jul-2019

 -----------------------------------------
 # sp b3lyp/6-311g** Force nosymm scf=(qc)
 -----------------------------------------

 -------------------
 Title Card Required
 -------------------
 Symbolic Z-matrix:
 Charge =  0 Multiplicity = 2

                          Input orientation:
 ---------------------------------------------------------------------
 Center     Atomic      Atomic             Coordinates (Angstroms)
 Number     Number       Type             X           Y           Z
 ---------------------------------------------------------------------
      1          1           0        0.000000    0.000000    0.000000
      2          1           0       -2.950000    0.000000    0.000000
      3          9           0        0.950000    0.000000    0.000000
 ---------------------------------------------------------------------

 SCF Done:  E(UB3LYP) =  -100.971149626     a.u. after    6 cycles

 Alpha  occ. eigenvalues --  -24.64070  -1.17411  -0.52721  -0.39181  -0.39181
 Alpha  occ. eigenvalues --   -0.34217
 Alpha virt. eigenvalues --    0.02288   0.25038   0.36585   0.94252   0.94252
 Alpha virt. eigenvalues --    0.98158   1.22477   1.23315   1.23315   1.32419
 Alpha virt. eigenvalues --    1.36513   1.36513   1.96327   2.14526   2.35130

  Beta  occ. eigenvalues --  -24.64064  -1.17395  -0.52700  -0.39176  -0.39176
  Beta virt. eigenvalues --   -0.07476   0.03519   0.36565   0.38505   0.94253
  Beta virt. eigenvalues --    0.94253   0.98154   1.30231   1.36507   1.36507
  Beta virt. eigenvalues --    1.48319   1.48319   1.49777   1.96499   2.35057

 Mulliken charges and spin densities:
               1          2
     1  H    0.306217   0.001536
     2  H    0.002786   0.996333
     3  F   -0.309003   0.002132
 Sum of Mulliken charges =   0.00000   1.00000

 Dipole moment (field-independent basis, Debye):
    X=             -1.9945    Y=              0.0000    Z=              0.0000  Tot=              1.9945
 Quadrupole moment (field-independent basis, Debye-Ang):
   XX=             -7.9621   YY=             -6.9150   ZZ=             -6.9150
   XY=              0.0000   XZ=             -0.0000   YZ=              0.0000

  Exact polarizability:       6.979      -0.000       2.424       0.000      -0.000       2.424
 Approx polarizability:       8.045      -0.000       2.402      -0.000      -0.000       2.402

 ******    1 imaginary frequencies (negative Signs) ******

                      1                      2                      3
                      A                      A                      A
 Frequencies --    -68.3082               669.7824               669.7824
 Red. masses --      1.0532                 1.0351                 1.0351
 Frc consts  --      0.0029                 0.2736                 0.2736
 IR Inten    --      0.2449               169.4072               169.4072

                      4
                      A
 Frequencies --   3676.9900
 Red. masses --      1.0584
 Frc consts  --      8.4310
 IR Inten    --    105.9571

 - Thermochemistry -
 -------------------
 Temperature   298.150 Kelvin.  Pressure   1.00000 Atm.
 Atom     1 has atomic number  1 and mass   1.00783

 Molecular mass:    21.01405 amu.
 Principal axes and moments of inertia in atomic units:
                           1         2         3
     Eigenvalues --     0.00000  53.92888  53.92888
           X            1.00000  -0.00000   0.00000
           Y            0.00000   1.00000   0.00000
           Z            0.00000   0.00000   1.00000
 This molecule is a prolate symmetric top.
 Rotational symmetry number  1.
 Rotational temperature (Kelvin)      1.60608
 Rotational constant (GHZ):          33.465209
    1 imaginary frequencies ignored.
 Zero-point vibrational energy      30005.7 (Joules/Mol)
                                    7.17153 (Kcal/Mol)
 Vibrational temperatures:    963.67   963.67  5290.37
          (Kelvin)

 Zero-point correction=                           0.011429 (Hartree/Particle)
 Thermal correction to Energy=                    0.014040
 Thermal correction to Enthalpy=                  0.014984
 Thermal correction to Gibbs Free Energy=        -0.008536
 Sum of electronic and zero-point Energies=           -100.959721
 Sum of electronic and thermal Energies=              -100.957110
 Sum of electronic and thermal Enthalpies=            -100.956166
 Sum of electronic and thermal Free Energies=         -100.979685

                     E (Thermal)             CV                S
                      KCal/Mol        Cal/Mol-Kelvin    Cal/Mol-Kelvin
 Total                    8.810              6.744             49.501
 Electronic               0.000              0.000              1.377
 Translational            0.889              2.981             35.068
 Rotational               0.592              1.987             12.368
 Vibrational              7.329              1.776              0.688

 Normal termination of Gaussian 16 at Fri Aug 22 15:58:47 2025.
