 Gaussian 16, Revision C.01,
 Gaussian 16:  ES64L-G16RevC.01  3-Jul-2019

 -----------------------------------------
 # sp b3lyp/6-311g** Force nosymm scf=(qc)
 -----------------------------------------

 -------------------
 Title Card Required
 -------------------
 Symbolic Z-matrix:
 Charge =  0 Multiplicity = 2

                          Input orientation:
 ---------------------------------------------------------------------
 Center     Atomic      Atomic             Coordinates (Angstroms)
 Number     Number       Type             X           Y           Z
 ---------------------------------------------------------------------
      1          1           0        0.000000    0.000000    0.000000
      2          1           0       -2.350000    0.000000    0.000000
      3          9           0        0.700000    0.000000    0.000000
 ---------------------------------------------------------------------

 SCF Done:  E(UB3LYP) =  -100.874929702     a.u. after    6 cycles

 Alpha  occ. eigenvalues --  -24.63130  -1.28162  -0.58580  -0.41694  -0.41694
 Alpha  occ. eigenvalues --   -0.34708
 Alpha virt. eigenvalues --    0.08431   0.25336   0.51896   0.93548   0.93548
 Alpha virt. eigenvalues --    0.95741   1.16391   1.22843   1.22843   1.44126
 Alpha virt. eigenvalues --    1.44126   1.47027   1.96889   2.15365   2.86661

  Beta  occ. eigenvalues --  -24.63116  -1.28124  -0.58527  -0.41684  -0.41684
  Beta virt. eigenvalues --   -0.08949   0.09924   0.37598   0.51633   0.93544
  Beta virt. eigenvalues --    0.93544   0.95938   1.27444   1.43948   1.43948
  Beta virt. eigenvalues --    1.44705   1.44705   1.59134   1.97574   2.43215

 Mulliken charges and spin densities:
               1          2
     1  H    0.255226   0.004816
     2  H    0.005955   0.991207
     3  F   -0.261181   0.003977
 Sum of Mulliken charges =   0.00000   1.00000

 Dipole moment (field-independent basis, Debye):
    X=             -1.6506    Y=             -0.0000    Z=              0.0000  Tot=              1.6506
 Quadrupole moment (field-independent basis, Debye-Ang):
   XX=             -7.0834   YY=             -6.6513   ZZ=             -6.6513
   XY=             -0.0000   XZ=              0.0000   YZ=              0.0000

  Exact polarizability:       5.792       0.000       2.480       0.000      -0.000       2.480
 Approx polarizability:       5.869       0.000       2.467      -0.000      -0.000       2.467

 ******    2 imaginary frequencies (negative Signs) ******

                      1                      2                      3
                      A                      A                      A
 Frequencies --  -3521.3577             -3521.3577               158.9646
 Red. masses --      1.0363                 1.0363                 1.0532
 Frc consts  --      7.5713                 7.5713                 0.0157
 IR Inten    --    194.9931               194.9931                 0.2628

                      4
                      A
 Frequencies --   9071.7463
 Red. masses --      1.0583
 Frc consts  --     51.3151
 IR Inten    --    126.2939

 - Thermochemistry -
 -------------------
 Temperature   298.150 Kelvin.  Pressure   1.00000 Atm.
 Atom     1 has atomic number  1 and mass   1.00783

 Molecular mass:    21.01405 amu.
 Principal axes and moments of inertia in atomic units:
                           1         2         3
     Eigenvalues --     0.00000  32.81601  32.81601
           X            1.00000  -0.00000   0.00000
           Y            0.00000   1.00000   0.00000
           Z            0.00000   0.00000   1.00000
 This molecule is a prolate symmetric top.
 Rotational symmetry number  1.
 Rotational temperature (Kelvin)      2.63938
 Rotational constant (GHZ):          54.995760
    2 imaginary frequencies ignored.
 Zero-point vibrational energy      55211.9 (Joules/Mol)
                                   13.19596 (Kcal/Mol)
 Warning -- explicit consideration of   1 degrees of freedom as
           vibrations may cause significant error
 Vibrational temperatures:    228.71 13052.22
          (Kelvin)

 Zero-point correction=                           0.021029 (Hartree/Particle)
 Thermal correction to Energy=                    0.024017
 Thermal correction to Enthalpy=                  0.024962
 Thermal correction to Gibbs Free Energy=         0.001021
 Sum of electronic and zero-point Energies=           -100.853901
 Sum of electronic and thermal Energies=              -100.850912
 Sum of electronic and thermal Enthalpies=            -100.849968
 Sum of electronic and thermal Free Energies=         -100.873909

                     E (Thermal)             CV                S
                      KCal/Mol        Cal/Mol-Kelvin    Cal/Mol-Kelvin
 Total                   15.071              6.861             50.388
 Electronic               0.000              0.000              1.377
 Translational            0.889              2.981             35.068
 Rotational               0.592              1.987             11.381
 Vibrational             13.590              1.893              2.562
 Vibration     1          0.621              1.893              2.562

 Normal termination of Gaussian 16 at Fri Aug 22 15:46:40 2025.
