 Gaussian 16, Revision C.01,
 Gaussian 16:  ES64L-G16RevC.01  3-Jul-2019

 -----------------------------------------
 # sp b3lyp/6-311g** Force nosymm scf=(qc)
 -----------------------------------------

 -------------------
 Title Card Required
 -------------------
 Symbolic Z-matrix:
 Charge =  0 Multiplicity = 2

                          Input orientation:
 ---------------------------------------------------------------------
 Center     Atomic      Atomic             Coordinates (Angstroms)
 Number     Number       Type             X           Y           Z
 ---------------------------------------------------------------------
      1          1           0        0.000000    0.000000    0.000000
      2          1           0       -1.800000    0.000000    0.000000
      3          9           0        1.800000    0.000000    0.000000
 ---------------------------------------------------------------------

 SCF Done:  E(UB3LYP) =  -100.824101032     a.u. after   16 cycles

 Alpha  occ. eigenvalues --  -24.66634  -1.12981  -0.46052  -0.38409  -0.38409
 Alpha  occ. eigenvalues --   -0.37743
 Alpha virt. eigenvalues --   -0.12440   0.22905   0.29751   0.88615   0.94811
 Alpha virt. eigenvalues --    0.94811   1.03902   1.19681   1.19681   1.31820
 Alpha virt. eigenvalues --    1.34535   1.34535   1.71832   2.13365   2.33583

  Beta  occ. eigenvalues --  -24.64579  -1.07306  -0.38597  -0.36400  -0.36400
  Beta virt. eigenvalues --   -0.21307  -0.10266   0.25581   0.30396   0.91369
  Beta virt. eigenvalues --    0.95091   0.95091   1.07748   1.24166   1.24166
  Beta virt. eigenvalues --    1.35349   1.35349   1.39801   1.71939   2.14461

 Mulliken charges and spin densities:
               1          2
     1  H    0.179568  -0.472572
     2  H    0.060409   0.827984
     3  F   -0.239977   0.644588
 Sum of Mulliken charges =  -0.00000   1.00000

 Dipole moment (field-independent basis, Debye):
    X=             -2.6439    Y=             -0.0000    Z=              0.0000  Tot=              2.6439
 Quadrupole moment (field-independent basis, Debye-Ang):
   XX=             -8.5271   YY=             -7.4680   ZZ=             -7.4680
   XY=             -0.0000   XZ=              0.0000   YZ=             -0.0000

  Exact polarizability:      46.534      -0.000       2.127       0.000      -0.000       2.127
 Approx polarizability:      62.042       0.000       2.043      -0.000       0.000       2.043

 ******    2 imaginary frequencies (negative Signs) ******

                      1                      2                      3
                      A                      A                      A
 Frequencies --  -2019.1946              -621.2667               827.8569
 Red. masses --      1.0216                 1.0923                 1.0179
 Frc consts  --      2.4541                 0.2484                 0.4110
 IR Inten    --    231.0104                13.0932                17.6211

                      4
                      A
 Frequencies --    827.8569
 Red. masses --      1.0179
 Frc consts  --      0.4110
 IR Inten    --     17.6211

 - Thermochemistry -
 -------------------
 Temperature   298.150 Kelvin.  Pressure   1.00000 Atm.
 Atom     1 has atomic number  1 and mass   1.00783

 Molecular mass:    21.01405 amu.
 Principal axes and moments of inertia in atomic units:
                           1         2         3
     Eigenvalues --     0.00000  53.27072  53.27072
           X            1.00000  -0.00000   0.00000
           Y            0.00000   1.00000   0.00000
           Z            0.00000   0.00000   1.00000
 This molecule is a prolate symmetric top.
 Rotational symmetry number  1.
 Rotational temperature (Kelvin)      1.62592
 Rotational constant (GHZ):          33.878671
    2 imaginary frequencies ignored.
 Zero-point vibrational energy       9903.4 (Joules/Mol)
                                    2.36696 (Kcal/Mol)
 Vibrational temperatures:   1191.10  1191.10
          (Kelvin)

 Zero-point correction=                           0.003772 (Hartree/Particle)
 Thermal correction to Energy=                    0.006274
 Thermal correction to Enthalpy=                  0.007218
 Thermal correction to Gibbs Free Energy=        -0.016140
 Sum of electronic and zero-point Energies=           -100.820329
 Sum of electronic and thermal Energies=              -100.817827
 Sum of electronic and thermal Enthalpies=            -100.816883
 Sum of electronic and thermal Free Energies=         -100.840241

                     E (Thermal)             CV                S
                      KCal/Mol        Cal/Mol-Kelvin    Cal/Mol-Kelvin
 Total                    3.937              6.180             49.161
 Electronic               0.000              0.000              1.377
 Translational            0.889              2.981             35.068
 Rotational               0.592              1.987             12.344
 Vibrational              2.456              1.212              0.372

 Normal termination of Gaussian 16 at Fri Aug 22 16:43:20 2025.
