 Gaussian 16, Revision C.01,
 Gaussian 16:  ES64L-G16RevC.01  3-Jul-2019

 -----------------------------------------
 # sp b3lyp/6-311g** Force nosymm scf=(qc)
 -----------------------------------------

 -------------------
 Title Card Required
 -------------------
 Symbolic Z-matrix:
 Charge =  0 Multiplicity = 2

                          Input orientation:
 ---------------------------------------------------------------------
 Center     Atomic      Atomic             Coordinates (Angstroms)
 Number     Number       Type             X           Y           Z
 ---------------------------------------------------------------------
      1          1           0        0.000000    0.000000    0.000000
      2          1           0       -2.050000    0.000000    0.000000
      3          9           0        3.500000    0.000000    0.000000
 ---------------------------------------------------------------------

 SCF Done:  E(UB3LYP) =  -100.772575294     a.u. after   30 cycles

 Alpha  occ. eigenvalues --  -24.75566  -1.21516  -0.54689  -0.45922  -0.45922
 Alpha  occ. eigenvalues --   -0.33055
 Alpha virt. eigenvalues --   -0.10917   0.25884   0.32508   0.87598   0.91356
 Alpha virt. eigenvalues --    0.91356   1.01726   1.18954   1.24903   1.24903
 Alpha virt. eigenvalues --    1.38144   1.38144   1.49302   2.13193   2.36118

  Beta  occ. eigenvalues --  -24.72445  -1.12547  -0.42794  -0.42794  -0.33153
  Beta virt. eigenvalues --   -0.25620  -0.10640   0.25776   0.32976   0.92848
  Beta virt. eigenvalues --    0.92848   0.96773   1.05778   1.18904   1.24775
  Beta virt. eigenvalues --    1.24775   1.38536   1.38536   1.49593   2.13770

 Mulliken charges and spin densities:
               1          2
     1  H    0.003512  -0.868456
     2  H    0.005569   0.878961
     3  F   -0.009080   0.989495
 Sum of Mulliken charges =   0.00000   1.00000

 Dipole moment (field-independent basis, Debye):
    X=             -0.2170    Y=              0.0000    Z=             -0.0000  Tot=              0.2170
 Quadrupole moment (field-independent basis, Debye-Ang):
   XX=             -6.6709   YY=             -7.7189   ZZ=             -7.7189
   XY=              0.0000   XZ=             -0.0000   YZ=             -0.0000

  Exact polarizability:      42.641      -0.000       1.995       0.000      -0.000       1.995
 Approx polarizability:      36.052       0.000       1.935      -0.000       0.000       1.935

 ******    2 imaginary frequencies (negative Signs) ******

                      1                      2                      3
                      A                      A                      A
 Frequencies --  -1266.4753              -134.7018               507.6793
 Red. masses --      1.0078                 1.1085                 1.0128
 Frc consts  --      0.9524                 0.0119                 0.1538
 IR Inten    --      8.9050                 6.7901                 0.0021

                      4
                      A
 Frequencies --    507.6793
 Red. masses --      1.0128
 Frc consts  --      0.1538
 IR Inten    --      0.0021

 - Thermochemistry -
 -------------------
 Temperature   298.150 Kelvin.  Pressure   1.00000 Atm.
 Atom     1 has atomic number  1 and mass   1.00783

 Molecular mass:    21.01405 amu.
 Principal axes and moments of inertia in atomic units:
                           1         2         3
     Eigenvalues --     0.00000 140.80938 140.80938
           X            1.00000  -0.00000   0.00000
           Y            0.00000   1.00000   0.00000
           Z            0.00000   0.00000   1.00000
 This molecule is a prolate symmetric top.
 Rotational symmetry number  1.
 Rotational temperature (Kelvin)      0.61511
 Rotational constant (GHZ):          12.816911
    2 imaginary frequencies ignored.
 Zero-point vibrational energy       6073.2 (Joules/Mol)
                                    1.45153 (Kcal/Mol)
 Warning -- explicit consideration of   2 degrees of freedom as
           vibrations may cause significant error
 Vibrational temperatures:    730.44   730.44
          (Kelvin)

 Zero-point correction=                           0.002313 (Hartree/Particle)
 Thermal correction to Energy=                    0.005111
 Thermal correction to Enthalpy=                  0.006055
 Thermal correction to Gibbs Free Energy=        -0.018652
 Sum of electronic and zero-point Energies=           -100.770262
 Sum of electronic and thermal Energies=              -100.767465
 Sum of electronic and thermal Enthalpies=            -100.766521
 Sum of electronic and thermal Free Energies=         -100.791227

                     E (Thermal)             CV                S
                      KCal/Mol        Cal/Mol-Kelvin    Cal/Mol-Kelvin
 Total                    3.207              7.434             51.999
 Electronic               0.000              0.000              1.377
 Translational            0.889              2.981             35.068
 Rotational               0.592              1.987             14.275
 Vibrational              1.726              2.466              1.278
 Vibration     1          0.863              1.233              0.639
 Vibration     2          0.863              1.233              0.639

 Normal termination of Gaussian 16 at Fri Aug 22 22:09:05 2025.
