 Gaussian 16, Revision C.01,
 Gaussian 16:  ES64L-G16RevC.01  3-Jul-2019

 -----------------------------------------
 # sp b3lyp/6-311g** Force nosymm scf=(qc)
 -----------------------------------------

 -------------------
 Title Card Required
 -------------------
 Symbolic Z-matrix:
 Charge =  0 Multiplicity = 2

                          Input orientation:
 ---------------------------------------------------------------------
 Center     Atomic      Atomic             Coordinates (Angstroms)
 Number     Number       Type             X           Y           Z
 ---------------------------------------------------------------------
      1          1           0        0.000000    0.000000    0.000000
      2          1           0       -1.450000    0.000000    0.000000
      3          9           0        1.400000    0.000000    0.000000
 ---------------------------------------------------------------------

 SCF Done:  E(UB3LYP) =  -100.895965964     a.u. after   12 cycles

 Alpha  occ. eigenvalues --  -24.64396  -1.11464  -0.48162  -0.38327  -0.36982
 Alpha  occ. eigenvalues --   -0.36982
 Alpha virt. eigenvalues --   -0.04089   0.20502   0.29086   0.93170   0.93170
 Alpha virt. eigenvalues --    1.00728   1.03452   1.14093   1.14093   1.42009
 Alpha virt. eigenvalues --    1.42009   1.52364   1.87586   2.19956   2.42797

  Beta  occ. eigenvalues --  -24.63224  -1.08372  -0.42963  -0.35873  -0.35873
  Beta virt. eigenvalues --   -0.21300  -0.00551   0.23913   0.30917   0.93312
  Beta virt. eigenvalues --    0.93312   1.04866   1.07455   1.21401   1.21401
  Beta virt. eigenvalues --    1.44514   1.44514   1.56424   1.92822   2.25103

 Mulliken charges and spin densities:
               1          2
     1  H    0.266300  -0.146639
     2  H    0.069424   0.787617
     3  F   -0.335724   0.359022
 Sum of Mulliken charges =   0.00000   1.00000

 Dipole moment (field-independent basis, Debye):
    X=             -2.8335    Y=             -0.0000    Z=              0.0000  Tot=              2.8335
 Quadrupole moment (field-independent basis, Debye-Ang):
   XX=             -8.1228   YY=             -7.1404   ZZ=             -7.1404
   XY=             -0.0000   XZ=              0.0000   YZ=             -0.0000

  Exact polarizability:      30.086       0.000       2.357      -0.000      -0.000       2.357
 Approx polarizability:      42.449       0.000       2.311      -0.000       0.000       2.311

 ******    2 imaginary frequencies (negative Signs) ******

                      1                      2                      3
                      A                      A                      A
 Frequencies --  -2562.2285              -188.5723              1099.6970
 Red. masses --      1.0234                 1.0903                 1.0184
 Frc consts  --      3.9585                 0.0228                 0.7256
 IR Inten    --    130.9993                16.5212                36.6786

                      4
                      A
 Frequencies --   1099.6970
 Red. masses --      1.0184
 Frc consts  --      0.7256
 IR Inten    --     36.6786

 - Thermochemistry -
 -------------------
 Temperature   298.150 Kelvin.  Pressure   1.00000 Atm.
 Atom     1 has atomic number  1 and mass   1.00783

 Molecular mass:    21.01405 amu.
 Principal axes and moments of inertia in atomic units:
                           1         2         3
     Eigenvalues --     0.00000  33.16929  33.16929
           X            1.00000  -0.00000   0.00000
           Y            0.00000   1.00000   0.00000
           Z            0.00000   0.00000   1.00000
 This molecule is a prolate symmetric top.
 Rotational symmetry number  1.
 Rotational temperature (Kelvin)      2.61127
 Rotational constant (GHZ):          54.410002
    2 imaginary frequencies ignored.
 Zero-point vibrational energy      13155.3 (Joules/Mol)
                                    3.14419 (Kcal/Mol)
 Vibrational temperatures:   1582.22  1582.22
          (Kelvin)

 Zero-point correction=                           0.005011 (Hartree/Particle)
 Thermal correction to Energy=                    0.007421
 Thermal correction to Enthalpy=                  0.008365
 Thermal correction to Gibbs Free Energy=        -0.014428
 Sum of electronic and zero-point Energies=           -100.890955
 Sum of electronic and thermal Energies=              -100.888545
 Sum of electronic and thermal Enthalpies=            -100.887601
 Sum of electronic and thermal Free Energies=         -100.910394

                     E (Thermal)             CV                S
                      KCal/Mol        Cal/Mol-Kelvin    Cal/Mol-Kelvin
 Total                    4.657              5.528             47.972
 Electronic               0.000              0.000              1.377
 Translational            0.889              2.981             35.068
 Rotational               0.592              1.987             11.402
 Vibrational              3.176              0.560              0.125

 Normal termination of Gaussian 16 at Fri Aug 22 16:19:44 2025.
