 Gaussian 16, Revision C.01,
 Gaussian 16:  ES64L-G16RevC.01  3-Jul-2019

 -----------------------------------------
 # sp b3lyp/6-311g** Force nosymm scf=(qc)
 -----------------------------------------

 -------------------
 Title Card Required
 -------------------
 Symbolic Z-matrix:
 Charge =  0 Multiplicity = 2

                          Input orientation:
 ---------------------------------------------------------------------
 Center     Atomic      Atomic             Coordinates (Angstroms)
 Number     Number       Type             X           Y           Z
 ---------------------------------------------------------------------
      1          1           0        0.000000    0.000000    0.000000
      2          1           0       -2.050000    0.000000    0.000000
      3          9           0        3.650000    0.000000    0.000000
 ---------------------------------------------------------------------

 SCF Done:  E(UB3LYP) =  -100.772380838     a.u. after   34 cycles

 Alpha  occ. eigenvalues --  -24.75750  -1.21688  -0.54875  -0.46078  -0.46078
 Alpha  occ. eigenvalues --   -0.32962
 Alpha virt. eigenvalues --   -0.10789   0.25947   0.32661   0.87151   0.91240
 Alpha virt. eigenvalues --    0.91240   1.01399   1.19041   1.24998   1.24998
 Alpha virt. eigenvalues --    1.38319   1.38319   1.49425   2.13291   2.36033

  Beta  occ. eigenvalues --  -24.72618  -1.12681  -0.42938  -0.42938  -0.33042
  Beta virt. eigenvalues --   -0.25708  -0.10583   0.25809   0.33026   0.92734
  Beta virt. eigenvalues --    0.92734   0.96414   1.05486   1.19008   1.24902
  Beta virt. eigenvalues --    1.24902   1.38600   1.38600   1.49628   2.13684

 Mulliken charges and spin densities:
               1          2
     1  H    0.001569  -0.871769
     2  H    0.004123   0.878422
     3  F   -0.005692   0.993346
 Sum of Mulliken charges =   0.00000   1.00000

 Dipole moment (field-independent basis, Debye):
    X=             -0.1464    Y=             -0.0000    Z=             -0.0000  Tot=              0.1464
 Quadrupole moment (field-independent basis, Debye-Ang):
   XX=             -6.5229   YY=             -7.7203   ZZ=             -7.7203
   XY=             -0.0000   XZ=             -0.0000   YZ=              0.0000

  Exact polarizability:      37.038      -0.000       2.008      -0.000       0.000       2.008
 Approx polarizability:      32.151      -0.000       1.936      -0.000      -0.000       1.936

 ******    2 imaginary frequencies (negative Signs) ******

                      1                      2                      3
                      A                      A                      A
 Frequencies --  -1264.4965              -111.3459               508.2753
 Red. masses --      1.0078                 1.1085                 1.0125
 Frc consts  --      0.9495                 0.0081                 0.1541
 IR Inten    --      4.5872                 3.5304                 0.0000

                      4
                      A
 Frequencies --    508.2753
 Red. masses --      1.0125
 Frc consts  --      0.1541
 IR Inten    --      0.0000

 - Thermochemistry -
 -------------------
 Temperature   298.150 Kelvin.  Pressure   1.00000 Atm.
 Atom     1 has atomic number  1 and mass   1.00783

 Molecular mass:    21.01405 amu.
 Principal axes and moments of inertia in atomic units:
                           1         2         3
     Eigenvalues --     0.00000 149.78985 149.78985
           X            1.00000  -0.00000   0.00000
           Y            0.00000   1.00000   0.00000
           Z            0.00000   0.00000   1.00000
 This molecule is a prolate symmetric top.
 Rotational symmetry number  1.
 Rotational temperature (Kelvin)      0.57824
 Rotational constant (GHZ):          12.048488
    2 imaginary frequencies ignored.
 Zero-point vibrational energy       6080.3 (Joules/Mol)
                                    1.45323 (Kcal/Mol)
 Warning -- explicit consideration of   2 degrees of freedom as
           vibrations may cause significant error
 Vibrational temperatures:    731.29   731.29
          (Kelvin)

 Zero-point correction=                           0.002316 (Hartree/Particle)
 Thermal correction to Energy=                    0.005112
 Thermal correction to Enthalpy=                  0.006057
 Thermal correction to Gibbs Free Energy=        -0.018707
 Sum of electronic and zero-point Energies=           -100.770065
 Sum of electronic and thermal Energies=              -100.767268
 Sum of electronic and thermal Enthalpies=            -100.766324
 Sum of electronic and thermal Free Energies=         -100.791088

                     E (Thermal)             CV                S
                      KCal/Mol        Cal/Mol-Kelvin    Cal/Mol-Kelvin
 Total                    3.208              7.431             52.119
 Electronic               0.000              0.000              1.377
 Translational            0.889              2.981             35.068
 Rotational               0.592              1.987             14.398
 Vibrational              1.727              2.463              1.276
 Vibration     1          0.863              1.232              0.638
 Vibration     2          0.863              1.232              0.638

 Normal termination of Gaussian 16 at Fri Aug 22 23:35:50 2025.
