 Gaussian 16, Revision C.01,
 Gaussian 16:  ES64L-G16RevC.01  3-Jul-2019

 -----------------------------------------
 # sp b3lyp/6-311g** Force nosymm scf=(qc)
 -----------------------------------------

 -------------------
 Title Card Required
 -------------------
 Symbolic Z-matrix:
 Charge =  0 Multiplicity = 2

                          Input orientation:
 ---------------------------------------------------------------------
 Center     Atomic      Atomic             Coordinates (Angstroms)
 Number     Number       Type             X           Y           Z
 ---------------------------------------------------------------------
      1          1           0        0.000000    0.000000    0.000000
      2          1           0       -2.600000    0.000000    0.000000
      3          9           0        0.700000    0.000000    0.000000
 ---------------------------------------------------------------------

 SCF Done:  E(UB3LYP) =  -100.874942350     a.u. after    6 cycles

 Alpha  occ. eigenvalues --  -24.63158  -1.28186  -0.58574  -0.41720  -0.41720
 Alpha  occ. eigenvalues --   -0.34327
 Alpha virt. eigenvalues --    0.07595   0.25554   0.52502   0.93524   0.93524
 Alpha virt. eigenvalues --    0.95735   1.18989   1.23218   1.23218   1.41235
 Alpha virt. eigenvalues --    1.44103   1.44103   1.97897   2.14443   2.86641

  Beta  occ. eigenvalues --  -24.63151  -1.28166  -0.58550  -0.41715  -0.41715
  Beta virt. eigenvalues --   -0.07945   0.08936   0.38244   0.52491   0.93522
  Beta virt. eigenvalues --    0.93522   0.95821   1.29744   1.44095   1.44095
  Beta virt. eigenvalues --    1.46757   1.46757   1.54939   1.97733   2.43204

 Mulliken charges and spin densities:
               1          2
     1  H    0.258432   0.002886
     2  H    0.003919   0.994379
     3  F   -0.262351   0.002735
 Sum of Mulliken charges =   0.00000   1.00000

 Dipole moment (field-independent basis, Debye):
    X=             -1.6322    Y=             -0.0000    Z=              0.0000  Tot=              1.6322
 Quadrupole moment (field-independent basis, Debye-Ang):
   XX=             -7.1365   YY=             -6.6582   ZZ=             -6.6582
   XY=             -0.0000   XZ=              0.0000   YZ=              0.0000

  Exact polarizability:       5.277       0.000       2.470      -0.000      -0.000       2.470
 Approx polarizability:       5.441       0.000       2.454      -0.000      -0.000       2.454

 ******    2 imaginary frequencies (negative Signs) ******

                      1                      2                      3
                      A                      A                      A
 Frequencies --  -3533.3043             -3533.3043                80.4489
 Red. masses --      1.0378                 1.0378                 1.0532
 Frc consts  --      7.6339                 7.6339                 0.0040
 IR Inten    --    202.1810               202.1810                 0.2108

                      4
                      A
 Frequencies --   9072.5586
 Red. masses --      1.0583
 Frc consts  --     51.3245
 IR Inten    --    118.8922

 - Thermochemistry -
 -------------------
 Temperature   298.150 Kelvin.  Pressure   1.00000 Atm.
 Atom     1 has atomic number  1 and mass   1.00783

 Molecular mass:    21.01405 amu.
 Principal axes and moments of inertia in atomic units:
                           1         2         3
     Eigenvalues --     0.00000  38.19501  38.19501
           X            1.00000  -0.00000   0.00000
           Y            0.00000   1.00000   0.00000
           Z            0.00000   0.00000   1.00000
 This molecule is a prolate symmetric top.
 Rotational symmetry number  1.
 Rotational temperature (Kelvin)      2.26768
 Rotational constant (GHZ):          47.250711
    2 imaginary frequencies ignored.
 Zero-point vibrational energy      54747.1 (Joules/Mol)
                                   13.08488 (Kcal/Mol)
 Warning -- explicit consideration of   1 degrees of freedom as
           vibrations may cause significant error
 Vibrational temperatures:    115.75 13053.39
          (Kelvin)

 Zero-point correction=                           0.020852 (Hartree/Particle)
 Thermal correction to Energy=                    0.023985
 Thermal correction to Enthalpy=                  0.024929
 Thermal correction to Gibbs Free Energy=         0.000219
 Sum of electronic and zero-point Energies=           -100.854090
 Sum of electronic and thermal Energies=              -100.850957
 Sum of electronic and thermal Enthalpies=            -100.850013
 Sum of electronic and thermal Free Energies=         -100.874723

                     E (Thermal)             CV                S
                      KCal/Mol        Cal/Mol-Kelvin    Cal/Mol-Kelvin
 Total                   15.051              6.930             52.008
 Electronic               0.000              0.000              1.377
 Translational            0.889              2.981             35.068
 Rotational               0.592              1.987             11.682
 Vibrational             13.570              1.962              3.880
 Vibration     1          0.600              1.962              3.880

 Normal termination of Gaussian 16 at Fri Aug 22 15:46:49 2025.
