 Gaussian 16, Revision C.01,
 Gaussian 16:  ES64L-G16RevC.01  3-Jul-2019

 -----------------------------------------
 # sp b3lyp/6-311g** Force nosymm scf=(qc)
 -----------------------------------------

 -------------------
 Title Card Required
 -------------------
 Symbolic Z-matrix:
 Charge =  0 Multiplicity = 2

                          Input orientation:
 ---------------------------------------------------------------------
 Center     Atomic      Atomic             Coordinates (Angstroms)
 Number     Number       Type             X           Y           Z
 ---------------------------------------------------------------------
      1          1           0        0.000000    0.000000    0.000000
      2          1           0       -3.550000    0.000000    0.000000
      3          9           0        2.450000    0.000000    0.000000
 ---------------------------------------------------------------------

 SCF Done:  E(UB3LYP) =  -100.768590536     a.u. after   17 cycles

 Alpha  occ. eigenvalues --  -24.71437  -1.17671  -0.50535  -0.42459  -0.42459
 Alpha  occ. eigenvalues --   -0.32925
 Alpha virt. eigenvalues --   -0.10558   0.23378   0.35054   0.89465   0.93770
 Alpha virt. eigenvalues --    0.93770   1.06297   1.24583   1.24583   1.24715
 Alpha virt. eigenvalues --    1.40071   1.40071   1.45429   2.14378   2.36072

  Beta  occ. eigenvalues --  -24.68624  -1.09673  -0.39656  -0.39656  -0.35569
  Beta virt. eigenvalues --   -0.23139  -0.06685   0.23807   0.37941   0.95107
  Beta virt. eigenvalues --    0.95107   0.95275   1.08497   1.21951   1.21951
  Beta virt. eigenvalues --    1.31251   1.45798   1.46064   1.46064   2.12528

 Mulliken charges and spin densities:
               1          2
     1  H    0.097234  -0.886687
     2  H    0.000838   0.998152
     3  F   -0.098071   0.888535
 Sum of Mulliken charges =   0.00000   1.00000

 Dipole moment (field-independent basis, Debye):
    X=             -1.2340    Y=              0.0000    Z=             -0.0000  Tot=              1.2340
 Quadrupole moment (field-independent basis, Debye-Ang):
   XX=             -9.3994   YY=             -7.5645   ZZ=             -7.5645
   XY=              0.0000   XZ=             -0.0000   YZ=             -0.0000

  Exact polarizability:      30.382       0.000       2.027      -0.000      -0.000       2.027
 Approx polarizability:      38.967       0.000       1.921      -0.000      -0.000       1.921

 ******    2 imaginary frequencies (negative Signs) ******

                      1                      2                      3
                      A                      A                      A
 Frequencies --   -650.4625              -114.0500               257.7443
 Red. masses --      1.0550                 1.0565                 1.0230
 Frc consts  --      0.2630                 0.0081                 0.0400
 IR Inten    --     84.7416                 0.2246                 9.0498

                      4
                      A
 Frequencies --    257.7443
 Red. masses --      1.0230
 Frc consts  --      0.0400
 IR Inten    --      9.0498

 - Thermochemistry -
 -------------------
 Temperature   298.150 Kelvin.  Pressure   1.00000 Atm.
 Atom     1 has atomic number  1 and mass   1.00783

 Molecular mass:    21.01405 amu.
 Principal axes and moments of inertia in atomic units:
                           1         2         3
     Eigenvalues --     0.00000 138.84279 138.84279
           X            1.00000  -0.00000   0.00000
           Y            0.00000   1.00000   0.00000
           Z            0.00000   0.00000   1.00000
 This molecule is a prolate symmetric top.
 Rotational symmetry number  1.
 Rotational temperature (Kelvin)      0.62383
 Rotational constant (GHZ):          12.998451
    2 imaginary frequencies ignored.
 Zero-point vibrational energy       3083.3 (Joules/Mol)
                                    0.73693 (Kcal/Mol)
 Warning -- explicit consideration of   2 degrees of freedom as
           vibrations may cause significant error
 Vibrational temperatures:    370.84   370.84
          (Kelvin)

 Zero-point correction=                           0.001174 (Hartree/Particle)
 Thermal correction to Energy=                    0.004486
 Thermal correction to Enthalpy=                  0.005430
 Thermal correction to Gibbs Free Energy=        -0.020249
 Sum of electronic and zero-point Energies=           -100.767416
 Sum of electronic and thermal Energies=              -100.764104
 Sum of electronic and thermal Enthalpies=            -100.763160
 Sum of electronic and thermal Free Energies=         -100.788839

                     E (Thermal)             CV                S
                      KCal/Mol        Cal/Mol-Kelvin    Cal/Mol-Kelvin
 Total                    2.815              8.467             54.047
 Electronic               0.000              0.000              1.377
 Translational            0.889              2.981             35.068
 Rotational               0.592              1.987             14.247
 Vibrational              1.334              3.499              3.354
 Vibration     1          0.667              1.750              1.677
 Vibration     2          0.667              1.750              1.677

 Normal termination of Gaussian 16 at Fri Aug 22 17:39:47 2025.
