 Gaussian 16, Revision C.01,
 Gaussian 16:  ES64L-G16RevC.01  3-Jul-2019

 -----------------------------------------
 # sp b3lyp/6-311g** Force nosymm scf=(qc)
 -----------------------------------------

 -------------------
 Title Card Required
 -------------------
 Symbolic Z-matrix:
 Charge =  0 Multiplicity = 2

                          Input orientation:
 ---------------------------------------------------------------------
 Center     Atomic      Atomic             Coordinates (Angstroms)
 Number     Number       Type             X           Y           Z
 ---------------------------------------------------------------------
      1          1           0        0.000000    0.000000    0.000000
      2          1           0       -1.900000    0.000000    0.000000
      3          9           0        0.500000    0.000000    0.000000
 ---------------------------------------------------------------------

 SCF Done:  E(UB3LYP) =  -100.267402226     a.u. after    7 cycles

 Alpha  occ. eigenvalues --  -24.63036  -1.42405  -0.63640  -0.44339  -0.44339
 Alpha  occ. eigenvalues --   -0.35036
 Alpha virt. eigenvalues --    0.12222   0.23797   0.58021   0.89620   0.90102
 Alpha virt. eigenvalues --    0.90102   1.22304   1.22304   1.27792   1.58666
 Alpha virt. eigenvalues --    1.58666   1.60636   2.05607   2.22085   3.76634

  Beta  occ. eigenvalues --  -24.63005  -1.42307  -0.63545  -0.44324  -0.44324
  Beta virt. eigenvalues --   -0.09718   0.13496   0.34519   0.60518   0.89729
  Beta virt. eigenvalues --    0.90097   0.90097   1.36002   1.42629   1.42629
  Beta virt. eigenvalues --    1.58846   1.58846   1.68730   2.10081   2.46599

 Mulliken charges and spin densities:
               1          2
     1  H    0.092283   0.012651
     2  H    0.010065   0.987100
     3  F   -0.102348   0.000250
 Sum of Mulliken charges =   0.00000   1.00000

 Dipole moment (field-independent basis, Debye):
    X=             -1.3503    Y=             -0.0000    Z=             -0.0000  Tot=              1.3503
 Quadrupole moment (field-independent basis, Debye-Ang):
   XX=             -6.4634   YY=             -6.4034   ZZ=             -6.4034
   XY=             -0.0000   XZ=             -0.0000   YZ=             -0.0000

  Exact polarizability:       5.282      -0.000       2.453      -0.000      -0.000       2.453
 Approx polarizability:       5.039       0.000       2.449       0.000      -0.000       2.449

 ******    2 imaginary frequencies (negative Signs) ******

                      1                      2                      3
                      A                      A                      A
 Frequencies --  -9472.3205             -9472.3205               491.3508
 Red. masses --      1.0382                 1.0382                 1.0533
 Frc consts  --     54.8829                54.8829                 0.1498
 IR Inten    --    235.0415               235.0415                 0.2065

                      4
                      A
 Frequencies --  19157.4243
 Red. masses --      1.0583
 Frc consts  --    228.8354
 IR Inten    --     85.7274

 - Thermochemistry -
 -------------------
 Temperature   298.150 Kelvin.  Pressure   1.00000 Atm.
 Atom     1 has atomic number  1 and mass   1.00783

 Molecular mass:    21.01405 amu.
 Principal axes and moments of inertia in atomic units:
                           1         2         3
     Eigenvalues --     0.00000  20.17842  20.17842
           X            1.00000  -0.00000   0.00000
           Y            0.00000   1.00000   0.00000
           Z            0.00000   0.00000   1.00000
 This molecule is a prolate symmetric top.
 Rotational symmetry number  1.
 Rotational temperature (Kelvin)      4.29240
 Rotational constant (GHZ):          89.439186
    2 imaginary frequencies ignored.
 Zero-point vibrational energy     117525.8 (Joules/Mol)
                                   28.08933 (Kcal/Mol)
 Warning -- explicit consideration of   1 degrees of freedom as
           vibrations may cause significant error
 Vibrational temperatures:    706.94 27563.26
          (Kelvin)

 Zero-point correction=                           0.044763 (Hartree/Particle)
 Thermal correction to Energy=                    0.047354
 Thermal correction to Enthalpy=                  0.048298
 Thermal correction to Gibbs Free Energy=         0.025711
 Sum of electronic and zero-point Energies=           -100.222639
 Sum of electronic and thermal Energies=              -100.220048
 Sum of electronic and thermal Enthalpies=            -100.219104
 Sum of electronic and thermal Free Energies=         -100.241692

                     E (Thermal)             CV                S
                      KCal/Mol        Cal/Mol-Kelvin    Cal/Mol-Kelvin
 Total                   29.715              6.237             47.540
 Electronic               0.000              0.000              1.377
 Translational            0.889              2.981             35.068
 Rotational               0.592              1.987             10.414
 Vibrational             28.234              1.269              0.680
 Vibration     1          0.847              1.269              0.680

 Normal termination of Gaussian 16 at Fri Aug 22 15:36:50 2025.
