 Gaussian 16, Revision C.01,
 Gaussian 16:  ES64L-G16RevC.01  3-Jul-2019

 -----------------------------------------
 # sp b3lyp/6-311g** Force nosymm scf=(qc)
 -----------------------------------------

 -------------------
 Title Card Required
 -------------------
 Symbolic Z-matrix:
 Charge =  0 Multiplicity = 2

                          Input orientation:
 ---------------------------------------------------------------------
 Center     Atomic      Atomic             Coordinates (Angstroms)
 Number     Number       Type             X           Y           Z
 ---------------------------------------------------------------------
      1          1           0        0.000000    0.000000    0.000000
      2          1           0       -0.500000    0.000000    0.000000
      3          9           0        3.200000    0.000000    0.000000
 ---------------------------------------------------------------------

 SCF Done:  E(UB3LYP) =  -100.862045702     a.u. after   80 cycles

 Alpha  occ. eigenvalues --  -24.76469  -1.22285  -0.55483  -0.49233  -0.46648
 Alpha  occ. eigenvalues --   -0.46634
 Alpha virt. eigenvalues --    0.10164   0.18382   0.55906   0.85965   0.90838
 Alpha virt. eigenvalues --    0.93965   1.05298   1.12128   1.12134   1.61796
 Alpha virt. eigenvalues --    1.86104   1.99661   1.99668   2.36483   3.64765

  Beta  occ. eigenvalues --  -24.73309  -1.13200  -0.49217  -0.43492  -0.43465
  Beta virt. eigenvalues --   -0.26110   0.10213   0.18408   0.56027   0.92337
  Beta virt. eigenvalues --    0.95424   0.95753   1.08963   1.12128   1.12133
  Beta virt. eigenvalues --    1.61819   1.86142   1.99660   1.99667   2.36486

 Mulliken charges and spin densities:
               1          2
     1  H   -0.007506  -0.001398
     2  H   -0.000568   0.000360
     3  F    0.008074   1.001039
 Sum of Mulliken charges =   0.00000   1.00000

 Dipole moment (field-independent basis, Debye):
    X=              0.0738    Y=             -0.0000    Z=             -0.0000  Tot=              0.0738
 Quadrupole moment (field-independent basis, Debye-Ang):
   XX=             -6.0009   YY=             -6.5635   ZZ=             -5.7605
   XY=             -0.0000   XZ=             -0.0000   YZ=             -0.1591

  Exact polarizability:       5.712       0.000       1.819       0.000      -0.085       2.249
 Approx polarizability:       5.987       0.000       1.905       0.000      -0.107       2.443

 ******    2 imaginary frequencies (negative Signs) ******

                      1                      2                      3
                      A                      A                      A
 Frequencies --  -4826.2900             -4825.9853                52.8462
 Red. masses --      1.0084                 1.0084                 1.1085
 Frc consts  --     13.8385                13.8368                 0.0018
 IR Inten    --      0.0447                 0.0422                 0.1377

                      4
                      A
 Frequencies --   9960.3618
 Red. masses --      1.0078
 Frc consts  --     58.9095
 IR Inten    --      0.1310

 - Thermochemistry -
 -------------------
 Temperature   298.150 Kelvin.  Pressure   1.00000 Atm.
 Atom     1 has atomic number  1 and mass   1.00783

 Molecular mass:    21.01405 amu.
 Principal axes and moments of inertia in atomic units:
                           1         2         3
     Eigenvalues --     0.00000  77.90646  77.90646
           X            1.00000  -0.00000   0.00000
           Y            0.00000   1.00000   0.00000
           Z            0.00000   0.00000   1.00000
 This molecule is a prolate symmetric top.
 Rotational symmetry number  1.
 Rotational temperature (Kelvin)      1.11177
 Rotational constant (GHZ):          23.165489
    2 imaginary frequencies ignored.
 Zero-point vibrational energy      59892.3 (Joules/Mol)
                                   14.31460 (Kcal/Mol)
 Warning -- explicit consideration of   1 degrees of freedom as
           vibrations may cause significant error
 Vibrational temperatures:     76.03 14330.74
          (Kelvin)

 Zero-point correction=                           0.022812 (Hartree/Particle)
 Thermal correction to Energy=                    0.026001
 Thermal correction to Enthalpy=                  0.026945
 Thermal correction to Gibbs Free Energy=         0.001168
 Sum of electronic and zero-point Energies=           -100.839234
 Sum of electronic and thermal Energies=              -100.836045
 Sum of electronic and thermal Enthalpies=            -100.835100
 Sum of electronic and thermal Free Energies=         -100.860877

                     E (Thermal)             CV                S
                      KCal/Mol        Cal/Mol-Kelvin    Cal/Mol-Kelvin
 Total                   16.316              6.944             54.252
 Electronic               0.000              0.000              1.377
 Translational            0.889              2.981             35.068
 Rotational               0.592              1.987             13.099
 Vibrational             14.835              1.976              4.708
 Vibration     1          0.596              1.976              4.708

 Normal termination of Gaussian 16 at Fri Aug 22 20:12:37 2025.
