 Gaussian 16, Revision C.01,
 Gaussian 16:  ES64L-G16RevC.01  3-Jul-2019

 -----------------------------------------
 # sp b3lyp/6-311g** Force nosymm scf=(qc)
 -----------------------------------------

 -------------------
 Title Card Required
 -------------------
 Symbolic Z-matrix:
 Charge =  0 Multiplicity = 2

                          Input orientation:
 ---------------------------------------------------------------------
 Center     Atomic      Atomic             Coordinates (Angstroms)
 Number     Number       Type             X           Y           Z
 ---------------------------------------------------------------------
      1          1           0        0.000000    0.000000    0.000000
      2          1           0       -2.650000    0.000000    0.000000
      3          9           0        3.900000    0.000000    0.000000
 ---------------------------------------------------------------------

 SCF Done:  E(UB3LYP) =  -100.761215005     a.u. after   35 cycles

 Alpha  occ. eigenvalues --  -24.75852  -1.21782  -0.54977  -0.46161  -0.46161
 Alpha  occ. eigenvalues --   -0.32466
 Alpha virt. eigenvalues --   -0.08714   0.25606   0.35284   0.86680   0.91185
 Alpha virt. eigenvalues --    0.91185   1.01139   1.25133   1.25133   1.26561
 Alpha virt. eigenvalues --    1.42702   1.42702   1.43510   2.16076   2.37832

  Beta  occ. eigenvalues --  -24.72709  -1.12745  -0.43010  -0.43010  -0.32634
  Beta virt. eigenvalues --   -0.25726  -0.08480   0.25440   0.35598   0.92683
  Beta virt. eigenvalues --    0.92683   0.96041   1.05261   1.24949   1.24949
  Beta virt. eigenvalues --    1.26353   1.43045   1.43045   1.43851   2.16174

 Mulliken charges and spin densities:
               1          2
     1  H    0.002399  -0.976689
     2  H    0.000722   0.980222
     3  F   -0.003121   0.996467
 Sum of Mulliken charges =   0.00000   1.00000

 Dipole moment (field-independent basis, Debye):
    X=             -0.0719    Y=              0.0000    Z=              0.0000  Tot=              0.0719
 Quadrupole moment (field-independent basis, Debye-Ang):
   XX=             -6.7948   YY=             -7.6552   ZZ=             -7.6552
   XY=              0.0000   XZ=              0.0000   YZ=              0.0000

  Exact polarizability:      18.904       0.000       2.024       0.000       0.000       2.024
 Approx polarizability:      14.181       0.000       1.932       0.000      -0.000       1.932

 ******    2 imaginary frequencies (negative Signs) ******

                      1                      2                      3
                      A                      A                      A
 Frequencies --   -534.2412               -80.3431               195.0865
 Red. masses --      1.0079                 1.1084                 1.0139
 Frc consts  --      0.1695                 0.0042                 0.0227
 IR Inten    --      0.9117                 1.0140                 0.0042

                      4
                      A
 Frequencies --    195.0865
 Red. masses --      1.0139
 Frc consts  --      0.0227
 IR Inten    --      0.0042

 - Thermochemistry -
 -------------------
 Temperature   298.150 Kelvin.  Pressure   1.00000 Atm.
 Atom     1 has atomic number  1 and mass   1.00783

 Molecular mass:    21.01405 amu.
 Principal axes and moments of inertia in atomic units:
                           1         2         3
     Eigenvalues --     0.00000 190.29828 190.29828
           X            1.00000  -0.00000   0.00000
           Y            0.00000   1.00000   0.00000
           Z            0.00000   0.00000   1.00000
 This molecule is a prolate symmetric top.
 Rotational symmetry number  1.
 Rotational temperature (Kelvin)      0.45515
 Rotational constant (GHZ):           9.483750
    2 imaginary frequencies ignored.
 Zero-point vibrational energy       2333.8 (Joules/Mol)
                                    0.55778 (Kcal/Mol)
 Warning -- explicit consideration of   2 degrees of freedom as
           vibrations may cause significant error
 Vibrational temperatures:    280.69   280.69
          (Kelvin)

 Zero-point correction=                           0.000889 (Hartree/Particle)
 Thermal correction to Energy=                    0.004386
 Thermal correction to Enthalpy=                  0.005330
 Thermal correction to Gibbs Free Energy=        -0.021123
 Sum of electronic and zero-point Energies=           -100.760326
 Sum of electronic and thermal Energies=              -100.756829
 Sum of electronic and thermal Enthalpies=            -100.755885
 Sum of electronic and thermal Free Energies=         -100.782338

                     E (Thermal)             CV                S
                      KCal/Mol        Cal/Mol-Kelvin    Cal/Mol-Kelvin
 Total                    2.752              8.661             55.677
 Electronic               0.000              0.000              1.377
 Translational            0.889              2.981             35.068
 Rotational               0.592              1.987             14.874
 Vibrational              1.271              3.693              4.358
 Vibration     1          0.636              1.847              2.179
 Vibration     2          0.636              1.847              2.179

 Normal termination of Gaussian 16 at Sat Aug 23 01:25:37 2025.
