 Gaussian 16, Revision C.01,
 Gaussian 16:  ES64L-G16RevC.01  3-Jul-2019

 -----------------------------------------
 # sp b3lyp/6-311g** Force nosymm scf=(qc)
 -----------------------------------------

 -------------------
 Title Card Required
 -------------------
 Symbolic Z-matrix:
 Charge =  0 Multiplicity = 2

                          Input orientation:
 ---------------------------------------------------------------------
 Center     Atomic      Atomic             Coordinates (Angstroms)
 Number     Number       Type             X           Y           Z
 ---------------------------------------------------------------------
      1          1           0        0.000000    0.000000    0.000000
      2          1           0       -3.000000    0.000000    0.000000
      3          9           0        1.900000    0.000000    0.000000
 ---------------------------------------------------------------------

 SCF Done:  E(UB3LYP) =  -100.795612894     a.u. after   14 cycles

 Alpha  occ. eigenvalues --  -24.67391  -1.13671  -0.46302  -0.39038  -0.39038
 Alpha  occ. eigenvalues --   -0.34121
 Alpha virt. eigenvalues --   -0.14331   0.22661   0.30769   0.90668   0.94904
 Alpha virt. eigenvalues --    0.94904   1.05932   1.23424   1.23424   1.24143
 Alpha virt. eigenvalues --    1.34451   1.34451   1.65331   2.14121   2.28025

  Beta  occ. eigenvalues --  -24.65213  -1.07624  -0.38547  -0.36901  -0.36901
  Beta virt. eigenvalues --   -0.20070  -0.08224   0.23134   0.36741   0.91787
  Beta virt. eigenvalues --    0.95240   0.95240   1.08269   1.22749   1.22749
  Beta virt. eigenvalues --    1.43843   1.44231   1.44231   1.59737   2.12795

 Mulliken charges and spin densities:
               1          2
     1  H    0.217138  -0.676124
     2  H    0.006194   0.991369
     3  F   -0.223332   0.684755
 Sum of Mulliken charges =   0.00000   1.00000

 Dipole moment (field-independent basis, Debye):
    X=             -2.1723    Y=              0.0000    Z=             -0.0000  Tot=              2.1723
 Quadrupole moment (field-independent basis, Debye-Ang):
   XX=             -9.8905   YY=             -7.4760   ZZ=             -7.4760
   XY=             -0.0000   XZ=              0.0000   YZ=             -0.0000

  Exact polarizability:      28.300      -0.000       2.077       0.000      -0.000       2.077
 Approx polarizability:      39.229      -0.000       1.965       0.000       0.000       1.965

 ******    2 imaginary frequencies (negative Signs) ******

                      1                      2                      3
                      A                      A                      A
 Frequencies --  -1319.0761              -216.5126               558.7361
 Red. masses --      1.0551                 1.0564                 1.0243
 Frc consts  --      1.0817                 0.0292                 0.1884
 IR Inten    --    120.2799                 2.3550                42.2225

                      4
                      A
 Frequencies --    558.7361
 Red. masses --      1.0243
 Frc consts  --      0.1884
 IR Inten    --     42.2225

 - Thermochemistry -
 -------------------
 Temperature   298.150 Kelvin.  Pressure   1.00000 Atm.
 Atom     1 has atomic number  1 and mass   1.00783

 Molecular mass:    21.01405 amu.
 Principal axes and moments of inertia in atomic units:
                           1         2         3
     Eigenvalues --     0.00000  91.42327  91.42327
           X            1.00000  -0.00000   0.00000
           Y            0.00000   1.00000   0.00000
           Z            0.00000   0.00000   1.00000
 This molecule is a prolate symmetric top.
 Rotational symmetry number  1.
 Rotational temperature (Kelvin)      0.94739
 Rotational constant (GHZ):          19.740501
    2 imaginary frequencies ignored.
 Zero-point vibrational energy       6684.0 (Joules/Mol)
                                    1.59751 (Kcal/Mol)
 Warning -- explicit consideration of   2 degrees of freedom as
           vibrations may cause significant error
 Vibrational temperatures:    803.90   803.90
          (Kelvin)

 Zero-point correction=                           0.002546 (Hartree/Particle)
 Thermal correction to Energy=                    0.005275
 Thermal correction to Enthalpy=                  0.006219
 Thermal correction to Gibbs Free Energy=        -0.017973
 Sum of electronic and zero-point Energies=           -100.793067
 Sum of electronic and thermal Energies=              -100.790338
 Sum of electronic and thermal Enthalpies=            -100.789394
 Sum of electronic and thermal Free Energies=         -100.813586

                     E (Thermal)             CV                S
                      KCal/Mol        Cal/Mol-Kelvin    Cal/Mol-Kelvin
 Total                    3.310              7.209             50.915
 Electronic               0.000              0.000              1.377
 Translational            0.889              2.981             35.068
 Rotational               0.592              1.987             13.417
 Vibrational              1.829              2.241              1.053
 Vibration     1          0.914              1.121              0.526
 Vibration     2          0.914              1.121              0.526

 Normal termination of Gaussian 16 at Fri Aug 22 16:50:53 2025.
