 Gaussian 16, Revision C.01,
 Gaussian 16:  ES64L-G16RevC.01  3-Jul-2019

 -----------------------------------------
 # sp b3lyp/6-311g** Force nosymm scf=(qc)
 -----------------------------------------

 -------------------
 Title Card Required
 -------------------
 Symbolic Z-matrix:
 Charge =  0 Multiplicity = 2

                          Input orientation:
 ---------------------------------------------------------------------
 Center     Atomic      Atomic             Coordinates (Angstroms)
 Number     Number       Type             X           Y           Z
 ---------------------------------------------------------------------
      1          1           0        0.000000    0.000000    0.000000
      2          1           0       -3.300000    0.000000    0.000000
      3          9           0        3.800000    0.000000    0.000000
 ---------------------------------------------------------------------

 SCF Done:  E(UB3LYP) =  -100.758987920     a.u. after   30 cycles

 Alpha  occ. eigenvalues --  -24.75757  -1.21693  -0.54881  -0.46079  -0.46079
 Alpha  occ. eigenvalues --   -0.32307
 Alpha virt. eigenvalues --   -0.07100   0.24584   0.37166   0.86858   0.91248
 Alpha virt. eigenvalues --    0.91248   1.01263   1.25205   1.25205   1.25500
 Alpha virt. eigenvalues --    1.45008   1.45234   1.45234   2.15367   2.40583

  Beta  occ. eigenvalues --  -24.72619  -1.12672  -0.42933  -0.42933  -0.32570
  Beta virt. eigenvalues --   -0.25672  -0.06805   0.24400   0.37615   0.92745
  Beta virt. eigenvalues --    0.92745   0.96163   1.05360   1.24914   1.24914
  Beta virt. eigenvalues --    1.25191   1.45470   1.45691   1.45691   2.15428

 Mulliken charges and spin densities:
               1          2
     1  H    0.004517  -0.991273
     2  H    0.000166   0.996471
     3  F   -0.004683   0.994802
 Sum of Mulliken charges =  -0.00000   1.00000

 Dipole moment (field-independent basis, Debye):
    X=             -0.0945    Y=             -0.0000    Z=              0.0000  Tot=              0.0945
 Quadrupole moment (field-independent basis, Debye-Ang):
   XX=             -7.0217   YY=             -7.6272   ZZ=             -7.6272
   XY=             -0.0000   XZ=              0.0000   YZ=             -0.0000

  Exact polarizability:      16.128       0.000       2.030       0.000      -0.000       2.030
 Approx polarizability:      11.934      -0.000       1.935       0.000       0.000       1.935

 ******    2 imaginary frequencies (negative Signs) ******

                      1                      2                      3
                      A                      A                      A
 Frequencies --   -246.0109               -89.3508                83.6785
 Red. masses --      1.0108                 1.1049                 1.0163
 Frc consts  --      0.0360                 0.0052                 0.0042
 IR Inten    --      2.1898                 1.1745                 0.0190

                      4
                      A
 Frequencies --     83.6785
 Red. masses --      1.0163
 Frc consts  --      0.0042
 IR Inten    --      0.0190

 - Thermochemistry -
 -------------------
 Temperature   298.150 Kelvin.  Pressure   1.00000 Atm.
 Atom     1 has atomic number  1 and mass   1.00783

 Molecular mass:    21.01405 amu.
 Principal axes and moments of inertia in atomic units:
                           1         2         3
     Eigenvalues --     0.00000 212.88828 212.88828
           X            1.00000  -0.00000   0.00000
           Y            0.00000   1.00000   0.00000
           Z            0.00000   0.00000   1.00000
 This molecule is a prolate symmetric top.
 Rotational symmetry number  1.
 Rotational temperature (Kelvin)      0.40685
 Rotational constant (GHZ):           8.477410
    2 imaginary frequencies ignored.
 Zero-point vibrational energy       1001.0 (Joules/Mol)
                                    0.23925 (Kcal/Mol)
 Warning -- explicit consideration of   2 degrees of freedom as
           vibrations may cause significant error
 Vibrational temperatures:    120.39   120.39
          (Kelvin)

 Zero-point correction=                           0.000381 (Hartree/Particle)
 Thermal correction to Energy=                    0.004274
 Thermal correction to Enthalpy=                  0.005219
 Thermal correction to Gibbs Free Energy=        -0.022884
 Sum of electronic and zero-point Energies=           -100.758607
 Sum of electronic and thermal Energies=              -100.754713
 Sum of electronic and thermal Enthalpies=            -100.753769
 Sum of electronic and thermal Free Energies=         -100.781872

                     E (Thermal)             CV                S
                      KCal/Mol        Cal/Mol-Kelvin    Cal/Mol-Kelvin
 Total                    2.682              8.889             59.147
 Electronic               0.000              0.000              1.377
 Translational            0.889              2.981             35.068
 Rotational               0.592              1.987             15.097
 Vibrational              1.201              3.921              7.605
 Vibration     1          0.601              1.960              3.803
 Vibration     2          0.601              1.960              3.803

 Normal termination of Gaussian 16 at Sat Aug 23 00:51:58 2025.
