 Gaussian 16, Revision C.01,
 Gaussian 16:  ES64L-G16RevC.01  3-Jul-2019

 -----------------------------------------
 # sp b3lyp/6-311g** Force nosymm scf=(qc)
 -----------------------------------------

 -------------------
 Title Card Required
 -------------------
 Symbolic Z-matrix:
 Charge =  0 Multiplicity = 2

                          Input orientation:
 ---------------------------------------------------------------------
 Center     Atomic      Atomic             Coordinates (Angstroms)
 Number     Number       Type             X           Y           Z
 ---------------------------------------------------------------------
      1          1           0        0.000000    0.000000    0.000000
      2          1           0       -0.850000    0.000000    0.000000
      3          9           0        2.650000    0.000000    0.000000
 ---------------------------------------------------------------------

 SCF Done:  E(UB3LYP) =  -100.927722009     a.u. after    5 cycles

 Alpha  occ. eigenvalues --  -24.76072  -1.21974  -0.55243  -0.46349  -0.46349
 Alpha  occ. eigenvalues --   -0.41876
 Alpha virt. eigenvalues --    0.03689   0.20380   0.43699   0.89927   0.90987
 Alpha virt. eigenvalues --    0.90987   1.07611   1.07611   1.09447   1.48285
 Alpha virt. eigenvalues --    1.74945   1.74945   2.12772   2.38419   2.86834

  Beta  occ. eigenvalues --  -24.72943  -1.12982  -0.43213  -0.43213  -0.41839
  Beta virt. eigenvalues --   -0.26190   0.04052   0.20615   0.44065   0.92469
  Beta virt. eigenvalues --    0.92469   0.98389   1.07715   1.07715   1.13881
  Beta virt. eigenvalues --    1.48399   1.75015   1.75015   2.12882   2.38543

 Mulliken charges and spin densities:
               1          2
     1  H   -0.012806  -0.007257
     2  H    0.014946   0.017150
     3  F   -0.002140   0.990107
 Sum of Mulliken charges =   0.00000   1.00000

 Dipole moment (field-independent basis, Debye):
    X=             -0.0991    Y=              0.0000    Z=             -0.0000  Tot=              0.0991
 Quadrupole moment (field-independent basis, Debye-Ang):
   XX=             -5.5787   YY=             -7.0814   ZZ=             -7.0814
   XY=              0.0000   XZ=             -0.0000   YZ=             -0.0000

  Exact polarizability:      14.065      -0.000       2.022      -0.000      -0.000       2.022
 Approx polarizability:      15.704      -0.000       2.091      -0.000      -0.000       2.091

 ******    1 imaginary frequencies (negative Signs) ******

                      1                      2                      3
                      A                      A                      A
 Frequencies --   -113.0923              1307.1293              1307.1293
 Red. masses --      1.1085                 1.0097                 1.0097
 Frc consts  --      0.0084                 1.0165                 1.0165
 IR Inten    --      2.1186                 0.2126                 0.2126

                      4
                      A
 Frequencies --   3117.5886
 Red. masses --      1.0078
 Frc consts  --      5.7713
 IR Inten    --     23.7948

 - Thermochemistry -
 -------------------
 Temperature   298.150 Kelvin.  Pressure   1.00000 Atm.
 Atom     1 has atomic number  1 and mass   1.00783

 Molecular mass:    21.01405 amu.
 Principal axes and moments of inertia in atomic units:
                           1         2         3
     Eigenvalues --     0.00000  62.83347  62.83347
           X            1.00000  -0.00000   0.00000
           Y            0.00000   1.00000   0.00000
           Z            0.00000   0.00000   1.00000
 This molecule is a prolate symmetric top.
 Rotational symmetry number  1.
 Rotational temperature (Kelvin)      1.37847
 Rotational constant (GHZ):          28.722611
    1 imaginary frequencies ignored.
 Zero-point vibrational energy      34284.1 (Joules/Mol)
                                    8.19409 (Kcal/Mol)
 Vibrational temperatures:   1880.67  1880.67  4485.51
          (Kelvin)

 Zero-point correction=                           0.013058 (Hartree/Particle)
 Thermal correction to Energy=                    0.015440
 Thermal correction to Enthalpy=                  0.016385
 Thermal correction to Gibbs Free Energy=        -0.006978
 Sum of electronic and zero-point Energies=           -100.914664
 Sum of electronic and thermal Energies=              -100.912282
 Sum of electronic and thermal Enthalpies=            -100.911338
 Sum of electronic and thermal Free Energies=         -100.934700

                     E (Thermal)             CV                S
                      KCal/Mol        Cal/Mol-Kelvin    Cal/Mol-Kelvin
 Total                    9.689              5.257             49.170
 Electronic               0.000              0.000              1.377
 Translational            0.889              2.981             35.068
 Rotational               0.592              1.987             12.672
 Vibrational              8.208              0.289              0.053

 Normal termination of Gaussian 16 at Fri Aug 22 18:09:24 2025.
