 Gaussian 16, Revision C.01,
 Gaussian 16:  ES64L-G16RevC.01  3-Jul-2019

 -----------------------------------------
 # sp b3lyp/6-311g** Force nosymm scf=(qc)
 -----------------------------------------

 -------------------
 Title Card Required
 -------------------
 Symbolic Z-matrix:
 Charge =  0 Multiplicity = 2

                          Input orientation:
 ---------------------------------------------------------------------
 Center     Atomic      Atomic             Coordinates (Angstroms)
 Number     Number       Type             X           Y           Z
 ---------------------------------------------------------------------
      1          1           0        0.000000    0.000000    0.000000
      2          1           0       -2.800000    0.000000    0.000000
      3          9           0        1.100000    0.000000    0.000000
 ---------------------------------------------------------------------

 SCF Done:  E(UB3LYP) =  -100.948696780     a.u. after    5 cycles

 Alpha  occ. eigenvalues --  -24.64214  -1.13802  -0.49574  -0.38031  -0.38031
 Alpha  occ. eigenvalues --   -0.34614
 Alpha virt. eigenvalues --   -0.02007   0.24595   0.30647   0.93638   0.93638
 Alpha virt. eigenvalues --    0.99649   1.22243   1.22924   1.22924   1.31918
 Alpha virt. eigenvalues --    1.35296   1.35296   1.80281   2.14164   2.32404

  Beta  occ. eigenvalues --  -24.64199  -1.13764  -0.49517  -0.38018  -0.38018
  Beta virt. eigenvalues --   -0.09212  -0.00331   0.30426   0.37521   0.93639
  Beta virt. eigenvalues --    0.93639   0.99674   1.29617   1.35271   1.35271
  Beta virt. eigenvalues --    1.45495   1.45495   1.47042   1.80521   2.32337

 Mulliken charges and spin densities:
               1          2
     1  H    0.337266   0.001223
     2  H    0.004786   0.993966
     3  F   -0.342052   0.004811
 Sum of Mulliken charges =   0.00000   1.00000

 Dipole moment (field-independent basis, Debye):
    X=             -2.2240    Y=              0.0000    Z=             -0.0000  Tot=              2.2240
 Quadrupole moment (field-independent basis, Debye-Ang):
   XX=             -8.3701   YY=             -7.0468   ZZ=             -7.0468
   XY=              0.0000   XZ=              0.0000   YZ=             -0.0000

  Exact polarizability:       9.546       0.000       2.378      -0.000       0.000       2.378
 Approx polarizability:      11.830      -0.000       2.345      -0.000       0.000       2.345

 ******    1 imaginary frequencies (negative Signs) ******

                      1                      2                      3
                      A                      A                      A
 Frequencies --   -105.8412              1170.8321              1170.8321
 Red. masses --      1.0526                 1.0320                 1.0320
 Frc consts  --      0.0069                 0.8335                 0.8335
 IR Inten    --      0.7682               148.9638               148.9638

                      4
                      A
 Frequencies --   1928.5229
 Red. masses --      1.0590
 Frc consts  --      2.3206
 IR Inten    --    100.2305

 - Thermochemistry -
 -------------------
 Temperature   298.150 Kelvin.  Pressure   1.00000 Atm.
 Atom     1 has atomic number  1 and mass   1.00783

 Molecular mass:    21.01405 amu.
 Principal axes and moments of inertia in atomic units:
                           1         2         3
     Eigenvalues --     0.00000  54.78055  54.78055
           X            1.00000  -0.00000   0.00000
           Y            0.00000   1.00000   0.00000
           Z            0.00000   0.00000   1.00000
 This molecule is a prolate symmetric top.
 Rotational symmetry number  1.
 Rotational temperature (Kelvin)      1.58111
 Rotational constant (GHZ):          32.944928
    1 imaginary frequencies ignored.
 Zero-point vibrational energy      25541.4 (Joules/Mol)
                                    6.10454 (Kcal/Mol)
 Vibrational temperatures:   1684.57  1684.57  2774.71
          (Kelvin)

 Zero-point correction=                           0.009728 (Hartree/Particle)
 Thermal correction to Energy=                    0.012127
 Thermal correction to Enthalpy=                  0.013071
 Thermal correction to Gibbs Free Energy=        -0.010182
 Sum of electronic and zero-point Energies=           -100.938969
 Sum of electronic and thermal Energies=              -100.936570
 Sum of electronic and thermal Enthalpies=            -100.935625
 Sum of electronic and thermal Free Energies=         -100.958878

                     E (Thermal)             CV                S
                      KCal/Mol        Cal/Mol-Kelvin    Cal/Mol-Kelvin
 Total                    7.610              5.433             48.940
 Electronic               0.000              0.000              1.377
 Translational            0.889              2.981             35.068
 Rotational               0.592              1.987             12.399
 Vibrational              6.129              0.465              0.095

 Normal termination of Gaussian 16 at Fri Aug 22 16:05:51 2025.
