 Gaussian 16, Revision C.01,
 Gaussian 16:  ES64L-G16RevC.01  3-Jul-2019

 -----------------------------------------
 # sp b3lyp/6-311g** Force nosymm scf=(qc)
 -----------------------------------------

 -------------------
 Title Card Required
 -------------------
 Symbolic Z-matrix:
 Charge =  0 Multiplicity = 2

                          Input orientation:
 ---------------------------------------------------------------------
 Center     Atomic      Atomic             Coordinates (Angstroms)
 Number     Number       Type             X           Y           Z
 ---------------------------------------------------------------------
      1          1           0        0.000000    0.000000    0.000000
      2          1           0       -3.850000    0.000000    0.000000
      3          9           0        1.700000    0.000000    0.000000
 ---------------------------------------------------------------------

 SCF Done:  E(UB3LYP) =  -100.814450050     a.u. after    9 cycles

 Alpha  occ. eigenvalues --  -24.64260  -1.08877  -0.40980  -0.36023  -0.36023
 Alpha  occ. eigenvalues --   -0.33733
 Alpha virt. eigenvalues --   -0.18809   0.19952   0.26902   0.94849   0.94849
 Alpha virt. eigenvalues --    0.96412   1.07282   1.23740   1.23772   1.23772
 Alpha virt. eigenvalues --    1.27609   1.27609   1.70107   2.12216   2.16835

  Beta  occ. eigenvalues --  -24.64267  -1.08897  -0.40991  -0.36030  -0.36030
  Beta virt. eigenvalues --   -0.18842  -0.06409   0.22503   0.38134   0.94853
  Beta virt. eigenvalues --    0.94853   0.96428   1.07283   1.27668   1.27668
  Beta virt. eigenvalues --    1.46103   1.46455   1.46455   1.70155   2.15375

 Mulliken charges and spin densities:
               1          2
     1  H    0.326928   0.003340
     2  H    0.001025   0.998929
     3  F   -0.327953  -0.002269
 Sum of Mulliken charges =  -0.00000   1.00000

 Dipole moment (field-independent basis, Debye):
    X=             -2.7654    Y=              0.0000    Z=             -0.0000  Tot=              2.7654
 Quadrupole moment (field-independent basis, Debye-Ang):
   XX=            -10.6974   YY=             -7.4180   ZZ=             -7.4180
   XY=              0.0000   XZ=             -0.0000   YZ=             -0.0000

  Exact polarizability:      19.332      -0.000       2.103       0.000      -0.000       2.103
 Approx polarizability:      46.140       0.000       2.015      -0.000       0.000       2.015

 ******    2 imaginary frequencies (negative Signs) ******

                      1                      2                      3
                      A                      A                      A
 Frequencies --  -1181.6363               -59.7254               871.1885
 Red. masses --      1.0579                 1.0536                 1.0301
 Frc consts  --      0.8703                 0.0022                 0.4606
 IR Inten    --     31.1762                 0.1073               103.5188

                      4
                      A
 Frequencies --    871.1885
 Red. masses --      1.0301
 Frc consts  --      0.4606
 IR Inten    --    103.5188

 - Thermochemistry -
 -------------------
 Temperature   298.150 Kelvin.  Pressure   1.00000 Atm.
 Atom     1 has atomic number  1 and mass   1.00783

 Molecular mass:    21.01405 amu.
 Principal axes and moments of inertia in atomic units:
                           1         2         3
     Eigenvalues --     0.00000 112.18694 112.18694
           X            1.00000  -0.00000   0.00000
           Y            0.00000   1.00000   0.00000
           Z            0.00000   0.00000   1.00000
 This molecule is a prolate symmetric top.
 Rotational symmetry number  1.
 Rotational temperature (Kelvin)      0.77205
 Rotational constant (GHZ):          16.086909
    2 imaginary frequencies ignored.
 Zero-point vibrational energy      10421.7 (Joules/Mol)
                                    2.49085 (Kcal/Mol)
 Vibrational temperatures:   1253.45  1253.45
          (Kelvin)

 Zero-point correction=                           0.003969 (Hartree/Particle)
 Thermal correction to Energy=                    0.006450
 Thermal correction to Enthalpy=                  0.007394
 Thermal correction to Gibbs Free Energy=        -0.016639
 Sum of electronic and zero-point Energies=           -100.810481
 Sum of electronic and thermal Energies=              -100.808000
 Sum of electronic and thermal Enthalpies=            -100.807056
 Sum of electronic and thermal Free Energies=         -100.831089

                     E (Thermal)             CV                S
                      KCal/Mol        Cal/Mol-Kelvin    Cal/Mol-Kelvin
 Total                    4.048              6.049             50.582
 Electronic               0.000              0.000              1.377
 Translational            0.889              2.981             35.068
 Rotational               0.592              1.987             13.824
 Vibrational              2.566              1.081              0.313

 Normal termination of Gaussian 16 at Fri Aug 22 16:39:01 2025.
