 Gaussian 16, Revision C.01,
 Gaussian 16:  ES64L-G16RevC.01  3-Jul-2019

 -----------------------------------------
 # sp b3lyp/6-311g** Force nosymm scf=(qc)
 -----------------------------------------

 -------------------
 Title Card Required
 -------------------
 Symbolic Z-matrix:
 Charge =  0 Multiplicity = 2

                          Input orientation:
 ---------------------------------------------------------------------
 Center     Atomic      Atomic             Coordinates (Angstroms)
 Number     Number       Type             X           Y           Z
 ---------------------------------------------------------------------
      1          1           0        0.000000    0.000000    0.000000
      2          1           0       -1.050000    0.000000    0.000000
      3          9           0        2.000000    0.000000    0.000000
 ---------------------------------------------------------------------

 SCF Done:  E(UB3LYP) =  -100.902849913     a.u. after   11 cycles

 Alpha  occ. eigenvalues --  -24.73274  -1.19484  -0.53071  -0.44084  -0.44084
 Alpha  occ. eigenvalues --   -0.40495
 Alpha virt. eigenvalues --   -0.00590   0.21308   0.36657   0.90147   0.91527
 Alpha virt. eigenvalues --    0.91527   1.07885   1.07885   1.09223   1.46398
 Alpha virt. eigenvalues --    1.60659   1.60659   2.19043   2.32588   2.56762

  Beta  occ. eigenvalues --  -24.70384  -1.11283  -0.41210  -0.41210  -0.40405
  Beta virt. eigenvalues --   -0.25171   0.00731   0.22056   0.37193   0.92817
  Beta virt. eigenvalues --    0.92817   0.97539   1.08939   1.08939   1.12156
  Beta virt. eigenvalues --    1.48906   1.61374   1.61374   2.20417   2.33711

 Mulliken charges and spin densities:
               1          2
     1  H    0.028427  -0.066477
     2  H    0.043269   0.160309
     3  F   -0.071695   0.906168
 Sum of Mulliken charges =   0.00000   1.00000

 Dipole moment (field-independent basis, Debye):
    X=             -0.9110    Y=              0.0000    Z=              0.0000  Tot=              0.9110
 Quadrupole moment (field-independent basis, Debye-Ang):
   XX=             -6.5877   YY=             -7.2482   ZZ=             -7.2482
   XY=              0.0000   XZ=              0.0000   YZ=             -0.0000

  Exact polarizability:      33.025      -0.000       2.175      -0.000       0.000       2.175
 Approx polarizability:      43.641      -0.000       2.191      -0.000       0.000       2.191

 ******    1 imaginary frequencies (negative Signs) ******

                      1                      2                      3
                      A                      A                      A
 Frequencies --   -588.9824              1035.5163              1448.9479
 Red. masses --      1.0943                 1.0199                 1.0120
 Frc consts  --      0.2237                 0.6444                 1.2518
 IR Inten    --    286.2358               443.4881                 0.0002

                      4
                      A
 Frequencies --   1448.9479
 Red. masses --      1.0120
 Frc consts  --      1.2518
 IR Inten    --      0.0002

 - Thermochemistry -
 -------------------
 Temperature   298.150 Kelvin.  Pressure   1.00000 Atm.
 Atom     1 has atomic number  1 and mass   1.00783

 Molecular mass:    21.01405 amu.
 Principal axes and moments of inertia in atomic units:
                           1         2         3
     Eigenvalues --     0.00000  43.47390  43.47390
           X            1.00000  -0.00000   0.00000
           Y            0.00000   1.00000   0.00000
           Z            0.00000   0.00000   1.00000
 This molecule is a prolate symmetric top.
 Rotational symmetry number  1.
 Rotational temperature (Kelvin)      1.99232
 Rotational constant (GHZ):          41.513208
    1 imaginary frequencies ignored.
 Zero-point vibrational energy      23527.0 (Joules/Mol)
                                    5.62309 (Kcal/Mol)
 Vibrational temperatures:   1489.88  2084.71  2084.71
          (Kelvin)

 Zero-point correction=                           0.008961 (Hartree/Particle)
 Thermal correction to Energy=                    0.011366
 Thermal correction to Enthalpy=                  0.012310
 Thermal correction to Gibbs Free Energy=        -0.010732
 Sum of electronic and zero-point Energies=           -100.893889
 Sum of electronic and thermal Energies=              -100.891484
 Sum of electronic and thermal Enthalpies=            -100.890540
 Sum of electronic and thermal Free Energies=         -100.913582

                     E (Thermal)             CV                S
                      KCal/Mol        Cal/Mol-Kelvin    Cal/Mol-Kelvin
 Total                    7.132              5.487             48.495
 Electronic               0.000              0.000              1.377
 Translational            0.889              2.981             35.068
 Rotational               0.592              1.987             11.940
 Vibrational              5.651              0.519              0.110

 Normal termination of Gaussian 16 at Fri Aug 22 16:55:36 2025.
