 Gaussian 16, Revision C.01,
 Gaussian 16:  ES64L-G16RevC.01  3-Jul-2019

 -----------------------------------------
 # sp b3lyp/6-311g** Force nosymm scf=(qc)
 -----------------------------------------

 -------------------
 Title Card Required
 -------------------
 Symbolic Z-matrix:
 Charge =  0 Multiplicity = 2

                          Input orientation:
 ---------------------------------------------------------------------
 Center     Atomic      Atomic             Coordinates (Angstroms)
 Number     Number       Type             X           Y           Z
 ---------------------------------------------------------------------
      1          1           0        0.000000    0.000000    0.000000
      2          1           0       -2.550000    0.000000    0.000000
      3          9           0        0.600000    0.000000    0.000000
 ---------------------------------------------------------------------

 SCF Done:  E(UB3LYP) =  -100.688036245     a.u. after    6 cycles

 Alpha  occ. eigenvalues --  -24.62701  -1.34690  -0.61017  -0.42944  -0.42944
 Alpha  occ. eigenvalues --   -0.34241
 Alpha virt. eigenvalues --    0.08698   0.25638   0.58059   0.92161   0.92161
 Alpha virt. eigenvalues --    0.93208   1.18520   1.23306   1.23306   1.45182
 Alpha virt. eigenvalues --    1.50295   1.50295   1.94970   2.14923   3.36594

  Beta  occ. eigenvalues --  -24.62695  -1.34671  -0.61000  -0.42941  -0.42941
  Beta virt. eigenvalues --   -0.07752   0.09998   0.38469   0.57712   0.92153
  Beta virt. eigenvalues --    0.92153   0.93308   1.30765   1.46561   1.46561
  Beta virt. eigenvalues --    1.50290   1.50290   1.57281   1.95025   2.44121

 Mulliken charges and spin densities:
               1          2
     1  H    0.232882   0.003112
     2  H    0.004111   0.994434
     3  F   -0.236993   0.002454
 Sum of Mulliken charges =   0.00000   1.00000

 Dipole moment (field-independent basis, Debye):
    X=             -1.4807    Y=             -0.0000    Z=             -0.0000  Tot=              1.4807
 Quadrupole moment (field-independent basis, Debye-Ang):
   XX=             -6.8217   YY=             -6.5465   ZZ=             -6.5465
   XY=              0.0000   XZ=             -0.0000   YZ=              0.0000

  Exact polarizability:       4.731      -0.000       2.460       0.000      -0.000       2.460
 Approx polarizability:       4.770       0.000       2.443       0.000      -0.000       2.443

 ******    2 imaginary frequencies (negative Signs) ******

                      1                      2                      3
                      A                      A                      A
 Frequencies --  -5843.6987             -5843.6987               110.7902
 Red. masses --      1.0398                 1.0398                 1.0532
 Frc consts  --     20.9203                20.9203                 0.0076
 IR Inten    --    226.1413               226.1413                 0.1539

                      4
                      A
 Frequencies --  13070.6505
 Red. masses --      1.0583
 Frc consts  --    106.5265
 IR Inten    --    107.5727

 - Thermochemistry -
 -------------------
 Temperature   298.150 Kelvin.  Pressure   1.00000 Atm.
 Atom     1 has atomic number  1 and mass   1.00783

 Molecular mass:    21.01405 amu.
 Principal axes and moments of inertia in atomic units:
                           1         2         3
     Eigenvalues --     0.00000  34.57952  34.57952
           X            1.00000  -0.00000   0.00000
           Y            0.00000   1.00000   0.00000
           Z            0.00000   0.00000   1.00000
 This molecule is a prolate symmetric top.
 Rotational symmetry number  1.
 Rotational temperature (Kelvin)      2.50478
 Rotational constant (GHZ):          52.191042
    2 imaginary frequencies ignored.
 Zero-point vibrational energy      78842.5 (Joules/Mol)
                                   18.84382 (Kcal/Mol)
 Warning -- explicit consideration of   1 degrees of freedom as
           vibrations may cause significant error
 Vibrational temperatures:    159.40 18805.75
          (Kelvin)

 Zero-point correction=                           0.030030 (Hartree/Particle)
 Thermal correction to Energy=                    0.033104
 Thermal correction to Enthalpy=                  0.034048
 Thermal correction to Gibbs Free Energy=         0.009729
 Sum of electronic and zero-point Energies=           -100.658007
 Sum of electronic and thermal Energies=              -100.654932
 Sum of electronic and thermal Enthalpies=            -100.653988
 Sum of electronic and thermal Free Energies=         -100.678308

                     E (Thermal)             CV                S
                      KCal/Mol        Cal/Mol-Kelvin    Cal/Mol-Kelvin
 Total                   20.773              6.909             51.185
 Electronic               0.000              0.000              1.377
 Translational            0.889              2.981             35.068
 Rotational               0.592              1.987             11.485
 Vibrational             19.292              1.941              3.255
 Vibration     1          0.607              1.941              3.255

 Normal termination of Gaussian 16 at Fri Aug 22 15:42:04 2025.
