 Gaussian 16, Revision C.01,
 Gaussian 16:  ES64L-G16RevC.01  3-Jul-2019

 -----------------------------------------
 # sp b3lyp/6-311g** Force nosymm scf=(qc)
 -----------------------------------------

 -------------------
 Title Card Required
 -------------------
 Symbolic Z-matrix:
 Charge =  0 Multiplicity = 2

                          Input orientation:
 ---------------------------------------------------------------------
 Center     Atomic      Atomic             Coordinates (Angstroms)
 Number     Number       Type             X           Y           Z
 ---------------------------------------------------------------------
      1          1           0        0.000000    0.000000    0.000000
      2          1           0       -0.500000    0.000000    0.000000
      3          9           0        2.450000    0.000000    0.000000
 ---------------------------------------------------------------------

 SCF Done:  E(UB3LYP) =  -100.861989591     a.u. after   85 cycles

 Alpha  occ. eigenvalues --  -24.76792  -1.22576  -0.55753  -0.49479  -0.46901
 Alpha  occ. eigenvalues --   -0.46408
 Alpha virt. eigenvalues --    0.11394   0.19341   0.56839   0.85686   0.90544
 Alpha virt. eigenvalues --    0.94001   1.12452   1.12481   1.14057   1.61814
 Alpha virt. eigenvalues --    1.85593   1.99991   2.00020   2.39394   3.64515

  Beta  occ. eigenvalues --  -24.73628  -1.13483  -0.49183  -0.43728  -0.43527
  Beta virt. eigenvalues --   -0.26366   0.11509   0.19437   0.56939   0.92038
  Beta virt. eigenvalues --    0.95114   0.95864   1.12471   1.12482   1.17615
  Beta virt. eigenvalues --    1.61822   1.85602   1.99993   2.00019   2.39421

 Mulliken charges and spin densities:
               1          2
     1  H   -0.014158  -0.003018
     2  H   -0.002163   0.000466
     3  F    0.016322   1.002551
 Sum of Mulliken charges =   0.00000   1.00000

 Dipole moment (field-independent basis, Debye):
    X=              0.1399    Y=              0.0000    Z=             -0.0000  Tot=              0.1399
 Quadrupole moment (field-independent basis, Debye-Ang):
   XX=             -5.9468   YY=             -6.4549   ZZ=             -5.8801
   XY=             -0.0000   XZ=              0.0000   YZ=             -0.3220

  Exact polarizability:       5.991      -0.000       1.921       0.000      -0.162       2.210
 Approx polarizability:       6.221      -0.000       2.024       0.000      -0.206       2.391

 ******    2 imaginary frequencies (negative Signs) ******

                      1                      2                      3
                      A                      A                      A
 Frequencies --  -4823.2825             -4814.0082               250.5881
 Red. masses --      1.0087                 1.0087                 1.1085
 Frc consts  --     13.8258                13.7727                 0.0410
 IR Inten    --      0.2225                 0.2209                 0.3050

                      4
                      A
 Frequencies --   9961.1529
 Red. masses --      1.0078
 Frc consts  --     58.9189
 IR Inten    --      2.2342

 - Thermochemistry -
 -------------------
 Temperature   298.150 Kelvin.  Pressure   1.00000 Atm.
 Atom     1 has atomic number  1 and mass   1.00783

 Molecular mass:    21.01405 amu.
 Principal axes and moments of inertia in atomic units:
                           1         2         3
     Eigenvalues --     0.00000  47.89020  47.89020
           X            1.00000  -0.00000   0.00000
           Y            0.00000   1.00000   0.00000
           Z            0.00000   0.00000   1.00000
 This molecule is a prolate symmetric top.
 Rotational symmetry number  1.
 Rotational temperature (Kelvin)      1.80859
 Rotational constant (GHZ):          37.684977
    2 imaginary frequencies ignored.
 Zero-point vibrational energy      61079.8 (Joules/Mol)
                                   14.59842 (Kcal/Mol)
 Warning -- explicit consideration of   1 degrees of freedom as
           vibrations may cause significant error
 Vibrational temperatures:    360.54 14331.88
          (Kelvin)

 Zero-point correction=                           0.023264 (Hartree/Particle)
 Thermal correction to Energy=                    0.026110
 Thermal correction to Enthalpy=                  0.027054
 Thermal correction to Gibbs Free Energy=         0.003153
 Sum of electronic and zero-point Energies=           -100.838726
 Sum of electronic and thermal Energies=              -100.835879
 Sum of electronic and thermal Enthalpies=            -100.834935
 Sum of electronic and thermal Free Energies=         -100.858836

                     E (Thermal)             CV                S
                      KCal/Mol        Cal/Mol-Kelvin    Cal/Mol-Kelvin
 Total                   16.384              6.730             50.304
 Electronic               0.000              0.000              1.377
 Translational            0.889              2.981             35.068
 Rotational               0.592              1.987             12.132
 Vibrational             14.903              1.762              1.726
 Vibration     1          0.663              1.762              1.726

 Normal termination of Gaussian 16 at Fri Aug 22 17:34:18 2025.
