 Gaussian 16, Revision C.01,
 Gaussian 16:  ES64L-G16RevC.01  3-Jul-2019

 -----------------------------------------
 # sp b3lyp/6-311g** Force nosymm scf=(qc)
 -----------------------------------------

 -------------------
 Title Card Required
 -------------------
 Symbolic Z-matrix:
 Charge =  0 Multiplicity = 2

                          Input orientation:
 ---------------------------------------------------------------------
 Center     Atomic      Atomic             Coordinates (Angstroms)
 Number     Number       Type             X           Y           Z
 ---------------------------------------------------------------------
      1          1           0        0.000000    0.000000    0.000000
      2          1           0       -3.600000    0.000000    0.000000
      3          9           0        2.650000    0.000000    0.000000
 ---------------------------------------------------------------------

 SCF Done:  E(UB3LYP) =  -100.764688139     a.u. after   17 cycles

 Alpha  occ. eigenvalues --  -24.72558  -1.18725  -0.51670  -0.43397  -0.43397
 Alpha  occ. eigenvalues --   -0.32741
 Alpha virt. eigenvalues --   -0.09444   0.23633   0.35677   0.89933   0.93167
 Alpha virt. eigenvalues --    0.93167   1.05805   1.24764   1.24764   1.24877
 Alpha virt. eigenvalues --    1.41878   1.41878   1.43951   2.14475   2.38180

  Beta  occ. eigenvalues --  -24.69646  -1.10412  -0.40489  -0.40489  -0.34783
  Beta virt. eigenvalues --   -0.23863  -0.06521   0.23908   0.37979   0.94579
  Beta virt. eigenvalues --    0.94579   0.97449   1.08685   1.22562   1.22562
  Beta virt. eigenvalues --    1.26302   1.45941   1.46199   1.46199   2.13483

 Mulliken charges and spin densities:
               1          2
     1  H    0.070064  -0.919811
     2  H    0.000570   0.998394
     3  F   -0.070634   0.921417
 Sum of Mulliken charges =  -0.00000   1.00000

 Dipole moment (field-independent basis, Debye):
    X=             -0.9663    Y=             -0.0000    Z=             -0.0000  Tot=              0.9663
 Quadrupole moment (field-independent basis, Debye-Ang):
   XX=             -9.0301   YY=             -7.5852   ZZ=             -7.5852
   XY=             -0.0000   XZ=             -0.0000   YZ=             -0.0000

  Exact polarizability:      31.525      -0.000       2.024      -0.000      -0.000       2.024
 Approx polarizability:      37.793      -0.000       1.921      -0.000       0.000       1.921

 ******    2 imaginary frequencies (negative Signs) ******

                      1                      2                      3
                      A                      A                      A
 Frequencies --   -528.5500              -107.8540               199.1950
 Red. masses --      1.0537                 1.0578                 1.0221
 Frc consts  --      0.1734                 0.0072                 0.0239
 IR Inten    --     67.3035                 0.2294                 4.7053

                      4
                      A
 Frequencies --    199.1950
 Red. masses --      1.0221
 Frc consts  --      0.0239
 IR Inten    --      4.7053

 - Thermochemistry -
 -------------------
 Temperature   298.150 Kelvin.  Pressure   1.00000 Atm.
 Atom     1 has atomic number  1 and mass   1.00783

 Molecular mass:    21.01405 amu.
 Principal axes and moments of inertia in atomic units:
                           1         2         3
     Eigenvalues --     0.00000 152.18811 152.18811
           X            1.00000  -0.00000   0.00000
           Y            0.00000   1.00000   0.00000
           Z            0.00000   0.00000   1.00000
 This molecule is a prolate symmetric top.
 Rotational symmetry number  1.
 Rotational temperature (Kelvin)      0.56912
 Rotational constant (GHZ):          11.858621
    2 imaginary frequencies ignored.
 Zero-point vibrational energy       2382.9 (Joules/Mol)
                                    0.56953 (Kcal/Mol)
 Warning -- explicit consideration of   2 degrees of freedom as
           vibrations may cause significant error
 Vibrational temperatures:    286.60   286.60
          (Kelvin)

 Zero-point correction=                           0.000908 (Hartree/Particle)
 Thermal correction to Energy=                    0.004392
 Thermal correction to Enthalpy=                  0.005336
 Thermal correction to Gibbs Free Energy=        -0.020870
 Sum of electronic and zero-point Energies=           -100.763781
 Sum of electronic and thermal Energies=              -100.760296
 Sum of electronic and thermal Enthalpies=            -100.759352
 Sum of electronic and thermal Free Energies=         -100.785558

                     E (Thermal)             CV                S
                      KCal/Mol        Cal/Mol-Kelvin    Cal/Mol-Kelvin
 Total                    2.756              8.650             55.156
 Electronic               0.000              0.000              1.377
 Translational            0.889              2.981             35.068
 Rotational               0.592              1.987             14.430
 Vibrational              1.275              3.682              4.281
 Vibration     1          0.637              1.841              2.141
 Vibration     2          0.637              1.841              2.141

 Normal termination of Gaussian 16 at Fri Aug 22 18:15:56 2025.
