 Gaussian 16, Revision C.01,
 Gaussian 16:  ES64L-G16RevC.01  3-Jul-2019

 -----------------------------------------
 # sp b3lyp/6-311g** Force nosymm scf=(qc)
 -----------------------------------------

 -------------------
 Title Card Required
 -------------------
 Symbolic Z-matrix:
 Charge =  0 Multiplicity = 2

                          Input orientation:
 ---------------------------------------------------------------------
 Center     Atomic      Atomic             Coordinates (Angstroms)
 Number     Number       Type             X           Y           Z
 ---------------------------------------------------------------------
      1          1           0        0.000000    0.000000    0.000000
      2          1           0       -1.100000    0.000000    0.000000
      3          9           0        0.700000    0.000000    0.000000
 ---------------------------------------------------------------------

 SCF Done:  E(UB3LYP) =  -100.847748423     a.u. after    6 cycles

 Alpha  occ. eigenvalues --  -24.64222  -1.30068  -0.62196  -0.42806  -0.42806
 Alpha  occ. eigenvalues --   -0.35063
 Alpha virt. eigenvalues --    0.15727   0.19794   0.64176   0.90428   0.90428
 Alpha virt. eigenvalues --    0.93476   1.09998   1.09998   1.46554   1.62636
 Alpha virt. eigenvalues --    1.62636   1.75972   1.99049   2.35379   3.62312

  Beta  occ. eigenvalues --  -24.63867  -1.29030  -0.60053  -0.42516  -0.42516
  Beta virt. eigenvalues --   -0.13549   0.16628   0.26071   0.69720   0.91512
  Beta virt. eigenvalues --    0.91512   0.94252   1.18418   1.18418   1.47650
  Beta virt. eigenvalues --    1.68468   1.68468   1.86029   2.02447   2.52608

 Mulliken charges and spin densities:
               1          2
     1  H    0.254318   0.002691
     2  H   -0.006883   0.939998
     3  F   -0.247435   0.057311
 Sum of Mulliken charges =   0.00000   1.00000

 Dipole moment (field-independent basis, Debye):
    X=             -1.3984    Y=             -0.0000    Z=             -0.0000  Tot=              1.3984
 Quadrupole moment (field-independent basis, Debye-Ang):
   XX=             -7.3066   YY=             -6.5083   ZZ=             -6.5083
   XY=             -0.0000   XZ=             -0.0000   YZ=              0.0000

  Exact polarizability:       8.014      -0.000       2.562       0.000       0.000       2.562
 Approx polarizability:       7.899       0.000       2.604       0.000       0.000       2.604

 ******    2 imaginary frequencies (negative Signs) ******

                      1                      2                      3
                      A                      A                      A
 Frequencies --  -3539.3793             -3539.3793              1670.0417
 Red. masses --      1.0242                 1.0242                 1.0545
 Frc consts  --      7.5597                 7.5597                 1.7328
 IR Inten    --    127.6619               127.6619                48.2533

                      4
                      A
 Frequencies --   9009.5014
 Red. masses --      1.0570
 Frc consts  --     50.5523
 IR Inten    --     94.5550

 - Thermochemistry -
 -------------------
 Temperature   298.150 Kelvin.  Pressure   1.00000 Atm.
 Atom     1 has atomic number  1 and mass   1.00783

 Molecular mass:    21.01405 amu.
 Principal axes and moments of inertia in atomic units:
                           1         2         3
     Eigenvalues --     0.00000  12.34551  12.34551
           X            1.00000  -0.00000   0.00000
           Y            0.00000   1.00000   0.00000
           Z            0.00000   0.00000   1.00000
 This molecule is a prolate symmetric top.
 Rotational symmetry number  1.
 Rotational temperature (Kelvin)      7.01582
 Rotational constant (GHZ):         146.186055
    2 imaginary frequencies ignored.
 Zero-point vibrational energy      63877.9 (Joules/Mol)
                                   15.26717 (Kcal/Mol)
 Vibrational temperatures:   2402.82 12962.66
          (Kelvin)

 Zero-point correction=                           0.024330 (Hartree/Particle)
 Thermal correction to Energy=                    0.026693
 Thermal correction to Enthalpy=                  0.027637
 Thermal correction to Gibbs Free Energy=         0.005833
 Sum of electronic and zero-point Energies=           -100.823419
 Sum of electronic and thermal Energies=              -100.821056
 Sum of electronic and thermal Enthalpies=            -100.820112
 Sum of electronic and thermal Free Energies=         -100.841915

                     E (Thermal)             CV                S
                      KCal/Mol        Cal/Mol-Kelvin    Cal/Mol-Kelvin
 Total                   16.750              5.009             45.889
 Electronic               0.000              0.000              1.377
 Translational            0.889              2.981             35.068
 Rotational               0.592              1.987              9.438
 Vibrational             15.269              0.041              0.006

 Normal termination of Gaussian 16 at Fri Aug 22 15:45:48 2025.
