 Gaussian 16, Revision C.01,
 Gaussian 16:  ES64L-G16RevC.01  3-Jul-2019

 -----------------------------------------
 # sp b3lyp/6-311g** Force nosymm scf=(qc)
 -----------------------------------------

 -------------------
 Title Card Required
 -------------------
 Symbolic Z-matrix:
 Charge =  0 Multiplicity = 2

                          Input orientation:
 ---------------------------------------------------------------------
 Center     Atomic      Atomic             Coordinates (Angstroms)
 Number     Number       Type             X           Y           Z
 ---------------------------------------------------------------------
      1          1           0        0.000000    0.000000    0.000000
      2          1           0       -2.450000    0.000000    0.000000
      3          9           0        1.900000    0.000000    0.000000
 ---------------------------------------------------------------------

 SCF Done:  E(UB3LYP) =  -100.798630175     a.u. after   14 cycles

 Alpha  occ. eigenvalues --  -24.67255  -1.13543  -0.46200  -0.38910  -0.38910
 Alpha  occ. eigenvalues --   -0.35258
 Alpha virt. eigenvalues --   -0.14193   0.23810   0.30073   0.91126   0.95021
 Alpha virt. eigenvalues --    0.95021   1.06211   1.22402   1.22402   1.25700
 Alpha virt. eigenvalues --    1.34265   1.34265   1.65231   2.13207   2.27597

  Beta  occ. eigenvalues --  -24.65076  -1.07491  -0.38328  -0.36772  -0.36772
  Beta virt. eigenvalues --   -0.20189  -0.10067   0.24680   0.34411   0.92766
  Beta virt. eigenvalues --    0.95385   0.95385   1.08667   1.23132   1.23132
  Beta virt. eigenvalues --    1.40705   1.40705   1.42488   1.59945   2.13190

 Mulliken charges and spin densities:
               1          2
     1  H    0.201137  -0.650926
     2  H    0.021389   0.965861
     3  F   -0.222526   0.685065
 Sum of Mulliken charges =   0.00000   1.00000

 Dipole moment (field-independent basis, Debye):
    X=             -2.3286    Y=              0.0000    Z=              0.0000  Tot=              2.3286
 Quadrupole moment (field-independent basis, Debye-Ang):
   XX=             -9.4116   YY=             -7.4978   ZZ=             -7.4978
   XY=             -0.0000   XZ=             -0.0000   YZ=              0.0000

  Exact polarizability:      36.834      -0.000       2.077      -0.000       0.000       2.077
 Approx polarizability:      45.703      -0.000       1.971      -0.000      -0.000       1.971

 ******    2 imaginary frequencies (negative Signs) ******

                      1                      2                      3
                      A                      A                      A
 Frequencies --  -1385.6786              -411.7824               583.0841
 Red. masses --      1.0450                 1.0667                 1.0213
 Frc consts  --      1.1822                 0.1066                 0.2046
 IR Inten    --     96.1968                15.3124                32.7744

                      4
                      A
 Frequencies --    583.0841
 Red. masses --      1.0213
 Frc consts  --      0.2046
 IR Inten    --     32.7744

 - Thermochemistry -
 -------------------
 Temperature   298.150 Kelvin.  Pressure   1.00000 Atm.
 Atom     1 has atomic number  1 and mass   1.00783

 Molecular mass:    21.01405 amu.
 Principal axes and moments of inertia in atomic units:
                           1         2         3
     Eigenvalues --     0.00000  74.35220  74.35220
           X            1.00000  -0.00000   0.00000
           Y            0.00000   1.00000   0.00000
           Z            0.00000   0.00000   1.00000
 This molecule is a prolate symmetric top.
 Rotational symmetry number  1.
 Rotational temperature (Kelvin)      1.16491
 Rotational constant (GHZ):          24.272868
    2 imaginary frequencies ignored.
 Zero-point vibrational energy       6975.2 (Joules/Mol)
                                    1.66712 (Kcal/Mol)
 Warning -- explicit consideration of   2 degrees of freedom as
           vibrations may cause significant error
 Vibrational temperatures:    838.93   838.93
          (Kelvin)

 Zero-point correction=                           0.002657 (Hartree/Particle)
 Thermal correction to Energy=                    0.005356
 Thermal correction to Enthalpy=                  0.006300
 Thermal correction to Gibbs Free Energy=        -0.017651
 Sum of electronic and zero-point Energies=           -100.795973
 Sum of electronic and thermal Energies=              -100.793274
 Sum of electronic and thermal Enthalpies=            -100.792330
 Sum of electronic and thermal Free Energies=         -100.816282

                     E (Thermal)             CV                S
                      KCal/Mol        Cal/Mol-Kelvin    Cal/Mol-Kelvin
 Total                    3.361              7.104             50.411
 Electronic               0.000              0.000              1.377
 Translational            0.889              2.981             35.068
 Rotational               0.592              1.987             13.006
 Vibrational              1.880              2.136              0.959
 Vibration     1          0.940              1.068              0.480
 Vibration     2          0.940              1.068              0.480

 Normal termination of Gaussian 16 at Fri Aug 22 16:50:25 2025.
