 Gaussian 16, Revision C.01,
 Gaussian 16:  ES64L-G16RevC.01  3-Jul-2019

 -----------------------------------------
 # sp b3lyp/6-311g** Force nosymm scf=(qc)
 -----------------------------------------

 -------------------
 Title Card Required
 -------------------
 Symbolic Z-matrix:
 Charge =  0 Multiplicity = 2

                          Input orientation:
 ---------------------------------------------------------------------
 Center     Atomic      Atomic             Coordinates (Angstroms)
 Number     Number       Type             X           Y           Z
 ---------------------------------------------------------------------
      1          1           0        0.000000    0.000000    0.000000
      2          1           0       -3.500000    0.000000    0.000000
      3          9           0        2.800000    0.000000    0.000000
 ---------------------------------------------------------------------

 SCF Done:  E(UB3LYP) =  -100.762816421     a.u. after   21 cycles

 Alpha  occ. eigenvalues --  -24.73279  -1.19397  -0.52396  -0.44000  -0.44000
 Alpha  occ. eigenvalues --   -0.32666
 Alpha virt. eigenvalues --   -0.08891   0.23850   0.35826   0.89880   0.92753
 Alpha virt. eigenvalues --    0.92753   1.05065   1.24841   1.24841   1.25008
 Alpha virt. eigenvalues --    1.42952   1.42952   1.43731   2.14698   2.38836

  Beta  occ. eigenvalues --  -24.70310  -1.10906  -0.41032  -0.41032  -0.34287
  Beta virt. eigenvalues --   -0.24304  -0.06634   0.23997   0.37867   0.94193
  Beta virt. eigenvalues --    0.94193   0.98113   1.08463   1.23031   1.23031
  Beta virt. eigenvalues --    1.24629   1.45776   1.46042   1.46042   2.14362

 Mulliken charges and spin densities:
               1          2
     1  H    0.053681  -0.938036
     2  H    0.000603   0.997944
     3  F   -0.054284   0.940092
 Sum of Mulliken charges =  -0.00000   1.00000

 Dipole moment (field-independent basis, Debye):
    X=             -0.7892    Y=              0.0000    Z=             -0.0000  Tot=              0.7892
 Quadrupole moment (field-independent basis, Debye-Ang):
   XX=             -8.7139   YY=             -7.5984   ZZ=             -7.5984
   XY=              0.0000   XZ=             -0.0000   YZ=              0.0000

  Exact polarizability:      32.335       0.000       2.024      -0.000       0.000       2.024
 Approx polarizability:      36.185       0.000       1.923      -0.000      -0.000       1.923

 ******    2 imaginary frequencies (negative Signs) ******

                      1                      2                      3
                      A                      A                      A
 Frequencies --   -459.6093              -119.7903               168.0164
 Red. masses --      1.0505                 1.0611                 1.0209
 Frc consts  --      0.1307                 0.0090                 0.0170
 IR Inten    --     54.6050                 0.4612                 2.7287

                      4
                      A
 Frequencies --    168.0164
 Red. masses --      1.0209
 Frc consts  --      0.0170
 IR Inten    --      2.7287

 - Thermochemistry -
 -------------------
 Temperature   298.150 Kelvin.  Pressure   1.00000 Atm.
 Atom     1 has atomic number  1 and mass   1.00783

 Molecular mass:    21.01405 amu.
 Principal axes and moments of inertia in atomic units:
                           1         2         3
     Eigenvalues --     0.00000 156.76730 156.76730
           X            1.00000  -0.00000   0.00000
           Y            0.00000   1.00000   0.00000
           Z            0.00000   0.00000   1.00000
 This molecule is a prolate symmetric top.
 Rotational symmetry number  1.
 Rotational temperature (Kelvin)      0.55250
 Rotational constant (GHZ):          11.512230
    2 imaginary frequencies ignored.
 Zero-point vibrational energy       2009.9 (Joules/Mol)
                                    0.48038 (Kcal/Mol)
 Warning -- explicit consideration of   2 degrees of freedom as
           vibrations may cause significant error
 Vibrational temperatures:    241.74   241.74
          (Kelvin)

 Zero-point correction=                           0.000766 (Hartree/Particle)
 Thermal correction to Energy=                    0.004351
 Thermal correction to Enthalpy=                  0.005295
 Thermal correction to Gibbs Free Energy=        -0.021240
 Sum of electronic and zero-point Energies=           -100.762051
 Sum of electronic and thermal Energies=              -100.758465
 Sum of electronic and thermal Enthalpies=            -100.757521
 Sum of electronic and thermal Free Energies=         -100.784057

                     E (Thermal)             CV                S
                      KCal/Mol        Cal/Mol-Kelvin    Cal/Mol-Kelvin
 Total                    2.730              8.732             55.849
 Electronic               0.000              0.000              1.377
 Translational            0.889              2.981             35.068
 Rotational               0.592              1.987             14.489
 Vibrational              1.249              3.764              4.915
 Vibration     1          0.625              1.882              2.458
 Vibration     2          0.625              1.882              2.458

 Normal termination of Gaussian 16 at Fri Aug 22 18:44:37 2025.
