 Gaussian 16, Revision C.01,
 Gaussian 16:  ES64L-G16RevC.01  3-Jul-2019

 -----------------------------------------
 # sp b3lyp/6-311g** Force nosymm scf=(qc)
 -----------------------------------------

 -------------------
 Title Card Required
 -------------------
 Symbolic Z-matrix:
 Charge =  0 Multiplicity = 2

                          Input orientation:
 ---------------------------------------------------------------------
 Center     Atomic      Atomic             Coordinates (Angstroms)
 Number     Number       Type             X           Y           Z
 ---------------------------------------------------------------------
      1          1           0        0.000000    0.000000    0.000000
      2          1           0       -1.000000    0.000000    0.000000
      3          9           0        0.600000    0.000000    0.000000
 ---------------------------------------------------------------------

 SCF Done:  E(UB3LYP) =  -100.639921482     a.u. after    7 cycles

 Alpha  occ. eigenvalues --  -24.64832  -1.38264  -0.65605  -0.45044  -0.45044
 Alpha  occ. eigenvalues --   -0.33616
 Alpha virt. eigenvalues --    0.16398   0.20083   0.77174   0.87885   0.87885
 Alpha virt. eigenvalues --    0.90490   1.10206   1.10206   1.49232   1.73863
 Alpha virt. eigenvalues --    1.73863   1.74448   2.16696   2.41902   3.75844

  Beta  occ. eigenvalues --  -24.64462  -1.37054  -0.63711  -0.44753  -0.44753
  Beta virt. eigenvalues --   -0.11977   0.17136   0.26965   0.82254   0.89128
  Beta virt. eigenvalues --    0.89128   0.91853   1.18430   1.18430   1.50013
  Beta virt. eigenvalues --    1.79604   1.79604   1.80514   2.27261   2.56531

 Mulliken charges and spin densities:
               1          2
     1  H    0.248956  -0.005859
     2  H   -0.034224   0.966422
     3  F   -0.214732   0.039437
 Sum of Mulliken charges =   0.00000   1.00000

 Dipole moment (field-independent basis, Debye):
    X=             -1.0285    Y=             -0.0000    Z=              0.0000  Tot=              1.0285
 Quadrupole moment (field-independent basis, Debye-Ang):
   XX=             -7.2490   YY=             -6.4159   ZZ=             -6.4159
   XY=             -0.0000   XZ=              0.0000   YZ=              0.0000

  Exact polarizability:       6.891      -0.000       2.518      -0.000      -0.000       2.518
 Approx polarizability:       6.633       0.000       2.578      -0.000      -0.000       2.578

 ******    2 imaginary frequencies (negative Signs) ******

                      1                      2                      3
                      A                      A                      A
 Frequencies --  -5743.8012             -5743.8012              2189.3263
 Red. masses --      1.0251                 1.0251                 1.0547
 Frc consts  --     19.9267                19.9267                 2.9785
 IR Inten    --    149.8975               149.8975                94.1487

                      4
                      A
 Frequencies --  13072.6085
 Red. masses --      1.0569
 Frc consts  --    106.4129
 IR Inten    --     52.9527

 - Thermochemistry -
 -------------------
 Temperature   298.150 Kelvin.  Pressure   1.00000 Atm.
 Atom     1 has atomic number  1 and mass   1.00783

 Molecular mass:    21.01405 amu.
 Principal axes and moments of inertia in atomic units:
                           1         2         3
     Eigenvalues --     0.00000   9.67369   9.67369
           X            1.00000  -0.00000   0.00000
           Y            0.00000   1.00000   0.00000
           Z            0.00000   0.00000   1.00000
 This molecule is a prolate symmetric top.
 Rotational symmetry number  1.
 Rotational temperature (Kelvin)      8.95356
 Rotational constant (GHZ):         186.561868
    2 imaginary frequencies ignored.
 Zero-point vibrational energy      91286.6 (Joules/Mol)
                                   21.81803 (Kcal/Mol)
 Vibrational temperatures:   3149.95 18808.57
          (Kelvin)

 Zero-point correction=                           0.034769 (Hartree/Particle)
 Thermal correction to Energy=                    0.037130
 Thermal correction to Enthalpy=                  0.038074
 Thermal correction to Gibbs Free Energy=         0.016503
 Sum of electronic and zero-point Energies=           -100.605152
 Sum of electronic and thermal Energies=              -100.602792
 Sum of electronic and thermal Enthalpies=            -100.601847
 Sum of electronic and thermal Free Energies=         -100.623418

                     E (Thermal)             CV                S
                      KCal/Mol        Cal/Mol-Kelvin    Cal/Mol-Kelvin
 Total                   23.299              4.974             45.399
 Electronic               0.000              0.000              1.377
 Translational            0.889              2.981             35.068
 Rotational               0.592              1.987              8.953
 Vibrational             21.818              0.006              0.001

 Normal termination of Gaussian 16 at Fri Aug 22 15:41:00 2025.
