 Gaussian 16, Revision C.01,
 Gaussian 16:  ES64L-G16RevC.01  3-Jul-2019

 -----------------------------------------
 # sp b3lyp/6-311g** Force nosymm scf=(qc)
 -----------------------------------------

 -------------------
 Title Card Required
 -------------------
 Symbolic Z-matrix:
 Charge =  0 Multiplicity = 2

                          Input orientation:
 ---------------------------------------------------------------------
 Center     Atomic      Atomic             Coordinates (Angstroms)
 Number     Number       Type             X           Y           Z
 ---------------------------------------------------------------------
      1          1           0        0.000000    0.000000    0.000000
      2          1           0       -3.850000    0.000000    0.000000
      3          9           0        1.750000    0.000000    0.000000
 ---------------------------------------------------------------------

 SCF Done:  E(UB3LYP) =  -100.805530832     a.u. after   10 cycles

 Alpha  occ. eigenvalues --  -24.64230  -1.08746  -0.40506  -0.35948  -0.35948
 Alpha  occ. eigenvalues --   -0.33742
 Alpha virt. eigenvalues --   -0.19684   0.19905   0.26883   0.94487   0.95252
 Alpha virt. eigenvalues --    0.95252   1.07542   1.23730   1.23762   1.23762
 Alpha virt. eigenvalues --    1.26775   1.26775   1.68034   2.12080   2.16636

  Beta  occ. eigenvalues --  -24.64236  -1.08761  -0.40513  -0.35953  -0.35953
  Beta virt. eigenvalues --   -0.19714  -0.06457   0.22445   0.38090   0.94505
  Beta virt. eigenvalues --    0.95255   0.95255   1.07544   1.26824   1.26824
  Beta virt. eigenvalues --    1.46041   1.46394   1.46394   1.68075   2.15043

 Mulliken charges and spin densities:
               1          2
     1  H    0.320655   0.002799
     2  H    0.001102   0.998849
     3  F   -0.321757  -0.001649
 Sum of Mulliken charges =   0.00000   1.00000

 Dipole moment (field-independent basis, Debye):
    X=             -2.8045    Y=             -0.0000    Z=              0.0000  Tot=              2.8045
 Quadrupole moment (field-independent basis, Debye-Ang):
   XX=            -10.8897   YY=             -7.4389   ZZ=             -7.4389
   XY=             -0.0000   XZ=              0.0000   YZ=             -0.0000

  Exact polarizability:      20.574      -0.000       2.084       0.000      -0.000       2.084
 Approx polarizability:      51.880      -0.000       1.994       0.000       0.000       1.994

 ******    2 imaginary frequencies (negative Signs) ******

                      1                      2                      3
                      A                      A                      A
 Frequencies --  -1171.3859               -62.0955               836.0084
 Red. masses --      1.0579                 1.0537                 1.0296
 Frc consts  --      0.8553                 0.0024                 0.4240
 IR Inten    --     30.3116                 0.1283                99.9506

                      4
                      A
 Frequencies --    836.0084
 Red. masses --      1.0296
 Frc consts  --      0.4240
 IR Inten    --     99.9506

 - Thermochemistry -
 -------------------
 Temperature   298.150 Kelvin.  Pressure   1.00000 Atm.
 Atom     1 has atomic number  1 and mass   1.00783

 Molecular mass:    21.01405 amu.
 Principal axes and moments of inertia in atomic units:
                           1         2         3
     Eigenvalues --     0.00000 114.56221 114.56221
           X            1.00000  -0.00000   0.00000
           Y            0.00000   1.00000   0.00000
           Z            0.00000   0.00000   1.00000
 This molecule is a prolate symmetric top.
 Rotational symmetry number  1.
 Rotational temperature (Kelvin)      0.75604
 Rotational constant (GHZ):          15.753372
    2 imaginary frequencies ignored.
 Zero-point vibrational energy      10000.9 (Joules/Mol)
                                    2.39027 (Kcal/Mol)
 Vibrational temperatures:   1202.83  1202.83
          (Kelvin)

 Zero-point correction=                           0.003809 (Hartree/Particle)
 Thermal correction to Energy=                    0.006307
 Thermal correction to Enthalpy=                  0.007251
 Thermal correction to Gibbs Free Energy=        -0.016824
 Sum of electronic and zero-point Energies=           -100.801722
 Sum of electronic and thermal Energies=              -100.799224
 Sum of electronic and thermal Enthalpies=            -100.798280
 Sum of electronic and thermal Free Energies=         -100.822355

                     E (Thermal)             CV                S
                      KCal/Mol        Cal/Mol-Kelvin    Cal/Mol-Kelvin
 Total                    3.958              6.154             50.671
 Electronic               0.000              0.000              1.377
 Translational            0.889              2.981             35.068
 Rotational               0.592              1.987             13.865
 Vibrational              2.476              1.186              0.360

 Normal termination of Gaussian 16 at Fri Aug 22 16:42:03 2025.
