 Gaussian 16, Revision C.01,
 Gaussian 16:  ES64L-G16RevC.01  3-Jul-2019

 -----------------------------------------
 # sp b3lyp/6-311g** Force nosymm scf=(qc)
 -----------------------------------------

 -------------------
 Title Card Required
 -------------------
 Symbolic Z-matrix:
 Charge =  0 Multiplicity = 2

                          Input orientation:
 ---------------------------------------------------------------------
 Center     Atomic      Atomic             Coordinates (Angstroms)
 Number     Number       Type             X           Y           Z
 ---------------------------------------------------------------------
      1          1           0        0.000000    0.000000    0.000000
      2          1           0       -3.050000    0.000000    0.000000
      3          9           0        1.900000    0.000000    0.000000
 ---------------------------------------------------------------------

 SCF Done:  E(UB3LYP) =  -100.795492507     a.u. after   13 cycles

 Alpha  occ. eigenvalues --  -24.67398  -1.13677  -0.46308  -0.39044  -0.39044
 Alpha  occ. eigenvalues --   -0.34050
 Alpha virt. eigenvalues --   -0.14339   0.22559   0.30838   0.90622   0.94898
 Alpha virt. eigenvalues --    0.94898   1.05899   1.23490   1.23490   1.24099
 Alpha virt. eigenvalues --    1.34457   1.34457   1.65319   2.14120   2.27992

  Beta  occ. eigenvalues --  -24.65220  -1.07630  -0.38557  -0.36907  -0.36907
  Beta virt. eigenvalues --   -0.20067  -0.08084   0.23018   0.36905   0.91709
  Beta virt. eigenvalues --    0.95233   0.95233   1.08240   1.22733   1.22733
  Beta virt. eigenvalues --    1.44015   1.44445   1.44445   1.59681   2.12716

 Mulliken charges and spin densities:
               1          2
     1  H    0.217870  -0.677161
     2  H    0.005492   0.992388
     3  F   -0.223363   0.684773
 Sum of Mulliken charges =   0.00000   1.00000

 Dipole moment (field-independent basis, Debye):
    X=             -2.1638    Y=              0.0000    Z=             -0.0000  Tot=              2.1638
 Quadrupole moment (field-independent basis, Debye-Ang):
   XX=             -9.9197   YY=             -7.4746   ZZ=             -7.4746
   XY=             -0.0000   XZ=              0.0000   YZ=             -0.0000

  Exact polarizability:      27.801      -0.000       2.077       0.000      -0.000       2.077
 Approx polarizability:      38.881       0.000       1.965      -0.000       0.000       1.965

 ******    2 imaginary frequencies (negative Signs) ******

                      1                      2                      3
                      A                      A                      A
 Frequencies --  -1317.1851              -203.9451               558.3394
 Red. masses --      1.0555                 1.0561                 1.0246
 Frc consts  --      1.0789                 0.0259                 0.1882
 IR Inten    --    121.5739                 1.9326                42.7256

                      4
                      A
 Frequencies --    558.3394
 Red. masses --      1.0246
 Frc consts  --      0.1882
 IR Inten    --     42.7256

 - Thermochemistry -
 -------------------
 Temperature   298.150 Kelvin.  Pressure   1.00000 Atm.
 Atom     1 has atomic number  1 and mass   1.00783

 Molecular mass:    21.01405 amu.
 Principal axes and moments of inertia in atomic units:
                           1         2         3
     Eigenvalues --     0.00000  93.07798  93.07798
           X            1.00000  -0.00000   0.00000
           Y            0.00000   1.00000   0.00000
           Z            0.00000   0.00000   1.00000
 This molecule is a prolate symmetric top.
 Rotational symmetry number  1.
 Rotational temperature (Kelvin)      0.93055
 Rotational constant (GHZ):          19.389561
    2 imaginary frequencies ignored.
 Zero-point vibrational energy       6679.2 (Joules/Mol)
                                    1.59637 (Kcal/Mol)
 Warning -- explicit consideration of   2 degrees of freedom as
           vibrations may cause significant error
 Vibrational temperatures:    803.33   803.33
          (Kelvin)

 Zero-point correction=                           0.002544 (Hartree/Particle)
 Thermal correction to Energy=                    0.005273
 Thermal correction to Enthalpy=                  0.006217
 Thermal correction to Gibbs Free Energy=        -0.017992
 Sum of electronic and zero-point Energies=           -100.792949
 Sum of electronic and thermal Energies=              -100.790219
 Sum of electronic and thermal Enthalpies=            -100.789275
 Sum of electronic and thermal Free Energies=         -100.813484

                     E (Thermal)             CV                S
                      KCal/Mol        Cal/Mol-Kelvin    Cal/Mol-Kelvin
 Total                    3.309              7.211             50.952
 Electronic               0.000              0.000              1.377
 Translational            0.889              2.981             35.068
 Rotational               0.592              1.987             13.453
 Vibrational              1.828              2.243              1.054
 Vibration     1          0.914              1.121              0.527
 Vibration     2          0.914              1.121              0.527

 Normal termination of Gaussian 16 at Fri Aug 22 16:50:55 2025.
