 Gaussian 16, Revision C.01,
 Gaussian 16:  ES64L-G16RevC.01  3-Jul-2019

 -----------------------------------------
 # sp b3lyp/6-311g** Force nosymm scf=(qc)
 -----------------------------------------

 -------------------
 Title Card Required
 -------------------
 Symbolic Z-matrix:
 Charge =  0 Multiplicity = 2

                          Input orientation:
 ---------------------------------------------------------------------
 Center     Atomic      Atomic             Coordinates (Angstroms)
 Number     Number       Type             X           Y           Z
 ---------------------------------------------------------------------
      1          1           0        0.000000    0.000000    0.000000
      2          1           0       -3.850000    0.000000    0.000000
      3          9           0        2.300000    0.000000    0.000000
 ---------------------------------------------------------------------

 SCF Done:  E(UB3LYP) =  -100.772424623     a.u. after   16 cycles

 Alpha  occ. eigenvalues --  -24.67726  -1.09049  -0.38929  -0.38929  -0.36263
 Alpha  occ. eigenvalues --   -0.32887
 Alpha virt. eigenvalues --   -0.22449   0.20891   0.27525   0.92751   0.95460
 Alpha virt. eigenvalues --    0.95460   1.08224   1.21600   1.21600   1.24584
 Alpha virt. eigenvalues --    1.24586   1.24586   1.37189   2.10178   2.15994

  Beta  occ. eigenvalues --  -24.70435  -1.16719  -0.49512  -0.41621  -0.41621
  Beta virt. eigenvalues --   -0.11782  -0.04428   0.31688   0.40191   0.88720
  Beta virt. eigenvalues --    0.94244   0.94244   1.06125   1.38604   1.38604
  Beta virt. eigenvalues --    1.48094   1.48177   1.48177   1.48751   2.33452

 Mulliken charges and spin densities:
               1          2
     1  H    0.124359   0.854645
     2  H    0.000405   0.999603
     3  F   -0.124764  -0.854248
 Sum of Mulliken charges =  -0.00000   1.00000

 Dipole moment (field-independent basis, Debye):
    X=             -1.4532    Y=             -0.0000    Z=             -0.0000  Tot=              1.4532
 Quadrupole moment (field-independent basis, Debye-Ang):
   XX=             -9.7287   YY=             -7.5344   ZZ=             -7.5344
   XY=             -0.0000   XZ=             -0.0000   YZ=              0.0000

  Exact polarizability:      28.456      -0.000       2.035      -0.000      -0.000       2.035
 Approx polarizability:      38.862       0.000       1.925      -0.000      -0.000       1.925

 ******    1 imaginary frequencies (negative Signs) ******

                      1                      2                      3
                      A                      A                      A
 Frequencies --   -757.2097                51.8777               312.6168
 Red. masses --      1.0590                 1.0526                 1.0252
 Frc consts  --      0.3577                 0.0017                 0.0590
 IR Inten    --     95.2376                 0.0258                14.9986

                      4
                      A
 Frequencies --    312.6168
 Red. masses --      1.0252
 Frc consts  --      0.0590
 IR Inten    --     14.9986

 - Thermochemistry -
 -------------------
 Temperature   298.150 Kelvin.  Pressure   1.00000 Atm.
 Atom     1 has atomic number  1 and mass   1.00783

 Molecular mass:    21.01405 amu.
 Principal axes and moments of inertia in atomic units:
                           1         2         3
     Eigenvalues --     0.00000 142.83769 142.83769
           X            1.00000  -0.00000   0.00000
           Y            0.00000   1.00000   0.00000
           Z            0.00000   0.00000   1.00000
 This molecule is a prolate symmetric top.
 Rotational symmetry number  1.
 Rotational temperature (Kelvin)      0.60638
 Rotational constant (GHZ):          12.634909
    1 imaginary frequencies ignored.
 Zero-point vibrational energy       4050.0 (Joules/Mol)
                                    0.96798 (Kcal/Mol)
 Warning -- explicit consideration of   3 degrees of freedom as
           vibrations may cause significant error
 Vibrational temperatures:     74.64   449.79   449.79
          (Kelvin)

 Zero-point correction=                           0.001543 (Hartree/Particle)
 Thermal correction to Energy=                    0.005543
 Thermal correction to Enthalpy=                  0.006487
 Thermal correction to Gibbs Free Energy=        -0.021161
 Sum of electronic and zero-point Energies=           -100.770882
 Sum of electronic and thermal Energies=              -100.766881
 Sum of electronic and thermal Enthalpies=            -100.765937
 Sum of electronic and thermal Free Energies=         -100.793585

                     E (Thermal)             CV                S
                      KCal/Mol        Cal/Mol-Kelvin    Cal/Mol-Kelvin
 Total                    3.478             10.244             58.190
 Electronic               0.000              0.000              1.377
 Translational            0.889              2.981             35.068
 Rotational               0.592              1.987             14.304
 Vibrational              1.997              5.276              7.441
 Vibration     1          0.596              1.977              4.744
 Vibration     2          0.701              1.650              1.348
 Vibration     3          0.701              1.650              1.348

 Normal termination of Gaussian 16 at Fri Aug 22 17:23:32 2025.
