 Gaussian 16, Revision C.01,
 Gaussian 16:  ES64L-G16RevC.01  3-Jul-2019

 -----------------------------------------
 # sp b3lyp/6-311g** Force nosymm scf=(qc)
 -----------------------------------------

 -------------------
 Title Card Required
 -------------------
 Symbolic Z-matrix:
 Charge =  0 Multiplicity = 2

                          Input orientation:
 ---------------------------------------------------------------------
 Center     Atomic      Atomic             Coordinates (Angstroms)
 Number     Number       Type             X           Y           Z
 ---------------------------------------------------------------------
      1          1           0        0.000000    0.000000    0.000000
      2          1           0       -1.400000    0.000000    0.000000
      3          9           0        2.550000    0.000000    0.000000
 ---------------------------------------------------------------------

 SCF Done:  E(UB3LYP) =  -100.838416859     a.u. after   20 cycles

 Alpha  occ. eigenvalues --  -24.74329  -1.20383  -0.53526  -0.44905  -0.44905
 Alpha  occ. eigenvalues --   -0.36033
 Alpha virt. eigenvalues --   -0.09038   0.23513   0.31721   0.89378   0.92008
 Alpha virt. eigenvalues --    0.92008   1.05692   1.13598   1.16233   1.16233
 Alpha virt. eigenvalues --    1.43569   1.43569   1.88551   2.23907   2.49850

  Beta  occ. eigenvalues --  -24.71318  -1.11767  -0.41895  -0.41895  -0.35660
  Beta virt. eigenvalues --   -0.25427  -0.08370   0.24079   0.32141   0.93442
  Beta virt. eigenvalues --    0.93442   0.97043   1.08038   1.16570   1.16701
  Beta virt. eigenvalues --    1.16701   1.43964   1.43964   1.89101   2.24628

 Mulliken charges and spin densities:
               1          2
     1  H    0.006928  -0.141667
     2  H    0.031536   0.189772
     3  F   -0.038464   0.951894
 Sum of Mulliken charges =  -0.00000   1.00000

 Dipole moment (field-independent basis, Debye):
    X=             -0.7051    Y=             -0.0000    Z=             -0.0000  Tot=              0.7051
 Quadrupole moment (field-independent basis, Debye-Ang):
   XX=             -6.4325   YY=             -7.6316   ZZ=             -7.6316
   XY=             -0.0000   XZ=             -0.0000   YZ=             -0.0000

  Exact polarizability:      51.423      -0.000       2.082      -0.000      -0.000       2.082
 Approx polarizability:      70.132      -0.000       2.065      -0.000       0.000       2.065

 ******    2 imaginary frequencies (negative Signs) ******

                      1                      2                      3
                      A                      A                      A
 Frequencies --  -1615.7845              -246.8403              1266.6482
 Red. masses --      1.0088                 1.1073                 1.0123
 Frc consts  --      1.5518                 0.0398                 0.9569
 IR Inten    --    611.9605                18.6920                 0.0145

                      4
                      A
 Frequencies --   1266.6482
 Red. masses --      1.0123
 Frc consts  --      0.9569
 IR Inten    --      0.0145

 - Thermochemistry -
 -------------------
 Temperature   298.150 Kelvin.  Pressure   1.00000 Atm.
 Atom     1 has atomic number  1 and mass   1.00783

 Molecular mass:    21.01405 amu.
 Principal axes and moments of inertia in atomic units:
                           1         2         3
     Eigenvalues --     0.00000  72.26344  72.26344
           X            1.00000  -0.00000   0.00000
           Y            0.00000   1.00000   0.00000
           Z            0.00000   0.00000   1.00000
 This molecule is a prolate symmetric top.
 Rotational symmetry number  1.
 Rotational temperature (Kelvin)      1.19859
 Rotational constant (GHZ):          24.974471
    2 imaginary frequencies ignored.
 Zero-point vibrational energy      15152.5 (Joules/Mol)
                                    3.62153 (Kcal/Mol)
 Vibrational temperatures:   1822.42  1822.42
          (Kelvin)

 Zero-point correction=                           0.005771 (Hartree/Particle)
 Thermal correction to Energy=                    0.008157
 Thermal correction to Enthalpy=                  0.009102
 Thermal correction to Gibbs Free Energy=        -0.014397
 Sum of electronic and zero-point Energies=           -100.832646
 Sum of electronic and thermal Energies=              -100.830259
 Sum of electronic and thermal Enthalpies=            -100.829315
 Sum of electronic and thermal Free Energies=         -100.852814

                     E (Thermal)             CV                S
                      KCal/Mol        Cal/Mol-Kelvin    Cal/Mol-Kelvin
 Total                    5.119              5.298             49.458
 Electronic               0.000              0.000              1.377
 Translational            0.889              2.981             35.068
 Rotational               0.592              1.987             12.950
 Vibrational              3.638              0.330              0.063

 Normal termination of Gaussian 16 at Fri Aug 22 17:53:09 2025.
