 Gaussian 16, Revision C.01,
 Gaussian 16:  ES64L-G16RevC.01  3-Jul-2019

 -----------------------------------------
 # sp b3lyp/6-311g** Force nosymm scf=(qc)
 -----------------------------------------

 -------------------
 Title Card Required
 -------------------
 Symbolic Z-matrix:
 Charge =  0 Multiplicity = 2

                          Input orientation:
 ---------------------------------------------------------------------
 Center     Atomic      Atomic             Coordinates (Angstroms)
 Number     Number       Type             X           Y           Z
 ---------------------------------------------------------------------
      1          1           0        0.000000    0.000000    0.000000
      2          1           0       -1.300000    0.000000    0.000000
      3          9           0        0.700000    0.000000    0.000000
 ---------------------------------------------------------------------

 SCF Done:  E(UB3LYP) =  -100.862173761     a.u. after    6 cycles

 Alpha  occ. eigenvalues --  -24.63523  -1.28987  -0.60428  -0.42138  -0.42138
 Alpha  occ. eigenvalues --   -0.35840
 Alpha virt. eigenvalues --    0.14630   0.20684   0.57389   0.92259   0.92259
 Alpha virt. eigenvalues --    0.94238   1.13355   1.13355   1.42799   1.54048
 Alpha virt. eigenvalues --    1.54048   1.64645   1.98380   2.25472   3.35282

  Beta  occ. eigenvalues --  -24.63310  -1.28370  -0.59128  -0.41968  -0.41968
  Beta virt. eigenvalues --   -0.13177   0.15711   0.27786   0.62493   0.92732
  Beta virt. eigenvalues --    0.92732   0.94703   1.24109   1.24109   1.45112
  Beta virt. eigenvalues --    1.59525   1.59525   1.75560   1.98721   2.46010

 Mulliken charges and spin densities:
               1          2
     1  H    0.249971   0.011151
     2  H    0.008299   0.955153
     3  F   -0.258270   0.033696
 Sum of Mulliken charges =   0.00000   1.00000

 Dipole moment (field-independent basis, Debye):
    X=             -1.5578    Y=             -0.0000    Z=             -0.0000  Tot=              1.5578
 Quadrupole moment (field-independent basis, Debye-Ang):
   XX=             -7.1784   YY=             -6.5418   ZZ=             -6.5418
   XY=             -0.0000   XZ=             -0.0000   YZ=              0.0000

  Exact polarizability:       7.652       0.000       2.555      -0.000      -0.000       2.555
 Approx polarizability:       7.473       0.000       2.580       0.000      -0.000       2.580

 ******    2 imaginary frequencies (negative Signs) ******

                      1                      2                      3
                      A                      A                      A
 Frequencies --  -3482.8583             -3482.8583              1169.2828
 Red. masses --      1.0269                 1.0269                 1.0538
 Frc consts  --      7.3389                 7.3389                 0.8489
 IR Inten    --    139.1871               139.1871                15.6792

                      4
                      A
 Frequencies --   9033.9829
 Red. masses --      1.0578
 Frc consts  --     50.8629
 IR Inten    --    127.4709

 - Thermochemistry -
 -------------------
 Temperature   298.150 Kelvin.  Pressure   1.00000 Atm.
 Atom     1 has atomic number  1 and mass   1.00783

 Molecular mass:    21.01405 amu.
 Principal axes and moments of inertia in atomic units:
                           1         2         3
     Eigenvalues --     0.00000  14.90124  14.90124
           X            1.00000  -0.00000   0.00000
           Y            0.00000   1.00000   0.00000
           Z            0.00000   0.00000   1.00000
 This molecule is a prolate symmetric top.
 Rotational symmetry number  1.
 Rotational temperature (Kelvin)      5.81253
 Rotational constant (GHZ):         121.113459
    2 imaginary frequencies ignored.
 Zero-point vibrational energy      61029.1 (Joules/Mol)
                                   14.58630 (Kcal/Mol)
 Vibrational temperatures:   1682.34 12997.89
          (Kelvin)

 Zero-point correction=                           0.023245 (Hartree/Particle)
 Thermal correction to Energy=                    0.025624
 Thermal correction to Enthalpy=                  0.026568
 Thermal correction to Gibbs Free Energy=         0.004568
 Sum of electronic and zero-point Energies=           -100.838929
 Sum of electronic and thermal Energies=              -100.836550
 Sum of electronic and thermal Enthalpies=            -100.835605
 Sum of electronic and thermal Free Energies=         -100.857606

                     E (Thermal)             CV                S
                      KCal/Mol        Cal/Mol-Kelvin    Cal/Mol-Kelvin
 Total                   16.079              5.194             46.304
 Electronic               0.000              0.000              1.377
 Translational            0.889              2.981             35.068
 Rotational               0.592              1.987              9.812
 Vibrational             14.598              0.226              0.047

 Normal termination of Gaussian 16 at Fri Aug 22 15:45:56 2025.
