 Gaussian 16, Revision C.01,
 Gaussian 16:  ES64L-G16RevC.01  3-Jul-2019

 -----------------------------------------
 # sp b3lyp/6-311g** Force nosymm scf=(qc)
 -----------------------------------------

 -------------------
 Title Card Required
 -------------------
 Symbolic Z-matrix:
 Charge =  0 Multiplicity = 2

                          Input orientation:
 ---------------------------------------------------------------------
 Center     Atomic      Atomic             Coordinates (Angstroms)
 Number     Number       Type             X           Y           Z
 ---------------------------------------------------------------------
      1          1           0        0.000000    0.000000    0.000000
      2          1           0       -0.650000    0.000000    0.000000
      3          9           0        1.500000    0.000000    0.000000
 ---------------------------------------------------------------------

 SCF Done:  E(UB3LYP) =  -100.926402992     a.u. after    7 cycles

 Alpha  occ. eigenvalues --  -24.71845  -1.18916  -0.57494  -0.43859  -0.43316
 Alpha  occ. eigenvalues --   -0.43316
 Alpha virt. eigenvalues --    0.10725   0.19692   0.47768   0.88518   0.88518
 Alpha virt. eigenvalues --    0.96964   1.09758   1.09758   1.33071   1.66901
 Alpha virt. eigenvalues --    1.87317   1.88007   1.88007   2.45876   3.47070

  Beta  occ. eigenvalues --  -24.69101  -1.11374  -0.49624  -0.40646  -0.40646
  Beta virt. eigenvalues --   -0.23331   0.11747   0.20480   0.50001   0.89727
  Beta virt. eigenvalues --    0.89727   1.03280   1.11759   1.11759   1.36881
  Beta virt. eigenvalues --    1.69613   1.88240   1.89131   1.89131   2.48452

 Mulliken charges and spin densities:
               1          2
     1  H    0.123951  -0.032450
     2  H    0.005204   0.204005
     3  F   -0.129155   0.828445
 Sum of Mulliken charges =   0.00000   1.00000

 Dipole moment (field-independent basis, Debye):
    X=             -0.9662    Y=             -0.0000    Z=             -0.0000  Tot=              0.9662
 Quadrupole moment (field-independent basis, Debye-Ang):
   XX=             -6.7037   YY=             -6.6705   ZZ=             -6.6705
   XY=             -0.0000   XZ=             -0.0000   YZ=             -0.0000

  Exact polarizability:      16.920       0.000       2.264      -0.000      -0.000       2.264
 Approx polarizability:      20.584       0.000       2.314       0.000      -0.000       2.314

 ******    2 imaginary frequencies (negative Signs) ******

                      1                      2                      3
                      A                      A                      A
 Frequencies --  -2183.6977             -2183.6977               332.3646
 Red. masses --      1.0109                 1.0109                 1.1084
 Frc consts  --      2.8403                 2.8403                 0.0721
 IR Inten    --      0.2746                 0.2746                67.8732

                      4
                      A
 Frequencies --   5754.5248
 Red. masses --      1.0079
 Frc consts  --     19.6647
 IR Inten    --    563.5775

 - Thermochemistry -
 -------------------
 Temperature   298.150 Kelvin.  Pressure   1.00000 Atm.
 Atom     1 has atomic number  1 and mass   1.00783

 Molecular mass:    21.01405 amu.
 Principal axes and moments of inertia in atomic units:
                           1         2         3
     Eigenvalues --     0.00000  22.43463  22.43463
           X            1.00000  -0.00000   0.00000
           Y            0.00000   1.00000   0.00000
           Z            0.00000   0.00000   1.00000
 This molecule is a prolate symmetric top.
 Rotational symmetry number  1.
 Rotational temperature (Kelvin)      3.86072
 Rotational constant (GHZ):          80.444436
    2 imaginary frequencies ignored.
 Zero-point vibrational energy      36407.7 (Joules/Mol)
                                    8.70165 (Kcal/Mol)
 Warning -- explicit consideration of   1 degrees of freedom as
           vibrations may cause significant error
 Vibrational temperatures:    478.20  8279.48
          (Kelvin)

 Zero-point correction=                           0.013867 (Hartree/Particle)
 Thermal correction to Energy=                    0.016609
 Thermal correction to Enthalpy=                  0.017553
 Thermal correction to Gibbs Free Energy=        -0.005405
 Sum of electronic and zero-point Energies=           -100.912536
 Sum of electronic and thermal Energies=              -100.909794
 Sum of electronic and thermal Enthalpies=            -100.908850
 Sum of electronic and thermal Free Energies=         -100.931808

                     E (Thermal)             CV                S
                      KCal/Mol        Cal/Mol-Kelvin    Cal/Mol-Kelvin
 Total                   10.422              6.579             48.319
 Electronic               0.000              0.000              1.377
 Translational            0.889              2.981             35.068
 Rotational               0.592              1.987             10.625
 Vibrational              8.941              1.611              1.249
 Vibration     1          0.714              1.611              1.249

 Normal termination of Gaussian 16 at Fri Aug 22 16:24:20 2025.
