 Gaussian 16, Revision C.01,
 Gaussian 16:  ES64L-G16RevC.01  3-Jul-2019

 -----------------------------------------
 # sp b3lyp/6-311g** Force nosymm scf=(qc)
 -----------------------------------------

 -------------------
 Title Card Required
 -------------------
 Symbolic Z-matrix:
 Charge =  0 Multiplicity = 2

                          Input orientation:
 ---------------------------------------------------------------------
 Center     Atomic      Atomic             Coordinates (Angstroms)
 Number     Number       Type             X           Y           Z
 ---------------------------------------------------------------------
      1          1           0        0.000000    0.000000    0.000000
      2          1           0       -3.150000    0.000000    0.000000
      3          9           0        1.100000    0.000000    0.000000
 ---------------------------------------------------------------------

 SCF Done:  E(UB3LYP) =  -100.948520209     a.u. after    6 cycles

 Alpha  occ. eigenvalues --  -24.64268  -1.13844  -0.49595  -0.38077  -0.38077
 Alpha  occ. eigenvalues --   -0.34131
 Alpha virt. eigenvalues --   -0.02333   0.23825   0.31050   0.93594   0.93594
 Alpha virt. eigenvalues --    0.99619   1.23238   1.23394   1.23394   1.29686
 Alpha virt. eigenvalues --    1.35245   1.35245   1.79902   2.14212   2.32031

  Beta  occ. eigenvalues --  -24.64261  -1.13828  -0.49575  -0.38071  -0.38071
  Beta virt. eigenvalues --   -0.07707  -0.01072   0.29983   0.38398   0.93594
  Beta virt. eigenvalues --    0.93594   0.99631   1.29191   1.35235   1.35235
  Beta virt. eigenvalues --    1.47551   1.47551   1.48259   1.79993   2.31990

 Mulliken charges and spin densities:
               1          2
     1  H    0.339154   0.000719
     2  H    0.002342   0.997195
     3  F   -0.341495   0.002087
 Sum of Mulliken charges =   0.00000   1.00000

 Dipole moment (field-independent basis, Debye):
    X=             -2.1910    Y=             -0.0000    Z=              0.0000  Tot=              2.1910
 Quadrupole moment (field-independent basis, Debye-Ang):
   XX=             -8.4702   YY=             -7.0483   ZZ=             -7.0483
   XY=             -0.0000   XZ=             -0.0000   YZ=              0.0000

  Exact polarizability:       8.630       0.000       2.369      -0.000      -0.000       2.369
 Approx polarizability:      11.029       0.000       2.335      -0.000       0.000       2.335

 ******    1 imaginary frequencies (negative Signs) ******

                      1                      2                      3
                      A                      A                      A
 Frequencies --    -76.3772              1178.6587              1178.6587
 Red. masses --      1.0530                 1.0339                 1.0339
 Frc consts  --      0.0036                 0.8462                 0.8462
 IR Inten    --      0.2453               153.9683               153.9683

                      4
                      A
 Frequencies --   1936.5283
 Red. masses --      1.0586
 Frc consts  --      2.3390
 IR Inten    --     85.8679

 - Thermochemistry -
 -------------------
 Temperature   298.150 Kelvin.  Pressure   1.00000 Atm.
 Atom     1 has atomic number  1 and mass   1.00783

 Molecular mass:    21.01405 amu.
 Principal axes and moments of inertia in atomic units:
                           1         2         3
     Eigenvalues --     0.00000  64.42145  64.42145
           X            1.00000  -0.00000   0.00000
           Y            0.00000   1.00000   0.00000
           Z            0.00000   0.00000   1.00000
 This molecule is a prolate symmetric top.
 Rotational symmetry number  1.
 Rotational temperature (Kelvin)      1.34449
 Rotational constant (GHZ):          28.014600
    1 imaginary frequencies ignored.
 Zero-point vibrational energy      25682.9 (Joules/Mol)
                                    6.13836 (Kcal/Mol)
 Vibrational temperatures:   1695.83  1695.83  2786.23
          (Kelvin)

 Zero-point correction=                           0.009782 (Hartree/Particle)
 Thermal correction to Energy=                    0.012180
 Thermal correction to Enthalpy=                  0.013124
 Thermal correction to Gibbs Free Energy=        -0.010280
 Sum of electronic and zero-point Energies=           -100.938738
 Sum of electronic and thermal Energies=              -100.936340
 Sum of electronic and thermal Enthalpies=            -100.935396
 Sum of electronic and thermal Free Energies=         -100.958801

                     E (Thermal)             CV                S
                      KCal/Mol        Cal/Mol-Kelvin    Cal/Mol-Kelvin
 Total                    7.643              5.422             49.259
 Electronic               0.000              0.000              1.377
 Translational            0.889              2.981             35.068
 Rotational               0.592              1.987             12.721
 Vibrational              6.162              0.454              0.092

 Normal termination of Gaussian 16 at Fri Aug 22 16:06:05 2025.
