 Gaussian 16, Revision C.01,
 Gaussian 16:  ES64L-G16RevC.01  3-Jul-2019

 -----------------------------------------
 # sp b3lyp/6-311g** Force nosymm scf=(qc)
 -----------------------------------------

 -------------------
 Title Card Required
 -------------------
 Symbolic Z-matrix:
 Charge =  0 Multiplicity = 2

                          Input orientation:
 ---------------------------------------------------------------------
 Center     Atomic      Atomic             Coordinates (Angstroms)
 Number     Number       Type             X           Y           Z
 ---------------------------------------------------------------------
      1          1           0        0.000000    0.000000    0.000000
      2          1           0       -3.950000    0.000000    0.000000
      3          9           0        2.050000    0.000000    0.000000
 ---------------------------------------------------------------------

 SCF Done:  E(UB3LYP) =  -100.783915629     a.u. after   16 cycles

 Alpha  occ. eigenvalues --  -24.68643  -1.14967  -0.47647  -0.40115  -0.40115
 Alpha  occ. eigenvalues --   -0.33123
 Alpha virt. eigenvalues --   -0.13397   0.22625   0.31848   0.88458   0.94786
 Alpha virt. eigenvalues --    0.94786   1.05648   1.24373   1.24380   1.24380
 Alpha virt. eigenvalues --    1.35977   1.35977   1.58119   2.13673   2.30277

  Beta  occ. eigenvalues --  -24.66195  -1.08105  -0.37698  -0.37698  -0.37636
  Beta virt. eigenvalues --   -0.21073  -0.06255   0.22571   0.38051   0.90087
  Beta virt. eigenvalues --    0.95556   0.95556   1.08079   1.21726   1.21726
  Beta virt. eigenvalues --    1.46344   1.46590   1.46590   1.50370   2.11364

 Mulliken charges and spin densities:
               1          2
     1  H    0.179738  -0.769448
     2  H    0.000482   0.999262
     3  F   -0.180221   0.770186
 Sum of Mulliken charges =  -0.00000   1.00000

 Dipole moment (field-independent basis, Debye):
    X=             -1.8405    Y=              0.0000    Z=             -0.0000  Tot=              1.8405
 Quadrupole moment (field-independent basis, Debye-Ang):
   XX=            -10.0489   YY=             -7.4961   ZZ=             -7.4961
   XY=              0.0000   XZ=             -0.0000   YZ=              0.0000

  Exact polarizability:      25.373       0.000       2.056      -0.000      -0.000       2.056
 Approx polarizability:      36.885      -0.000       1.941       0.000      -0.000       1.941

 ******    2 imaginary frequencies (negative Signs) ******

                      1                      2                      3
                      A                      A                      A
 Frequencies --  -1050.1169               -70.2879               447.9329
 Red. masses --      1.0578                 1.0538                 1.0275
 Frc consts  --      0.6873                 0.0031                 0.1215
 IR Inten    --    118.7586                 0.0362                31.0215

                      4
                      A
 Frequencies --    447.9329
 Red. masses --      1.0275
 Frc consts  --      0.1215
 IR Inten    --     31.0215

 - Thermochemistry -
 -------------------
 Temperature   298.150 Kelvin.  Pressure   1.00000 Atm.
 Atom     1 has atomic number  1 and mass   1.00783

 Molecular mass:    21.01405 amu.
 Principal axes and moments of inertia in atomic units:
                           1         2         3
     Eigenvalues --     0.00000 133.50378 133.50378
           X            1.00000  -0.00000   0.00000
           Y            0.00000   1.00000   0.00000
           Z            0.00000   0.00000   1.00000
 This molecule is a prolate symmetric top.
 Rotational symmetry number  1.
 Rotational temperature (Kelvin)      0.64878
 Rotational constant (GHZ):          13.518278
    2 imaginary frequencies ignored.
 Zero-point vibrational energy       5358.5 (Joules/Mol)
                                    1.28070 (Kcal/Mol)
 Warning -- explicit consideration of   2 degrees of freedom as
           vibrations may cause significant error
 Vibrational temperatures:    644.48   644.48
          (Kelvin)

 Zero-point correction=                           0.002041 (Hartree/Particle)
 Thermal correction to Energy=                    0.004933
 Thermal correction to Enthalpy=                  0.005877
 Thermal correction to Gibbs Free Energy=        -0.018934
 Sum of electronic and zero-point Energies=           -100.781875
 Sum of electronic and thermal Energies=              -100.778983
 Sum of electronic and thermal Enthalpies=            -100.778039
 Sum of electronic and thermal Free Energies=         -100.802850

                     E (Thermal)             CV                S
                      KCal/Mol        Cal/Mol-Kelvin    Cal/Mol-Kelvin
 Total                    3.095              7.699             52.219
 Electronic               0.000              0.000              1.377
 Translational            0.889              2.981             35.068
 Rotational               0.592              1.987             14.169
 Vibrational              1.614              2.731              1.604
 Vibration     1          0.807              1.365              0.802
 Vibration     2          0.807              1.365              0.802

 Normal termination of Gaussian 16 at Fri Aug 22 17:02:01 2025.
