 Gaussian 16, Revision C.01,
 Gaussian 16:  ES64L-G16RevC.01  3-Jul-2019

 -----------------------------------------
 # sp b3lyp/6-311g** Force nosymm scf=(qc)
 -----------------------------------------

 -------------------
 Title Card Required
 -------------------
 Symbolic Z-matrix:
 Charge =  0 Multiplicity = 2

                          Input orientation:
 ---------------------------------------------------------------------
 Center     Atomic      Atomic             Coordinates (Angstroms)
 Number     Number       Type             X           Y           Z
 ---------------------------------------------------------------------
      1          1           0        0.000000    0.000000    0.000000
      2          1           0       -1.000000    0.000000    0.000000
      3          9           0        3.950000    0.000000    0.000000
 ---------------------------------------------------------------------

 SCF Done:  E(UB3LYP) =  -100.906551765     a.u. after    6 cycles

 Alpha  occ. eigenvalues --  -24.76128  -1.22041  -0.55255  -0.46404  -0.46404
 Alpha  occ. eigenvalues --   -0.39067
 Alpha virt. eigenvalues --    0.00136   0.21266   0.38517   0.86667   0.90984
 Alpha virt. eigenvalues --    0.90984   1.00998   1.09035   1.09035   1.37377
 Alpha virt. eigenvalues --    1.65681   1.65681   2.21214   2.35806   2.58705

  Beta  occ. eigenvalues --  -24.72975  -1.12974  -0.43243  -0.43243  -0.39066
  Beta virt. eigenvalues --   -0.25942   0.00143   0.21272   0.38568   0.92484
  Beta virt. eigenvalues --    0.92484   0.96046   1.05144   1.09038   1.09038
  Beta virt. eigenvalues --    1.37383   1.65682   1.65682   2.21221   2.35809

 Mulliken charges and spin densities:
               1          2
     1  H   -0.003030  -0.000258
     2  H    0.002803   0.000640
     3  F    0.000226   0.999618
 Sum of Mulliken charges =   0.00000   1.00000

 Dipole moment (field-independent basis, Debye):
    X=             -0.0082    Y=              0.0000    Z=             -0.0000  Tot=              0.0082
 Quadrupole moment (field-independent basis, Debye-Ang):
   XX=             -5.5117   YY=             -7.2705   ZZ=             -7.2705
   XY=              0.0000   XZ=             -0.0000   YZ=             -0.0000

  Exact polarizability:      12.517      -0.000       2.057       0.000       0.000       2.057
 Approx polarizability:      16.436      -0.000       2.107       0.000       0.000       2.107

 ******    1 imaginary frequencies (negative Signs) ******

                      1                      2                      3
                      A                      A                      A
 Frequencies --    -34.2780              1541.6027              1541.6027
 Red. masses --      1.1085                 1.0091                 1.0091
 Frc consts  --      0.0008                 1.4129                 1.4129
 IR Inten    --      0.0012                 0.0102                 0.0102

                      4
                      A
 Frequencies --   1794.4337
 Red. masses --      1.0078
 Frc consts  --      1.9120
 IR Inten    --      0.0650

 - Thermochemistry -
 -------------------
 Temperature   298.150 Kelvin.  Pressure   1.00000 Atm.
 Atom     1 has atomic number  1 and mass   1.00783

 Molecular mass:    21.01405 amu.
 Principal axes and moments of inertia in atomic units:
                           1         2         3
     Eigenvalues --     0.00000 130.66604 130.66604
           X            1.00000  -0.00000   0.00000
           Y            0.00000   1.00000   0.00000
           Z            0.00000   0.00000   1.00000
 This molecule is a prolate symmetric top.
 Rotational symmetry number  1.
 Rotational temperature (Kelvin)      0.66286
 Rotational constant (GHZ):          13.811861
    1 imaginary frequencies ignored.
 Zero-point vibrational energy      29174.8 (Joules/Mol)
                                    6.97294 (Kcal/Mol)
 Vibrational temperatures:   2218.02  2218.02  2581.79
          (Kelvin)

 Zero-point correction=                           0.011112 (Hartree/Particle)
 Thermal correction to Energy=                    0.013482
 Thermal correction to Enthalpy=                  0.014426
 Thermal correction to Gibbs Free Energy=        -0.009613
 Sum of electronic and zero-point Energies=           -100.895440
 Sum of electronic and thermal Energies=              -100.893070
 Sum of electronic and thermal Enthalpies=            -100.892125
 Sum of electronic and thermal Free Energies=         -100.916165

                     E (Thermal)             CV                S
                      KCal/Mol        Cal/Mol-Kelvin    Cal/Mol-Kelvin
 Total                    8.460              5.123             50.595
 Electronic               0.000              0.000              1.377
 Translational            0.889              2.981             35.068
 Rotational               0.592              1.987             14.127
 Vibrational              6.979              0.155              0.023

 Normal termination of Gaussian 16 at Sat Aug 23 01:30:51 2025.
