 Gaussian 16, Revision C.01,
 Gaussian 16:  ES64L-G16RevC.01  3-Jul-2019

 -----------------------------------------
 # sp b3lyp/6-311g** Force nosymm scf=(qc)
 -----------------------------------------

 -------------------
 Title Card Required
 -------------------
 Symbolic Z-matrix:
 Charge =  0 Multiplicity = 2

                          Input orientation:
 ---------------------------------------------------------------------
 Center     Atomic      Atomic             Coordinates (Angstroms)
 Number     Number       Type             X           Y           Z
 ---------------------------------------------------------------------
      1          1           0        0.000000    0.000000    0.000000
      2          1           0       -3.350000    0.000000    0.000000
      3          9           0        1.750000    0.000000    0.000000
 ---------------------------------------------------------------------

 SCF Done:  E(UB3LYP) =  -100.810303781     a.u. after   18 cycles

 Alpha  occ. eigenvalues --  -24.64373  -1.07509  -0.39782  -0.36225  -0.36225
 Alpha  occ. eigenvalues --   -0.33857
 Alpha virt. eigenvalues --   -0.18759   0.19617   0.27304   0.94585   0.94585
 Alpha virt. eigenvalues --    0.95027   1.07836   1.23616   1.23616   1.23739
 Alpha virt. eigenvalues --    1.24475   1.24475   1.67266   2.12090   2.14350

  Beta  occ. eigenvalues --  -24.66072  -1.12163  -0.44760  -0.37877  -0.37877
  Beta virt. eigenvalues --   -0.15496  -0.05725   0.26288   0.38820   0.94539
  Beta virt. eigenvalues --    0.94728   0.94728   1.06096   1.33330   1.33330
  Beta virt. eigenvalues --    1.46410   1.46447   1.46447   1.71668   2.24649

 Mulliken charges and spin densities:
               1          2
     1  H    0.274963   0.537087
     2  H    0.002538   0.997545
     3  F   -0.277501  -0.534632
 Sum of Mulliken charges =   0.00000   1.00000

 Dipole moment (field-independent basis, Debye):
    X=             -2.4096    Y=              0.0000    Z=              0.0000  Tot=              2.4096
 Quadrupole moment (field-independent basis, Debye-Ang):
   XX=            -10.2038   YY=             -7.4169   ZZ=             -7.4169
   XY=              0.0000   XZ=              0.0000   YZ=             -0.0000

  Exact polarizability:      23.541      -0.000       2.108      -0.000       0.000       2.108
 Approx polarizability:      37.346       0.000       2.003       0.000       0.000       2.003

 ******    1 imaginary frequencies (negative Signs) ******

                      1                      2                      3
                      A                      A                      A
 Frequencies --  -1619.5971                 7.7333               710.9385
 Red. masses --      1.0588                 1.0528                 1.0273
 Frc consts  --      1.6363                 0.0000                 0.3059
 IR Inten    --    119.9111                 0.7301                69.7911

                      4
                      A
 Frequencies --    710.9385
 Red. masses --      1.0273
 Frc consts  --      0.3059
 IR Inten    --     69.7911

 - Thermochemistry -
 -------------------
 Temperature   298.150 Kelvin.  Pressure   1.00000 Atm.
 Atom     1 has atomic number  1 and mass   1.00783

 Molecular mass:    21.01405 amu.
 Principal axes and moments of inertia in atomic units:
                           1         2         3
     Eigenvalues --     0.00000  96.53303  96.53303
           X            1.00000  -0.00000   0.00000
           Y            0.00000   1.00000   0.00000
           Z            0.00000   0.00000   1.00000
 This molecule is a prolate symmetric top.
 Rotational symmetry number  1.
 Rotational temperature (Kelvin)      0.89725
 Rotational constant (GHZ):          18.695583
    1 imaginary frequencies ignored.
 Zero-point vibrational energy       8551.0 (Joules/Mol)
                                    2.04373 (Kcal/Mol)
 Warning -- explicit consideration of   1 degrees of freedom as
           vibrations may cause significant error
 Vibrational temperatures:     11.13  1022.88  1022.88
          (Kelvin)

 Zero-point correction=                           0.003257 (Hartree/Particle)
 Thermal correction to Energy=                    0.006761
 Thermal correction to Enthalpy=                  0.007705
 Thermal correction to Gibbs Free Energy=        -0.020365
 Sum of electronic and zero-point Energies=           -100.807047
 Sum of electronic and thermal Energies=              -100.803543
 Sum of electronic and thermal Enthalpies=            -100.802599
 Sum of electronic and thermal Free Energies=         -100.830669

                     E (Thermal)             CV                S
                      KCal/Mol        Cal/Mol-Kelvin    Cal/Mol-Kelvin
 Total                    4.242              8.572             59.079
 Electronic               0.000              0.000              1.377
 Translational            0.889              2.981             35.068
 Rotational               0.592              1.987             13.525
 Vibrational              2.761              3.604              9.109
 Vibration     1          0.593              1.987              8.522

 Normal termination of Gaussian 16 at Fri Aug 22 16:41:40 2025.
