 Gaussian 16, Revision C.01,
 Gaussian 16:  ES64L-G16RevC.01  3-Jul-2019

 -----------------------------------------
 # sp b3lyp/6-311g** Force nosymm scf=(qc)
 -----------------------------------------

 -------------------
 Title Card Required
 -------------------
 Symbolic Z-matrix:
 Charge =  0 Multiplicity = 2

                          Input orientation:
 ---------------------------------------------------------------------
 Center     Atomic      Atomic             Coordinates (Angstroms)
 Number     Number       Type             X           Y           Z
 ---------------------------------------------------------------------
      1          1           0        0.000000    0.000000    0.000000
      2          1           0       -1.100000    0.000000    0.000000
      3          9           0        3.050000    0.000000    0.000000
 ---------------------------------------------------------------------

 SCF Done:  E(UB3LYP) =  -100.890234186     a.u. after  183 cycles

 Alpha  occ. eigenvalues --  -24.76639  -1.22462  -0.55653  -0.46896  -0.46803
 Alpha  occ. eigenvalues --   -0.37375
 Alpha virt. eigenvalues --   -0.01661   0.22277   0.36521   0.85800   0.90673
 Alpha virt. eigenvalues --    0.93421   1.03840   1.10907   1.10913   1.29846
 Alpha virt. eigenvalues --    1.60023   1.60029   2.17615   2.34870   2.55938

  Beta  occ. eigenvalues --  -24.73478  -1.13377  -0.43739  -0.43634  -0.37360
  Beta virt. eigenvalues --   -0.26279  -0.01642   0.22299   0.36598   0.92172
  Beta virt. eigenvalues --    0.95106   0.95259   1.07701   1.10907   1.10912
  Beta virt. eigenvalues --    1.29854   1.60022   1.60028   2.17626   2.34875

 Mulliken charges and spin densities:
               1          2
     1  H   -0.001940  -0.000500
     2  H   -0.005635  -0.000483
     3  F    0.007575   1.000984
 Sum of Mulliken charges =   0.00000   1.00000

 Dipole moment (field-independent basis, Debye):
    X=              0.0957    Y=             -0.0000    Z=             -0.0000  Tot=              0.0957
 Quadrupole moment (field-independent basis, Debye-Ang):
   XX=             -6.1527   YY=             -7.2009   ZZ=             -6.7255
   XY=              0.0000   XZ=              0.0000   YZ=              0.3606

  Exact polarizability:      14.442       0.000       2.181       0.000       0.192       2.434
 Approx polarizability:      20.010       0.000       2.248       0.000       0.242       2.567

                      1                      2                      3
                      A                      A                      A
 Frequencies --     42.3966              1027.6865              1527.0892
 Red. masses --      1.1085                 1.0078                 1.0101
 Frc consts  --      0.0012                 0.6271                 1.3879
 IR Inten    --      0.4215                 0.7291                 0.0004

                      4
                      A
 Frequencies --   1528.2091
 Red. masses --      1.0101
 Frc consts  --      1.3899
 IR Inten    --      0.0005

 - Thermochemistry -
 -------------------
 Temperature   298.150 Kelvin.  Pressure   1.00000 Atm.
 Atom     1 has atomic number  1 and mass   1.00783

 Molecular mass:    21.01405 amu.
 Principal axes and moments of inertia in atomic units:
                           1         2         3
     Eigenvalues --     0.00000  86.51576  86.51576
           X            1.00000  -0.00000   0.00000
           Y            0.00000   1.00000   0.00000
           Z            0.00000   0.00000   1.00000
 This molecule is a prolate symmetric top.
 Rotational symmetry number  1.
 Rotational temperature (Kelvin)      1.00113
 Rotational constant (GHZ):          20.860260
 Zero-point vibrational energy      24675.3 (Joules/Mol)
                                    5.89753 (Kcal/Mol)
 Warning -- explicit consideration of   1 degrees of freedom as
           vibrations may cause significant error
 Vibrational temperatures:     61.00  1478.61  2197.14  2198.75
          (Kelvin)

 Zero-point correction=                           0.009398 (Hartree/Particle)
 Thermal correction to Energy=                    0.012652
 Thermal correction to Enthalpy=                  0.013596
 Thermal correction to Gibbs Free Energy=        -0.012537
 Sum of electronic and zero-point Energies=           -100.880836
 Sum of electronic and thermal Energies=              -100.877583
 Sum of electronic and thermal Enthalpies=            -100.876638
 Sum of electronic and thermal Free Energies=         -100.902771

                     E (Thermal)             CV                S
                      KCal/Mol        Cal/Mol-Kelvin    Cal/Mol-Kelvin
 Total                    7.939              7.432             55.001
 Electronic               0.000              0.000              1.377
 Translational            0.889              2.981             35.068
 Rotational               0.592              1.987             13.307
 Vibrational              6.458              2.464              5.248
 Vibration     1          0.595              1.980              5.144

 Normal termination of Gaussian 16 at Fri Aug 22 19:39:58 2025.
