 Gaussian 16, Revision C.01,
 Gaussian 16:  ES64L-G16RevC.01  3-Jul-2019

 -----------------------------------------
 # sp b3lyp/6-311g** Force nosymm scf=(qc)
 -----------------------------------------

 -------------------
 Title Card Required
 -------------------
 Symbolic Z-matrix:
 Charge =  0 Multiplicity = 2

                          Input orientation:
 ---------------------------------------------------------------------
 Center     Atomic      Atomic             Coordinates (Angstroms)
 Number     Number       Type             X           Y           Z
 ---------------------------------------------------------------------
      1          1           0        0.000000    0.000000    0.000000
      2          1           0       -2.600000    0.000000    0.000000
      3          9           0        2.800000    0.000000    0.000000
 ---------------------------------------------------------------------

 SCF Done:  E(UB3LYP) =  -100.765626470     a.u. after   20 cycles

 Alpha  occ. eigenvalues --  -24.73326  -1.19436  -0.52439  -0.44035  -0.44035
 Alpha  occ. eigenvalues --   -0.33206
 Alpha virt. eigenvalues --   -0.10688   0.25068   0.33691   0.90098   0.92731
 Alpha virt. eigenvalues --    0.92731   1.05199   1.24411   1.24411   1.26438
 Alpha virt. eigenvalues --    1.39784   1.39784   1.41570   2.15383   2.36310

  Beta  occ. eigenvalues --  -24.70355  -1.10937  -0.41064  -0.41064  -0.34312
  Beta virt. eigenvalues --   -0.24347  -0.08995   0.25487   0.35177   0.94172
  Beta virt. eigenvalues --    0.94172   0.98491   1.08907   1.23137   1.23137
  Beta virt. eigenvalues --    1.25679   1.42489   1.42489   1.43618   2.15924

 Mulliken charges and spin densities:
               1          2
     1  H    0.047128  -0.918805
     2  H    0.005912   0.978021
     3  F   -0.053039   0.940784
 Sum of Mulliken charges =  -0.00000   1.00000

 Dipole moment (field-independent basis, Debye):
    X=             -0.8342    Y=             -0.0000    Z=              0.0000  Tot=              0.8342
 Quadrupole moment (field-independent basis, Debye-Ang):
   XX=             -8.3840   YY=             -7.6323   ZZ=             -7.6323
   XY=             -0.0000   XZ=              0.0000   YZ=              0.0000

  Exact polarizability:      42.277      -0.000       2.015       0.000       0.000       2.015
 Approx polarizability:      42.068      -0.000       1.920       0.000      -0.000       1.920

 ******    2 imaginary frequencies (negative Signs) ******

                      1                      2                      3
                      A                      A                      A
 Frequencies --   -662.8292              -267.6916               252.4306
 Red. masses --      1.0153                 1.0996                 1.0171
 Frc consts  --      0.2628                 0.0464                 0.0382
 IR Inten    --     36.8593                18.9351                 1.8368

                      4
                      A
 Frequencies --    252.4306
 Red. masses --      1.0171
 Frc consts  --      0.0382
 IR Inten    --      1.8368

 - Thermochemistry -
 -------------------
 Temperature   298.150 Kelvin.  Pressure   1.00000 Atm.
 Atom     1 has atomic number  1 and mass   1.00783

 Molecular mass:    21.01405 amu.
 Principal axes and moments of inertia in atomic units:
                           1         2         3
     Eigenvalues --     0.00000 121.55723 121.55723
           X            1.00000  -0.00000   0.00000
           Y            0.00000   1.00000   0.00000
           Z            0.00000   0.00000   1.00000
 This molecule is a prolate symmetric top.
 Rotational symmetry number  1.
 Rotational temperature (Kelvin)      0.71254
 Rotational constant (GHZ):          14.846844
    2 imaginary frequencies ignored.
 Zero-point vibrational energy       3019.7 (Joules/Mol)
                                    0.72174 (Kcal/Mol)
 Warning -- explicit consideration of   2 degrees of freedom as
           vibrations may cause significant error
 Vibrational temperatures:    363.19   363.19
          (Kelvin)

 Zero-point correction=                           0.001150 (Hartree/Particle)
 Thermal correction to Energy=                    0.004477
 Thermal correction to Enthalpy=                  0.005421
 Thermal correction to Gibbs Free Energy=        -0.020168
 Sum of electronic and zero-point Energies=           -100.764476
 Sum of electronic and thermal Energies=              -100.761150
 Sum of electronic and thermal Enthalpies=            -100.760206
 Sum of electronic and thermal Free Energies=         -100.785794

                     E (Thermal)             CV                S
                      KCal/Mol        Cal/Mol-Kelvin    Cal/Mol-Kelvin
 Total                    2.809              8.485             53.856
 Electronic               0.000              0.000              1.377
 Translational            0.889              2.981             35.068
 Rotational               0.592              1.987             13.983
 Vibrational              1.328              3.517              3.427
 Vibration     1          0.664              1.759              1.714
 Vibration     2          0.664              1.759              1.714

 Normal termination of Gaussian 16 at Fri Aug 22 18:43:41 2025.
