 Gaussian 16, Revision C.01,
 Gaussian 16:  ES64L-G16RevC.01  3-Jul-2019

 -----------------------------------------
 # sp b3lyp/6-311g** Force nosymm scf=(qc)
 -----------------------------------------

 -------------------
 Title Card Required
 -------------------
 Symbolic Z-matrix:
 Charge =  0 Multiplicity = 2

                          Input orientation:
 ---------------------------------------------------------------------
 Center     Atomic      Atomic             Coordinates (Angstroms)
 Number     Number       Type             X           Y           Z
 ---------------------------------------------------------------------
      1          1           0        0.000000    0.000000    0.000000
      2          1           0       -0.950000    0.000000    0.000000
      3          9           0        2.200000    0.000000    0.000000
 ---------------------------------------------------------------------

 SCF Done:  E(UB3LYP) =  -100.916355424     a.u. after    8 cycles

 Alpha  occ. eigenvalues --  -24.74907  -1.20939  -0.54351  -0.45403  -0.45403
 Alpha  occ. eigenvalues --   -0.41087
 Alpha virt. eigenvalues --    0.01763   0.21100   0.40239   0.89455   0.91266
 Alpha virt. eigenvalues --    0.91266   1.07286   1.07286   1.11504   1.45928
 Alpha virt. eigenvalues --    1.67568   1.67568   2.20411   2.36200   2.64333

  Beta  occ. eigenvalues --  -24.71873  -1.12267  -0.42373  -0.42373  -0.40979
  Beta virt. eigenvalues --   -0.25777   0.02574   0.21565   0.40626   0.92674
  Beta virt. eigenvalues --    0.92674   0.97532   1.07803   1.07803   1.15003
  Beta virt. eigenvalues --    1.47279   1.67917   1.67917   2.21085   2.36694

 Mulliken charges and spin densities:
               1          2
     1  H    0.000314  -0.030469
     2  H    0.030370   0.074766
     3  F   -0.030683   0.955703
 Sum of Mulliken charges =  -0.00000   1.00000

 Dipole moment (field-independent basis, Debye):
    X=             -0.4677    Y=              0.0000    Z=              0.0000  Tot=              0.4677
 Quadrupole moment (field-independent basis, Debye-Ang):
   XX=             -6.0852   YY=             -7.1776   ZZ=             -7.1776
   XY=              0.0000   XZ=              0.0000   YZ=             -0.0000

  Exact polarizability:      25.074       0.000       2.120       0.000       0.000       2.120
 Approx polarizability:      29.412      -0.000       2.154      -0.000       0.000       2.154

 ******    1 imaginary frequencies (negative Signs) ******

                      1                      2                      3
                      A                      A                      A
 Frequencies --   -280.5803              1437.4013              1437.4013
 Red. masses --      1.1082                 1.0109                 1.0109
 Frc consts  --      0.0514                 1.2306                 1.2306
 IR Inten    --     37.6278                 0.0750                 0.0750

                      4
                      A
 Frequencies --   2080.6657
 Red. masses --      1.0081
 Frc consts  --      2.5712
 IR Inten    --    274.9267

 - Thermochemistry -
 -------------------
 Temperature   298.150 Kelvin.  Pressure   1.00000 Atm.
 Atom     1 has atomic number  1 and mass   1.00783

 Molecular mass:    21.01405 amu.
 Principal axes and moments of inertia in atomic units:
                           1         2         3
     Eigenvalues --     0.00000  48.18992  48.18992
           X            1.00000  -0.00000   0.00000
           Y            0.00000   1.00000   0.00000
           Z            0.00000   0.00000   1.00000
 This molecule is a prolate symmetric top.
 Rotational symmetry number  1.
 Rotational temperature (Kelvin)      1.79735
 Rotational constant (GHZ):          37.450594
    1 imaginary frequencies ignored.
 Zero-point vibrational energy      29640.3 (Joules/Mol)
                                    7.08420 (Kcal/Mol)
 Vibrational temperatures:   2068.10  2068.10  2993.61
          (Kelvin)

 Zero-point correction=                           0.011289 (Hartree/Particle)
 Thermal correction to Energy=                    0.013663
 Thermal correction to Enthalpy=                  0.014607
 Thermal correction to Gibbs Free Energy=        -0.008494
 Sum of electronic and zero-point Energies=           -100.905066
 Sum of electronic and thermal Energies=              -100.902692
 Sum of electronic and thermal Enthalpies=            -100.901748
 Sum of electronic and thermal Free Energies=         -100.924850

                     E (Thermal)             CV                S
                      KCal/Mol        Cal/Mol-Kelvin    Cal/Mol-Kelvin
 Total                    8.574              5.163             48.621
 Electronic               0.000              0.000              1.377
 Translational            0.889              2.981             35.068
 Rotational               0.592              1.987             12.144
 Vibrational              7.092              0.195              0.032

 Normal termination of Gaussian 16 at Fri Aug 22 17:10:39 2025.
