 Gaussian 16, Revision C.01,
 Gaussian 16:  ES64L-G16RevC.01  3-Jul-2019

 -----------------------------------------
 # sp b3lyp/6-311g** Force nosymm scf=(qc)
 -----------------------------------------

 -------------------
 Title Card Required
 -------------------
 Symbolic Z-matrix:
 Charge =  0 Multiplicity = 2

                          Input orientation:
 ---------------------------------------------------------------------
 Center     Atomic      Atomic             Coordinates (Angstroms)
 Number     Number       Type             X           Y           Z
 ---------------------------------------------------------------------
      1          1           0        0.000000    0.000000    0.000000
      2          1           0       -1.850000    0.000000    0.000000
      3          9           0        1.250000    0.000000    0.000000
 ---------------------------------------------------------------------

 SCF Done:  E(UB3LYP) =  -100.917273116     a.u. after    8 cycles

 Alpha  occ. eigenvalues --  -24.63550  -1.11189  -0.47324  -0.37118  -0.36649
 Alpha  occ. eigenvalues --   -0.36649
 Alpha virt. eigenvalues --   -0.03818   0.22896   0.28337   0.93685   0.93685
 Alpha virt. eigenvalues --    1.01656   1.07841   1.19523   1.19523   1.35851
 Alpha virt. eigenvalues --    1.35851   1.47755   1.71299   2.14511   2.32817

  Beta  occ. eigenvalues --  -24.63272  -1.10480  -0.45842  -0.36393  -0.36393
  Beta virt. eigenvalues --   -0.16280  -0.00278   0.27451   0.32588   0.93681
  Beta virt. eigenvalues --    0.93681   1.02450   1.15533   1.32570   1.32570
  Beta virt. eigenvalues --    1.39845   1.39845   1.55202   1.74102   2.25609

 Mulliken charges and spin densities:
               1          2
     1  H    0.326728  -0.025277
     2  H    0.038061   0.941680
     3  F   -0.364789   0.083597
 Sum of Mulliken charges =  -0.00000   1.00000

 Dipole moment (field-independent basis, Debye):
    X=             -2.7333    Y=             -0.0000    Z=              0.0000  Tot=              2.7333
 Quadrupole moment (field-independent basis, Debye-Ang):
   XX=             -8.2539   YY=             -7.1035   ZZ=             -7.1035
   XY=             -0.0000   XZ=              0.0000   YZ=             -0.0000

  Exact polarizability:      18.451       0.000       2.370      -0.000       0.000       2.370
 Approx polarizability:      23.410      -0.000       2.330       0.000       0.000       2.330

 ******    1 imaginary frequencies (negative Signs) ******

                      1                      2                      3
                      A                      A                      A
 Frequencies --  -1020.5161               314.4426              1135.4040
 Red. masses --      1.0158                 1.0990                 1.0233
 Frc consts  --      0.6233                 0.0640                 0.7773
 IR Inten    --    200.3438                24.1557                91.9257

                      4
                      A
 Frequencies --   1135.4040
 Red. masses --      1.0233
 Frc consts  --      0.7773
 IR Inten    --     91.9257

 - Thermochemistry -
 -------------------
 Temperature   298.150 Kelvin.  Pressure   1.00000 Atm.
 Atom     1 has atomic number  1 and mass   1.00783

 Molecular mass:    21.01405 amu.
 Principal axes and moments of inertia in atomic units:
                           1         2         3
     Eigenvalues --     0.00000  36.94377  36.94377
           X            1.00000  -0.00000   0.00000
           Y            0.00000   1.00000   0.00000
           Z            0.00000   0.00000   1.00000
 This molecule is a prolate symmetric top.
 Rotational symmetry number  1.
 Rotational temperature (Kelvin)      2.34448
 Rotational constant (GHZ):          48.851032
    1 imaginary frequencies ignored.
 Zero-point vibrational energy      15463.2 (Joules/Mol)
                                    3.69580 (Kcal/Mol)
 Warning -- explicit consideration of   1 degrees of freedom as
           vibrations may cause significant error
 Vibrational temperatures:    452.41  1633.59  1633.59
          (Kelvin)

 Zero-point correction=                           0.005890 (Hartree/Particle)
 Thermal correction to Energy=                    0.008696
 Thermal correction to Enthalpy=                  0.009640
 Thermal correction to Gibbs Free Energy=        -0.013883
 Sum of electronic and zero-point Energies=           -100.911383
 Sum of electronic and thermal Energies=              -100.908577
 Sum of electronic and thermal Enthalpies=            -100.907633
 Sum of electronic and thermal Free Energies=         -100.931156

                     E (Thermal)             CV                S
                      KCal/Mol        Cal/Mol-Kelvin    Cal/Mol-Kelvin
 Total                    5.457              7.116             49.508
 Electronic               0.000              0.000              1.377
 Translational            0.889              2.981             35.068
 Rotational               0.592              1.987             11.616
 Vibrational              3.976              2.148              1.447
 Vibration     1          0.702              1.646              1.339

 Normal termination of Gaussian 16 at Fri Aug 22 16:12:30 2025.
