 Gaussian 16, Revision C.01,
 Gaussian 16:  ES64L-G16RevC.01  3-Jul-2019

 -----------------------------------------
 # sp b3lyp/6-311g** Force nosymm scf=(qc)
 -----------------------------------------

 -------------------
 Title Card Required
 -------------------
 Symbolic Z-matrix:
 Charge =  0 Multiplicity = 2

                          Input orientation:
 ---------------------------------------------------------------------
 Center     Atomic      Atomic             Coordinates (Angstroms)
 Number     Number       Type             X           Y           Z
 ---------------------------------------------------------------------
      1          1           0        0.000000    0.000000    0.000000
      2          1           0       -3.050000    0.000000    0.000000
      3          9           0        1.100000    0.000000    0.000000
 ---------------------------------------------------------------------

 SCF Done:  E(UB3LYP) =  -100.948558042     a.u. after    6 cycles

 Alpha  occ. eigenvalues --  -24.64256  -1.13835  -0.49590  -0.38067  -0.38067
 Alpha  occ. eigenvalues --   -0.34254
 Alpha virt. eigenvalues --   -0.02265   0.24058   0.30925   0.93604   0.93604
 Alpha virt. eigenvalues --    0.99627   1.23044   1.23275   1.23275   1.30144
 Alpha virt. eigenvalues --    1.35256   1.35256   1.79998   2.14239   2.32137

  Beta  occ. eigenvalues --  -24.64248  -1.13814  -0.49562  -0.38060  -0.38060
  Beta virt. eigenvalues --   -0.08112  -0.00890   0.30121   0.38158   0.93604
  Beta virt. eigenvalues --    0.93604   0.99641   1.29363   1.35243   1.35243
  Beta virt. eigenvalues --    1.46992   1.46992   1.47879   1.80129   2.32111

 Mulliken charges and spin densities:
               1          2
     1  H    0.338732   0.000848
     2  H    0.002881   0.996498
     3  F   -0.341614   0.002654
 Sum of Mulliken charges =   0.00000   1.00000

 Dipole moment (field-independent basis, Debye):
    X=             -2.1986    Y=              0.0000    Z=              0.0000  Tot=              2.1986
 Quadrupole moment (field-independent basis, Debye-Ang):
   XX=             -8.4449   YY=             -7.0481   ZZ=             -7.0481
   XY=              0.0000   XZ=              0.0000   YZ=              0.0000

  Exact polarizability:       8.858      -0.000       2.371       0.000      -0.000       2.371
 Approx polarizability:      11.226      -0.000       2.337      -0.000       0.000       2.337

 ******    1 imaginary frequencies (negative Signs) ******

                      1                      2                      3
                      A                      A                      A
 Frequencies --    -84.7854              1176.6574              1176.6574
 Red. masses --      1.0529                 1.0333                 1.0333
 Frc consts  --      0.0045                 0.8429                 0.8429
 IR Inten    --      0.3410               152.7768               152.7768

                      4
                      A
 Frequencies --   1934.8186
 Red. masses --      1.0587
 Frc consts  --      2.3350
 IR Inten    --     88.9501

 - Thermochemistry -
 -------------------
 Temperature   298.150 Kelvin.  Pressure   1.00000 Atm.
 Atom     1 has atomic number  1 and mass   1.00783

 Molecular mass:    21.01405 amu.
 Principal axes and moments of inertia in atomic units:
                           1         2         3
     Eigenvalues --     0.00000  61.58125  61.58125
           X            1.00000  -0.00000   0.00000
           Y            0.00000   1.00000   0.00000
           Z            0.00000   0.00000   1.00000
 This molecule is a prolate symmetric top.
 Rotational symmetry number  1.
 Rotational temperature (Kelvin)      1.40650
 Rotational constant (GHZ):          29.306669
    1 imaginary frequencies ignored.
 Zero-point vibrational energy      25648.7 (Joules/Mol)
                                    6.13019 (Kcal/Mol)
 Vibrational temperatures:   1692.95  1692.95  2783.77
          (Kelvin)

 Zero-point correction=                           0.009769 (Hartree/Particle)
 Thermal correction to Energy=                    0.012167
 Thermal correction to Enthalpy=                  0.013111
 Thermal correction to Gibbs Free Energy=        -0.010251
 Sum of electronic and zero-point Energies=           -100.938789
 Sum of electronic and thermal Energies=              -100.936391
 Sum of electronic and thermal Enthalpies=            -100.935447
 Sum of electronic and thermal Free Energies=         -100.958809

                     E (Thermal)             CV                S
                      KCal/Mol        Cal/Mol-Kelvin    Cal/Mol-Kelvin
 Total                    7.635              5.425             49.170
 Electronic               0.000              0.000              1.377
 Translational            0.889              2.981             35.068
 Rotational               0.592              1.987             12.632
 Vibrational              6.154              0.456              0.093

 Normal termination of Gaussian 16 at Fri Aug 22 16:06:01 2025.
