 Gaussian 16, Revision C.01,
 Gaussian 16:  ES64L-G16RevC.01  3-Jul-2019

 -----------------------------------------
 # sp b3lyp/6-311g** Force nosymm scf=(qc)
 -----------------------------------------

 -------------------
 Title Card Required
 -------------------
 Symbolic Z-matrix:
 Charge =  0 Multiplicity = 2

                          Input orientation:
 ---------------------------------------------------------------------
 Center     Atomic      Atomic             Coordinates (Angstroms)
 Number     Number       Type             X           Y           Z
 ---------------------------------------------------------------------
      1          1           0        0.000000    0.000000    0.000000
      2          1           0       -3.100000    0.000000    0.000000
      3          9           0        3.750000    0.000000    0.000000
 ---------------------------------------------------------------------

 SCF Done:  E(UB3LYP) =  -100.759399083     a.u. after   30 cycles

 Alpha  occ. eigenvalues --  -24.75718  -1.21657  -0.54842  -0.46046  -0.46046
 Alpha  occ. eigenvalues --   -0.32353
 Alpha virt. eigenvalues --   -0.07563   0.24865   0.36608   0.86956   0.91272
 Alpha virt. eigenvalues --    0.91272   1.01324   1.25173   1.25173   1.25713
 Alpha virt. eigenvalues --    1.44462   1.44591   1.44591   2.15649   2.39906

  Beta  occ. eigenvalues --  -24.72583  -1.12644  -0.42904  -0.42904  -0.32627
  Beta virt. eigenvalues --   -0.25654  -0.07236   0.24673   0.37103   0.92768
  Beta virt. eigenvalues --    0.92768   0.96241   1.05413   1.24866   1.24866
  Beta virt. eigenvalues --    1.25382   1.44970   1.45099   1.45099   2.15760

 Mulliken charges and spin densities:
               1          2
     1  H    0.005115  -0.988099
     2  H    0.000310   0.994129
     3  F   -0.005424   0.993970
 Sum of Mulliken charges =   0.00000   1.00000

 Dipole moment (field-independent basis, Debye):
    X=             -0.1095    Y=             -0.0000    Z=              0.0000  Tot=              0.1095
 Quadrupole moment (field-independent basis, Debye-Ang):
   XX=             -7.0369   YY=             -7.6324   ZZ=             -7.6324
   XY=              0.0000   XZ=             -0.0000   YZ=              0.0000

  Exact polarizability:      18.482      -0.000       2.028       0.000      -0.000       2.028
 Approx polarizability:      13.689       0.000       1.934      -0.000      -0.000       1.934

 ******    2 imaginary frequencies (negative Signs) ******

                      1                      2                      3
                      A                      A                      A
 Frequencies --   -306.5593               -98.2625               106.9150
 Red. masses --      1.0093                 1.1067                 1.0158
 Frc consts  --      0.0559                 0.0063                 0.0068
 IR Inten    --      2.5156                 1.7026                 0.0239

                      4
                      A
 Frequencies --    106.9150
 Red. masses --      1.0158
 Frc consts  --      0.0068
 IR Inten    --      0.0239

 - Thermochemistry -
 -------------------
 Temperature   298.150 Kelvin.  Pressure   1.00000 Atm.
 Atom     1 has atomic number  1 and mass   1.00783

 Molecular mass:    21.01405 amu.
 Principal axes and moments of inertia in atomic units:
                           1         2         3
     Eigenvalues --     0.00000 200.09142 200.09142
           X            1.00000  -0.00000   0.00000
           Y            0.00000   1.00000   0.00000
           Z            0.00000   0.00000   1.00000
 This molecule is a prolate symmetric top.
 Rotational symmetry number  1.
 Rotational temperature (Kelvin)      0.43287
 Rotational constant (GHZ):           9.019583
    2 imaginary frequencies ignored.
 Zero-point vibrational energy       1279.0 (Joules/Mol)
                                    0.30569 (Kcal/Mol)
 Warning -- explicit consideration of   2 degrees of freedom as
           vibrations may cause significant error
 Vibrational temperatures:    153.83   153.83
          (Kelvin)

 Zero-point correction=                           0.000487 (Hartree/Particle)
 Thermal correction to Energy=                    0.004291
 Thermal correction to Enthalpy=                  0.005235
 Thermal correction to Gibbs Free Energy=        -0.022355
 Sum of electronic and zero-point Energies=           -100.758912
 Sum of electronic and thermal Energies=              -100.755109
 Sum of electronic and thermal Enthalpies=            -100.754164
 Sum of electronic and thermal Free Energies=         -100.781754

                     E (Thermal)             CV                S
                      KCal/Mol        Cal/Mol-Kelvin    Cal/Mol-Kelvin
 Total                    2.692              8.855             58.067
 Electronic               0.000              0.000              1.377
 Translational            0.889              2.981             35.068
 Rotational               0.592              1.987             14.973
 Vibrational              1.211              3.887              6.648
 Vibration     1          0.606              1.944              3.324
 Vibration     2          0.606              1.944              3.324

 Normal termination of Gaussian 16 at Sat Aug 23 00:27:05 2025.
