 Gaussian 16, Revision C.01,
 Gaussian 16:  ES64L-G16RevC.01  3-Jul-2019

 -----------------------------------------
 # sp b3lyp/6-311g** Force nosymm scf=(qc)
 -----------------------------------------

 -------------------
 Title Card Required
 -------------------
 Symbolic Z-matrix:
 Charge =  0 Multiplicity = 2

                          Input orientation:
 ---------------------------------------------------------------------
 Center     Atomic      Atomic             Coordinates (Angstroms)
 Number     Number       Type             X           Y           Z
 ---------------------------------------------------------------------
      1          1           0        0.000000    0.000000    0.000000
      2          1           0       -3.000000    0.000000    0.000000
      3          9           0        2.600000    0.000000    0.000000
 ---------------------------------------------------------------------

 SCF Done:  E(UB3LYP) =  -100.766394221     a.u. after   19 cycles

 Alpha  occ. eigenvalues --  -24.72311  -1.18490  -0.51418  -0.43187  -0.43187
 Alpha  occ. eigenvalues --   -0.33085
 Alpha virt. eigenvalues --   -0.10432   0.24234   0.34625   0.90047   0.93308
 Alpha virt. eigenvalues --    0.93308   1.06161   1.24456   1.24456   1.25367
 Alpha virt. eigenvalues --    1.40753   1.40753   1.43191   2.15154   2.35995

  Beta  occ. eigenvalues --  -24.69419  -1.10245  -0.40301  -0.40301  -0.34971
  Beta virt. eigenvalues --   -0.23715  -0.07817   0.24747   0.36684   0.94708
  Beta virt. eigenvalues --    0.94708   0.97406   1.09029   1.22440   1.22440
  Beta virt. eigenvalues --    1.27400   1.44540   1.44540   1.44559   2.14398

 Mulliken charges and spin densities:
               1          2
     1  H    0.073465  -0.906942
     2  H    0.002823   0.992579
     3  F   -0.076288   0.914364
 Sum of Mulliken charges =  -0.00000   1.00000

 Dipole moment (field-independent basis, Debye):
    X=             -1.0529    Y=              0.0000    Z=             -0.0000  Tot=              1.0529
 Quadrupole moment (field-independent basis, Debye-Ang):
   XX=             -8.9768   YY=             -7.5940   ZZ=             -7.5940
   XY=              0.0000   XZ=             -0.0000   YZ=              0.0000

  Exact polarizability:      34.984       0.000       2.021      -0.000       0.000       2.021
 Approx polarizability:      40.509       0.000       1.919      -0.000      -0.000       1.919

 ******    2 imaginary frequencies (negative Signs) ******

                      1                      2                      3
                      A                      A                      A
 Frequencies --   -597.6659              -210.6825               230.5830
 Red. masses --      1.0414                 1.0705                 1.0198
 Frc consts  --      0.2192                 0.0280                 0.0319
 IR Inten    --     67.3412                 3.6110                 4.9148

                      4
                      A
 Frequencies --    230.5830
 Red. masses --      1.0198
 Frc consts  --      0.0319
 IR Inten    --      4.9148

 - Thermochemistry -
 -------------------
 Temperature   298.150 Kelvin.  Pressure   1.00000 Atm.
 Atom     1 has atomic number  1 and mass   1.00783

 Molecular mass:    21.01405 amu.
 Principal axes and moments of inertia in atomic units:
                           1         2         3
     Eigenvalues --     0.00000 125.58812 125.58812
           X            1.00000  -0.00000   0.00000
           Y            0.00000   1.00000   0.00000
           Z            0.00000   0.00000   1.00000
 This molecule is a prolate symmetric top.
 Rotational symmetry number  1.
 Rotational temperature (Kelvin)      0.68967
 Rotational constant (GHZ):          14.370318
    2 imaginary frequencies ignored.
 Zero-point vibrational energy       2758.4 (Joules/Mol)
                                    0.65927 (Kcal/Mol)
 Warning -- explicit consideration of   2 degrees of freedom as
           vibrations may cause significant error
 Vibrational temperatures:    331.76   331.76
          (Kelvin)

 Zero-point correction=                           0.001051 (Hartree/Particle)
 Thermal correction to Energy=                    0.004440
 Thermal correction to Enthalpy=                  0.005384
 Thermal correction to Gibbs Free Energy=        -0.020388
 Sum of electronic and zero-point Energies=           -100.765344
 Sum of electronic and thermal Energies=              -100.761954
 Sum of electronic and thermal Enthalpies=            -100.761010
 Sum of electronic and thermal Free Energies=         -100.786782

                     E (Thermal)             CV                S
                      KCal/Mol        Cal/Mol-Kelvin    Cal/Mol-Kelvin
 Total                    2.786              8.557             54.242
 Electronic               0.000              0.000              1.377
 Translational            0.889              2.981             35.068
 Rotational               0.592              1.987             14.048
 Vibrational              1.305              3.589              3.749
 Vibration     1          0.652              1.794              1.874
 Vibration     2          0.652              1.794              1.874

 Normal termination of Gaussian 16 at Fri Aug 22 18:04:44 2025.
