 Gaussian 16, Revision C.01,
 Gaussian 16:  ES64L-G16RevC.01  3-Jul-2019

 -----------------------------------------
 # sp b3lyp/6-311g** Force nosymm scf=(qc)
 -----------------------------------------

 -------------------
 Title Card Required
 -------------------
 Symbolic Z-matrix:
 Charge =  0 Multiplicity = 2

                          Input orientation:
 ---------------------------------------------------------------------
 Center     Atomic      Atomic             Coordinates (Angstroms)
 Number     Number       Type             X           Y           Z
 ---------------------------------------------------------------------
      1          1           0        0.000000    0.000000    0.000000
      2          1           0       -2.650000    0.000000    0.000000
      3          9           0        1.250000    0.000000    0.000000
 ---------------------------------------------------------------------

 SCF Done:  E(UB3LYP) =  -100.914001899     a.u. after    6 cycles

 Alpha  occ. eigenvalues --  -24.64201  -1.11529  -0.46829  -0.37149  -0.37149
 Alpha  occ. eigenvalues --   -0.35064
 Alpha virt. eigenvalues --   -0.06763   0.23930   0.27856   0.93192   0.93192
 Alpha virt. eigenvalues --    1.01529   1.21253   1.22467   1.22467   1.28293
 Alpha virt. eigenvalues --    1.34426   1.34426   1.72334   2.13683   2.27465

  Beta  occ. eigenvalues --  -24.64162  -1.11430  -0.46678  -0.37113  -0.37113
  Beta virt. eigenvalues --   -0.11349  -0.03983   0.27244   0.36729   0.93189
  Beta virt. eigenvalues --    0.93189   1.01619   1.25348   1.34330   1.34330
  Beta virt. eigenvalues --    1.44076   1.44076   1.44827   1.72676   2.27270

 Mulliken charges and spin densities:
               1          2
     1  H    0.350738  -0.001857
     2  H    0.008585   0.989642
     3  F   -0.359323   0.012214
 Sum of Mulliken charges =  -0.00000   1.00000

 Dipole moment (field-independent basis, Debye):
    X=             -2.4531    Y=             -0.0000    Z=             -0.0000  Tot=              2.4531
 Quadrupole moment (field-independent basis, Debye-Ang):
   XX=             -8.7517   YY=             -7.1628   ZZ=             -7.1628
   XY=             -0.0000   XZ=             -0.0000   YZ=             -0.0000

  Exact polarizability:      13.170       0.000       2.319       0.000       0.000       2.319
 Approx polarizability:      17.832      -0.000       2.271       0.000       0.000       2.271

 ******    1 imaginary frequencies (negative Signs) ******

                      1                      2                      3
                      A                      A                      A
 Frequencies --   -213.7540               351.4740              1168.0869
 Red. masses --      1.0224                 1.0914                 1.0290
 Frc consts  --      0.0275                 0.0794                 0.8272
 IR Inten    --     23.8714                84.4255               129.1366

                      4
                      A
 Frequencies --   1168.0869
 Red. masses --      1.0290
 Frc consts  --      0.8272
 IR Inten    --    129.1366

 - Thermochemistry -
 -------------------
 Temperature   298.150 Kelvin.  Pressure   1.00000 Atm.
 Atom     1 has atomic number  1 and mass   1.00783

 Molecular mass:    21.01405 amu.
 Principal axes and moments of inertia in atomic units:
                           1         2         3
     Eigenvalues --     0.00000  55.78640  55.78640
           X            1.00000  -0.00000   0.00000
           Y            0.00000   1.00000   0.00000
           Z            0.00000   0.00000   1.00000
 This molecule is a prolate symmetric top.
 Rotational symmetry number  1.
 Rotational temperature (Kelvin)      1.55260
 Rotational constant (GHZ):          32.350915
    1 imaginary frequencies ignored.
 Zero-point vibrational energy      16075.7 (Joules/Mol)
                                    3.84219 (Kcal/Mol)
 Warning -- explicit consideration of   1 degrees of freedom as
           vibrations may cause significant error
 Vibrational temperatures:    505.69  1680.62  1680.62
          (Kelvin)

 Zero-point correction=                           0.006123 (Hartree/Particle)
 Thermal correction to Energy=                    0.008881
 Thermal correction to Enthalpy=                  0.009825
 Thermal correction to Gibbs Free Energy=        -0.013995
 Sum of electronic and zero-point Energies=           -100.907879
 Sum of electronic and thermal Energies=              -100.905121
 Sum of electronic and thermal Enthalpies=            -100.904177
 Sum of electronic and thermal Free Energies=         -100.927997

                     E (Thermal)             CV                S
                      KCal/Mol        Cal/Mol-Kelvin    Cal/Mol-Kelvin
 Total                    5.573              6.994             50.135
 Electronic               0.000              0.000              1.377
 Translational            0.889              2.981             35.068
 Rotational               0.592              1.987             12.435
 Vibrational              4.092              2.026              1.254
 Vibration     1          0.728              1.572              1.160

 Normal termination of Gaussian 16 at Fri Aug 22 16:13:02 2025.
