 Gaussian 16, Revision C.01,
 Gaussian 16:  ES64L-G16RevC.01  3-Jul-2019

 -----------------------------------------
 # sp b3lyp/6-311g** Force nosymm scf=(qc)
 -----------------------------------------

 -------------------
 Title Card Required
 -------------------
 Symbolic Z-matrix:
 Charge =  0 Multiplicity = 2

                          Input orientation:
 ---------------------------------------------------------------------
 Center     Atomic      Atomic             Coordinates (Angstroms)
 Number     Number       Type             X           Y           Z
 ---------------------------------------------------------------------
      1          1           0        0.000000    0.000000    0.000000
      2          1           0       -0.500000    0.000000    0.000000
      3          9           0        2.200000    0.000000    0.000000
 ---------------------------------------------------------------------

 SCF Done:  E(UB3LYP) =  -100.860683477     a.u. after   41 cycles

 Alpha  occ. eigenvalues --  -24.76872  -1.22709  -0.55864  -0.50008  -0.47013
 Alpha  occ. eigenvalues --   -0.45800
 Alpha virt. eigenvalues --    0.12014   0.19910   0.55562   0.85374   0.90194
 Alpha virt. eigenvalues --    0.94956   1.12782   1.12856   1.16370   1.63368
 Alpha virt. eigenvalues --    1.85885   2.00338   2.00393   2.42698   3.64545

  Beta  occ. eigenvalues --  -24.73709  -1.13620  -0.49420  -0.43841  -0.43212
  Beta virt. eigenvalues --   -0.26484   0.12151   0.20049   0.55652   0.91673
  Beta virt. eigenvalues --    0.94718   0.96777   1.12868   1.12873   1.19845
  Beta virt. eigenvalues --    1.63437   1.85917   2.00351   2.00393   2.42765

 Mulliken charges and spin densities:
               1          2
     1  H   -0.012667  -0.002810
     2  H   -0.005806  -0.000116
     3  F    0.018473   1.002926
 Sum of Mulliken charges =   0.00000   1.00000

 Dipole moment (field-independent basis, Debye):
    X=              0.1736    Y=              0.0000    Z=              0.0000  Tot=              0.1736
 Quadrupole moment (field-independent basis, Debye-Ang):
   XX=             -5.9915   YY=             -5.9016   ZZ=             -6.4299
   XY=              0.0000   XZ=              0.0000   YZ=              0.3415

  Exact polarizability:       6.018       0.000       2.217      -0.000       0.158       1.973
 Approx polarizability:       6.241       0.000       2.405      -0.000       0.207       2.084

 ******    2 imaginary frequencies (negative Signs) ******

                      1                      2                      3
                      A                      A                      A
 Frequencies --  -4807.2315             -4791.1928               393.6500
 Red. masses --      1.0089                 1.0089                 1.1085
 Frc consts  --     13.7365                13.6450                 0.1012
 IR Inten    --      0.2761                 0.0884                 0.5999

                      4
                      A
 Frequencies --   9962.2838
 Red. masses --      1.0078
 Frc consts  --     58.9323
 IR Inten    --      7.3450

 - Thermochemistry -
 -------------------
 Temperature   298.150 Kelvin.  Pressure   1.00000 Atm.
 Atom     1 has atomic number  1 and mass   1.00783

 Molecular mass:    21.01405 amu.
 Principal axes and moments of inertia in atomic units:
                           1         2         3
     Eigenvalues --     0.00000  39.51168  39.51168
           X            1.00000  -0.00000   0.00000
           Y            0.00000   1.00000   0.00000
           Z            0.00000   0.00000   1.00000
 This molecule is a prolate symmetric top.
 Rotational symmetry number  1.
 Rotational temperature (Kelvin)      2.19211
 Rotational constant (GHZ):          45.676143
    2 imaginary frequencies ignored.
 Zero-point vibrational energy      61942.2 (Joules/Mol)
                                   14.80455 (Kcal/Mol)
 Warning -- explicit consideration of   1 degrees of freedom as
           vibrations may cause significant error
 Vibrational temperatures:    566.37 14333.50
          (Kelvin)

 Zero-point correction=                           0.023593 (Hartree/Particle)
 Thermal correction to Energy=                    0.026269
 Thermal correction to Enthalpy=                  0.027213
 Thermal correction to Gibbs Free Energy=         0.003845
 Sum of electronic and zero-point Energies=           -100.837091
 Sum of electronic and thermal Energies=              -100.834415
 Sum of electronic and thermal Enthalpies=            -100.833471
 Sum of electronic and thermal Free Energies=         -100.856838

                     E (Thermal)             CV                S
                      KCal/Mol        Cal/Mol-Kelvin    Cal/Mol-Kelvin
 Total                   16.484              6.452             49.182
 Electronic               0.000              0.000              1.377
 Translational            0.889              2.981             35.068
 Rotational               0.592              1.987             11.750
 Vibrational             15.003              1.484              0.986
 Vibration     1          0.761              1.484              0.986

 Normal termination of Gaussian 16 at Fri Aug 22 17:09:44 2025.
