 Gaussian 16, Revision C.01,
 Gaussian 16:  ES64L-G16RevC.01  3-Jul-2019

 -----------------------------------------
 # sp b3lyp/6-311g** Force nosymm scf=(qc)
 -----------------------------------------

 -------------------
 Title Card Required
 -------------------
 Symbolic Z-matrix:
 Charge =  0 Multiplicity = 2

                          Input orientation:
 ---------------------------------------------------------------------
 Center     Atomic      Atomic             Coordinates (Angstroms)
 Number     Number       Type             X           Y           Z
 ---------------------------------------------------------------------
      1          1           0        0.000000    0.000000    0.000000
      2          1           0       -0.850000    0.000000    0.000000
      3          9           0        3.700000    0.000000    0.000000
 ---------------------------------------------------------------------

 SCF Done:  E(UB3LYP) =  -100.927775514     a.u. after  223 cycles

 Alpha  occ. eigenvalues --  -24.76267  -1.22147  -0.55349  -0.46533  -0.46504
 Alpha  occ. eigenvalues --   -0.41265
 Alpha virt. eigenvalues --    0.03698   0.20431   0.43160   0.86038   0.90915
 Alpha virt. eigenvalues --    0.92098   1.01318   1.08239   1.08241   1.48956
 Alpha virt. eigenvalues --    1.75577   1.75580   2.11414   2.37745   2.87609

  Beta  occ. eigenvalues --  -24.73111  -1.13071  -0.43374  -0.43339  -0.41259
  Beta virt. eigenvalues --   -0.25994   0.03705   0.20437   0.43193   0.92415
  Beta virt. eigenvalues --    0.93595   0.95503   1.05432   1.08238   1.08241
  Beta virt. eigenvalues --    1.48960   1.75577   1.75580   2.11423   2.37746

 Mulliken charges and spin densities:
               1          2
     1  H   -0.000184  -0.000236
     2  H   -0.002163  -0.000025
     3  F    0.002347   1.000261
 Sum of Mulliken charges =   0.00000   1.00000

 Dipole moment (field-independent basis, Debye):
    X=              0.0334    Y=              0.0000    Z=              0.0000  Tot=              0.0334
 Quadrupole moment (field-independent basis, Debye-Ang):
   XX=             -6.2747   YY=             -6.2220   ZZ=             -7.0863
   XY=              0.0000   XZ=              0.0000   YZ=              0.0071

  Exact polarizability:       9.595       0.000       2.471      -0.000       0.004       2.006
 Approx polarizability:      11.624       0.000       2.656       0.000       0.005       2.073

 ******    1 imaginary frequencies (negative Signs) ******

                      1                      2                      3
                      A                      A                      A
 Frequencies --    -59.1354              1324.7989              1325.7100
 Red. masses --      1.1085                 1.0089                 1.0089
 Frc consts  --      0.0023                 1.0433                 1.0447
 IR Inten    --      0.0885                 0.0000                 0.0000

                      4
                      A
 Frequencies --   3135.4920
 Red. masses --      1.0078
 Frc consts  --      5.8378
 IR Inten    --      0.0558

 - Thermochemistry -
 -------------------
 Temperature   298.150 Kelvin.  Pressure   1.00000 Atm.
 Atom     1 has atomic number  1 and mass   1.00783

 Molecular mass:    21.01405 amu.
 Principal axes and moments of inertia in atomic units:
                           1         2         3
     Eigenvalues --     0.00000 112.03084 112.03084
           X            1.00000  -0.00000   0.00000
           Y            0.00000   1.00000   0.00000
           Z            0.00000   0.00000   1.00000
 This molecule is a prolate symmetric top.
 Rotational symmetry number  1.
 Rotational temperature (Kelvin)      0.77313
 Rotational constant (GHZ):          16.109324
    1 imaginary frequencies ignored.
 Zero-point vibrational energy      34608.0 (Joules/Mol)
                                    8.27150 (Kcal/Mol)
 Vibrational temperatures:   1906.09  1907.40  4511.27
          (Kelvin)

 Zero-point correction=                           0.013181 (Hartree/Particle)
 Thermal correction to Energy=                    0.015562
 Thermal correction to Enthalpy=                  0.016506
 Thermal correction to Gibbs Free Energy=        -0.007400
 Sum of electronic and zero-point Energies=           -100.914594
 Sum of electronic and thermal Energies=              -100.912213
 Sum of electronic and thermal Enthalpies=            -100.911269
 Sum of electronic and thermal Free Energies=         -100.935176

                     E (Thermal)             CV                S
                      KCal/Mol        Cal/Mol-Kelvin    Cal/Mol-Kelvin
 Total                    9.765              5.240             50.315
 Electronic               0.000              0.000              1.377
 Translational            0.889              2.981             35.068
 Rotational               0.592              1.987             13.821
 Vibrational              8.284              0.272              0.049

 Normal termination of Gaussian 16 at Fri Aug 22 23:42:47 2025.
