 Gaussian 16, Revision C.01,
 Gaussian 16:  ES64L-G16RevC.01  3-Jul-2019

 -----------------------------------------
 # sp b3lyp/6-311g** Force nosymm scf=(qc)
 -----------------------------------------

 -------------------
 Title Card Required
 -------------------
 Symbolic Z-matrix:
 Charge =  0 Multiplicity = 2

                          Input orientation:
 ---------------------------------------------------------------------
 Center     Atomic      Atomic             Coordinates (Angstroms)
 Number     Number       Type             X           Y           Z
 ---------------------------------------------------------------------
      1          1           0        0.000000    0.000000    0.000000
      2          1           0       -1.800000    0.000000    0.000000
      3          9           0        2.250000    0.000000    0.000000
 ---------------------------------------------------------------------

 SCF Done:  E(UB3LYP) =  -100.798877824     a.u. after   14 cycles

 Alpha  occ. eigenvalues --  -24.70494  -1.16768  -0.49633  -0.41655  -0.41655
 Alpha  occ. eigenvalues --   -0.36120
 Alpha virt. eigenvalues --   -0.12829   0.23982   0.31362   0.87254   0.94173
 Alpha virt. eigenvalues --    0.94173   1.03621   1.21409   1.21409   1.21992
 Alpha virt. eigenvalues --    1.34465   1.34465   1.60301   2.12419   2.36871

  Beta  occ. eigenvalues --  -24.67787  -1.09104  -0.38965  -0.38965  -0.36084
  Beta virt. eigenvalues --   -0.23063  -0.11781   0.26359   0.30795   0.91737
  Beta virt. eigenvalues --    0.95390   0.95390   1.07233   1.22258   1.22258
  Beta virt. eigenvalues --    1.26873   1.35589   1.35589   1.60564   2.13185

 Mulliken charges and spin densities:
               1          2
     1  H    0.074563  -0.624738
     2  H    0.046011   0.771401
     3  F   -0.120574   0.853337
 Sum of Mulliken charges =   0.00000   1.00000

 Dipole moment (field-independent basis, Debye):
    X=             -1.7653    Y=              0.0000    Z=             -0.0000  Tot=              1.7653
 Quadrupole moment (field-independent basis, Debye-Ang):
   XX=             -8.0986   YY=             -7.6283   ZZ=             -7.6283
   XY=              0.0000   XZ=             -0.0000   YZ=              0.0000

  Exact polarizability:      58.757      -0.000       2.033       0.000      -0.000       2.033
 Approx polarizability:      73.406       0.000       1.963      -0.000      -0.000       1.963

 ******    2 imaginary frequencies (negative Signs) ******

                      1                      2                      3
                      A                      A                      A
 Frequencies --  -1775.1382              -475.2168               758.5053
 Red. masses --      1.0099                 1.1060                 1.0155
 Frc consts  --      1.8750                 0.1472                 0.3442
 IR Inten    --    203.9093                49.1606                 2.3714

                      4
                      A
 Frequencies --    758.5053
 Red. masses --      1.0155
 Frc consts  --      0.3442
 IR Inten    --      2.3714

 - Thermochemistry -
 -------------------
 Temperature   298.150 Kelvin.  Pressure   1.00000 Atm.
 Atom     1 has atomic number  1 and mass   1.00783

 Molecular mass:    21.01405 amu.
 Principal axes and moments of inertia in atomic units:
                           1         2         3
     Eigenvalues --     0.00000  70.40195  70.40195
           X            1.00000  -0.00000   0.00000
           Y            0.00000   1.00000   0.00000
           Z            0.00000   0.00000   1.00000
 This molecule is a prolate symmetric top.
 Rotational symmetry number  1.
 Rotational temperature (Kelvin)      1.23028
 Rotational constant (GHZ):          25.634818
    2 imaginary frequencies ignored.
 Zero-point vibrational energy       9073.7 (Joules/Mol)
                                    2.16868 (Kcal/Mol)
 Vibrational temperatures:   1091.32  1091.32
          (Kelvin)

 Zero-point correction=                           0.003456 (Hartree/Particle)
 Thermal correction to Energy=                    0.005999
 Thermal correction to Enthalpy=                  0.006943
 Thermal correction to Gibbs Free Energy=        -0.016733
 Sum of electronic and zero-point Energies=           -100.795422
 Sum of electronic and thermal Energies=              -100.792879
 Sum of electronic and thermal Enthalpies=            -100.791935
 Sum of electronic and thermal Free Energies=         -100.815611

                     E (Thermal)             CV                S
                      KCal/Mol        Cal/Mol-Kelvin    Cal/Mol-Kelvin
 Total                    3.764              6.411             49.831
 Electronic               0.000              0.000              1.377
 Translational            0.889              2.981             35.068
 Rotational               0.592              1.987             12.898
 Vibrational              2.283              1.443              0.488

 Normal termination of Gaussian 16 at Fri Aug 22 17:16:15 2025.
