 Gaussian 16, Revision C.01,
 Gaussian 16:  ES64L-G16RevC.01  3-Jul-2019

 -----------------------------------------
 # sp b3lyp/6-311g** Force nosymm scf=(qc)
 -----------------------------------------

 -------------------
 Title Card Required
 -------------------
 Symbolic Z-matrix:
 Charge =  0 Multiplicity = 2

                          Input orientation:
 ---------------------------------------------------------------------
 Center     Atomic      Atomic             Coordinates (Angstroms)
 Number     Number       Type             X           Y           Z
 ---------------------------------------------------------------------
      1          1           0        0.000000    0.000000    0.000000
      2          1           0       -2.100000    0.000000    0.000000
      3          9           0        3.100000    0.000000    0.000000
 ---------------------------------------------------------------------

 SCF Done:  E(UB3LYP) =  -100.772006744     a.u. after   26 cycles

 Alpha  occ. eigenvalues --  -24.74622  -1.20639  -0.53741  -0.45123  -0.45123
 Alpha  occ. eigenvalues --   -0.33421
 Alpha virt. eigenvalues --   -0.11367   0.25616   0.32361   0.89203   0.91948
 Alpha virt. eigenvalues --    0.91948   1.03375   1.20458   1.24497   1.24497
 Alpha virt. eigenvalues --    1.37663   1.37663   1.47023   2.12932   2.35896

  Beta  occ. eigenvalues --  -24.71563  -1.11861  -0.42059  -0.42059  -0.33649
  Beta virt. eigenvalues --   -0.25122  -0.10731   0.25843   0.33059   0.93419
  Beta virt. eigenvalues --    0.93419   0.98071   1.07330   1.20248   1.24183
  Beta virt. eigenvalues --    1.24183   1.38652   1.38652   1.47821   2.14065

 Mulliken charges and spin densities:
               1          2
     1  H    0.015861  -0.868564
     2  H    0.010885   0.898857
     3  F   -0.026746   0.969706
 Sum of Mulliken charges =   0.00000   1.00000

 Dipole moment (field-independent basis, Debye):
    X=             -0.5342    Y=             -0.0000    Z=             -0.0000  Tot=              0.5342
 Quadrupole moment (field-independent basis, Debye-Ang):
   XX=             -7.3182   YY=             -7.7013   ZZ=             -7.7013
   XY=             -0.0000   XZ=              0.0000   YZ=              0.0000

  Exact polarizability:      54.255      -0.000       2.007       0.000       0.000       2.007
 Approx polarizability:      46.970      -0.000       1.928       0.000      -0.000       1.928

 ******    2 imaginary frequencies (negative Signs) ******

                      1                      2                      3
                      A                      A                      A
 Frequencies --  -1191.4054              -217.0504               468.9957
 Red. masses --      1.0080                 1.1083                 1.0139
 Frc consts  --      0.8430                 0.0308                 0.1314
 IR Inten    --     25.4931                22.5196                 0.1139

                      4
                      A
 Frequencies --    468.9957
 Red. masses --      1.0139
 Frc consts  --      0.1314
 IR Inten    --      0.1139

 - Thermochemistry -
 -------------------
 Temperature   298.150 Kelvin.  Pressure   1.00000 Atm.
 Atom     1 has atomic number  1 and mass   1.00783

 Molecular mass:    21.01405 amu.
 Principal axes and moments of inertia in atomic units:
                           1         2         3
     Eigenvalues --     0.00000 120.01277 120.01277
           X            1.00000  -0.00000   0.00000
           Y            0.00000   1.00000   0.00000
           Z            0.00000   0.00000   1.00000
 This molecule is a prolate symmetric top.
 Rotational symmetry number  1.
 Rotational temperature (Kelvin)      0.72171
 Rotational constant (GHZ):          15.037909
    2 imaginary frequencies ignored.
 Zero-point vibrational energy       5610.4 (Joules/Mol)
                                    1.34093 (Kcal/Mol)
 Warning -- explicit consideration of   2 degrees of freedom as
           vibrations may cause significant error
 Vibrational temperatures:    674.78   674.78
          (Kelvin)

 Zero-point correction=                           0.002137 (Hartree/Particle)
 Thermal correction to Energy=                    0.004994
 Thermal correction to Enthalpy=                  0.005938
 Thermal correction to Gibbs Free Energy=        -0.018714
 Sum of electronic and zero-point Energies=           -100.769870
 Sum of electronic and thermal Energies=              -100.767013
 Sum of electronic and thermal Enthalpies=            -100.766069
 Sum of electronic and thermal Free Energies=         -100.790721

                     E (Thermal)             CV                S
                      KCal/Mol        Cal/Mol-Kelvin    Cal/Mol-Kelvin
 Total                    3.133              7.606             51.884
 Electronic               0.000              0.000              1.377
 Translational            0.889              2.981             35.068
 Rotational               0.592              1.987             13.958
 Vibrational              1.652              2.638              1.481
 Vibration     1          0.826              1.319              0.740
 Vibration     2          0.826              1.319              0.740

 Normal termination of Gaussian 16 at Fri Aug 22 19:54:40 2025.
