 Gaussian 16, Revision C.01,
 Gaussian 16:  ES64L-G16RevC.01  3-Jul-2019

 -----------------------------------------
 # sp b3lyp/6-311g** Force nosymm scf=(qc)
 -----------------------------------------

 -------------------
 Title Card Required
 -------------------
 Symbolic Z-matrix:
 Charge =  0 Multiplicity = 2

                          Input orientation:
 ---------------------------------------------------------------------
 Center     Atomic      Atomic             Coordinates (Angstroms)
 Number     Number       Type             X           Y           Z
 ---------------------------------------------------------------------
      1          1           0        0.000000    0.000000    0.000000
      2          1           0       -4.000000    0.000000    0.000000
      3          9           0        1.400000    0.000000    0.000000
 ---------------------------------------------------------------------

 SCF Done:  E(UB3LYP) =  -100.877266593     a.u. after    7 cycles

 Alpha  occ. eigenvalues --  -24.64387  -1.10289  -0.44567  -0.36724  -0.36724
 Alpha  occ. eigenvalues --   -0.33552
 Alpha virt. eigenvalues --   -0.11927   0.20979   0.27169   0.93096   0.93096
 Alpha virt. eigenvalues --    1.03155   1.15162   1.23915   1.23955   1.23955
 Alpha virt. eigenvalues --    1.32585   1.32585   1.71294   2.12980   2.21295

  Beta  occ. eigenvalues --  -24.64383  -1.10279  -0.44558  -0.36720  -0.36720
  Beta virt. eigenvalues --   -0.12056  -0.05869   0.23796   0.38395   0.93095
  Beta virt. eigenvalues --    0.93095   1.03165   1.15170   1.32570   1.32570
  Beta virt. eigenvalues --    1.46857   1.47117   1.47117   1.71309   2.20329

 Mulliken charges and spin densities:
               1          2
     1  H    0.356881  -0.000768
     2  H    0.000480   0.999495
     3  F   -0.357360   0.001274
 Sum of Mulliken charges =   0.00000   1.00000

 Dipole moment (field-independent basis, Debye):
    X=             -2.4980    Y=              0.0000    Z=             -0.0000  Tot=              2.4980
 Quadrupole moment (field-independent basis, Debye-Ang):
   XX=             -9.6158   YY=             -7.2634   ZZ=             -7.2634
   XY=              0.0000   XZ=             -0.0000   YZ=             -0.0000

  Exact polarizability:      12.594      -0.000       2.232      -0.000      -0.000       2.232
 Approx polarizability:      21.919      -0.000       2.165      -0.000       0.000       2.165

 ******    2 imaginary frequencies (negative Signs) ******

                      1                      2                      3
                      A                      A                      A
 Frequencies --  -1011.6327               -36.9214              1099.5004
 Red. masses --      1.0581                 1.0535                 1.0338
 Frc consts  --      0.6380                 0.0008                 0.7364
 IR Inten    --     44.9620                 0.0218               129.2220

                      4
                      A
 Frequencies --   1099.5004
 Red. masses --      1.0338
 Frc consts  --      0.7364
 IR Inten    --    129.2220

 - Thermochemistry -
 -------------------
 Temperature   298.150 Kelvin.  Pressure   1.00000 Atm.
 Atom     1 has atomic number  1 and mass   1.00783

 Molecular mass:    21.01405 amu.
 Principal axes and moments of inertia in atomic units:
                           1         2         3
     Eigenvalues --     0.00000 104.01980 104.01980
           X            1.00000  -0.00000   0.00000
           Y            0.00000   1.00000   0.00000
           Z            0.00000   0.00000   1.00000
 This molecule is a prolate symmetric top.
 Rotational symmetry number  1.
 Rotational temperature (Kelvin)      0.83267
 Rotational constant (GHZ):          17.349977
    2 imaginary frequencies ignored.
 Zero-point vibrational energy      13152.9 (Joules/Mol)
                                    3.14363 (Kcal/Mol)
 Vibrational temperatures:   1581.94  1581.94
          (Kelvin)

 Zero-point correction=                           0.005010 (Hartree/Particle)
 Thermal correction to Energy=                    0.007420
 Thermal correction to Enthalpy=                  0.008364
 Thermal correction to Gibbs Free Energy=        -0.015508
 Sum of electronic and zero-point Energies=           -100.872257
 Sum of electronic and thermal Energies=              -100.869846
 Sum of electronic and thermal Enthalpies=            -100.868902
 Sum of electronic and thermal Free Energies=         -100.892775

                     E (Thermal)             CV                S
                      KCal/Mol        Cal/Mol-Kelvin    Cal/Mol-Kelvin
 Total                    4.656              5.529             50.244
 Electronic               0.000              0.000              1.377
 Translational            0.889              2.981             35.068
 Rotational               0.592              1.987             13.673
 Vibrational              3.175              0.561              0.125

 Normal termination of Gaussian 16 at Fri Aug 22 16:21:31 2025.
