 Gaussian 16, Revision C.01,
 Gaussian 16:  ES64L-G16RevC.01  3-Jul-2019

 -----------------------------------------
 # sp b3lyp/6-311g** Force nosymm scf=(qc)
 -----------------------------------------

 -------------------
 Title Card Required
 -------------------
 Symbolic Z-matrix:
 Charge =  0 Multiplicity = 2

                          Input orientation:
 ---------------------------------------------------------------------
 Center     Atomic      Atomic             Coordinates (Angstroms)
 Number     Number       Type             X           Y           Z
 ---------------------------------------------------------------------
      1          1           0        0.000000    0.000000    0.000000
      2          1           0       -3.950000    0.000000    0.000000
      3          9           0        0.950000    0.000000    0.000000
 ---------------------------------------------------------------------

 SCF Done:  E(UB3LYP) =  -100.970987782     a.u. after    6 cycles

 Alpha  occ. eigenvalues --  -24.64115  -1.17452  -0.52748  -0.39222  -0.39222
 Alpha  occ. eigenvalues --   -0.33352
 Alpha virt. eigenvalues --    0.01899   0.23688   0.36905   0.94212   0.94212
 Alpha virt. eigenvalues --    0.98123   1.24088   1.24154   1.24154   1.28936
 Alpha virt. eigenvalues --    1.36464   1.36464   1.95511   2.14062   2.34781

  Beta  occ. eigenvalues --  -24.64114  -1.17450  -0.52747  -0.39222  -0.39222
  Beta virt. eigenvalues --   -0.04915   0.02120   0.35451   0.40136   0.94212
  Beta virt. eigenvalues --    0.94212   0.98123   1.28891   1.36464   1.36464
  Beta virt. eigenvalues --    1.50525   1.50997   1.50997   1.95618   2.34508

 Mulliken charges and spin densities:
               1          2
     1  H    0.308286   0.000246
     2  H    0.000364   0.999598
     3  F   -0.308650   0.000156
 Sum of Mulliken charges =   0.00000   1.00000

 Dipole moment (field-independent basis, Debye):
    X=             -1.9564    Y=              0.0000    Z=              0.0000  Tot=              1.9564
 Quadrupole moment (field-independent basis, Debye-Ang):
   XX=             -8.1126   YY=             -6.9165   ZZ=             -6.9165
   XY=              0.0000   XZ=              0.0000   YZ=              0.0000

  Exact polarizability:       5.783      -0.000       2.410      -0.000      -0.000       2.410
 Approx polarizability:       7.008      -0.000       2.385      -0.000      -0.000       2.385

 ******    1 imaginary frequencies (negative Signs) ******

                      1                      2                      3
                      A                      A                      A
 Frequencies --    -29.0459               679.0775               679.0775
 Red. masses --      1.0532                 1.0395                 1.0395
 Frc consts  --      0.0005                 0.2824                 0.2824
 IR Inten    --      0.0115               177.3292               177.3292

                      4
                      A
 Frequencies --   3680.2207
 Red. masses --      1.0583
 Frc consts  --      8.4453
 IR Inten    --     91.7499

 - Thermochemistry -
 -------------------
 Temperature   298.150 Kelvin.  Pressure   1.00000 Atm.
 Atom     1 has atomic number  1 and mass   1.00783

 Molecular mass:    21.01405 amu.
 Principal axes and moments of inertia in atomic units:
                           1         2         3
     Eigenvalues --     0.00000  83.75326  83.75326
           X            1.00000  -0.00000   0.00000
           Y            0.00000   1.00000   0.00000
           Z            0.00000   0.00000   1.00000
 This molecule is a prolate symmetric top.
 Rotational symmetry number  1.
 Rotational temperature (Kelvin)      1.03416
 Rotational constant (GHZ):          21.548310
    1 imaginary frequencies ignored.
 Zero-point vibrational energy      30136.2 (Joules/Mol)
                                    7.20272 (Kcal/Mol)
 Vibrational temperatures:    977.04   977.04  5295.02
          (Kelvin)

 Zero-point correction=                           0.011478 (Hartree/Particle)
 Thermal correction to Energy=                    0.014081
 Thermal correction to Enthalpy=                  0.015026
 Thermal correction to Gibbs Free Energy=        -0.008898
 Sum of electronic and zero-point Energies=           -100.959510
 Sum of electronic and thermal Energies=              -100.956906
 Sum of electronic and thermal Enthalpies=            -100.955962
 Sum of electronic and thermal Free Energies=         -100.979886

                     E (Thermal)             CV                S
                      KCal/Mol        Cal/Mol-Kelvin    Cal/Mol-Kelvin
 Total                    8.836              6.708             50.352
 Electronic               0.000              0.000              1.377
 Translational            0.889              2.981             35.068
 Rotational               0.592              1.987             13.243
 Vibrational              7.355              1.740              0.664

 Normal termination of Gaussian 16 at Fri Aug 22 15:59:25 2025.
