 Gaussian 16, Revision C.01,
 Gaussian 16:  ES64L-G16RevC.01  3-Jul-2019

 -----------------------------------------
 # sp b3lyp/6-311g** Force nosymm scf=(qc)
 -----------------------------------------

 -------------------
 Title Card Required
 -------------------
 Symbolic Z-matrix:
 Charge =  0 Multiplicity = 2

                          Input orientation:
 ---------------------------------------------------------------------
 Center     Atomic      Atomic             Coordinates (Angstroms)
 Number     Number       Type             X           Y           Z
 ---------------------------------------------------------------------
      1          1           0        0.000000    0.000000    0.000000
      2          1           0       -0.900000    0.000000    0.000000
      3          9           0        2.700000    0.000000    0.000000
 ---------------------------------------------------------------------

 SCF Done:  E(UB3LYP) =  -100.921859179     a.u. after    6 cycles

 Alpha  occ. eigenvalues --  -24.76066  -1.21969  -0.55227  -0.46345  -0.46345
 Alpha  occ. eigenvalues --   -0.41005
 Alpha virt. eigenvalues --    0.02503   0.20657   0.41970   0.89939   0.90996
 Alpha virt. eigenvalues --    0.90996   1.07768   1.07768   1.08529   1.44713
 Alpha virt. eigenvalues --    1.71652   1.71652   2.18724   2.37960   2.73480

  Beta  occ. eigenvalues --  -24.72938  -1.12977  -0.43210  -0.43210  -0.40960
  Beta virt. eigenvalues --   -0.26181   0.02833   0.20873   0.42364   0.92478
  Beta virt. eigenvalues --    0.92478   0.98426   1.07867   1.07867   1.12952
  Beta virt. eigenvalues --    1.44822   1.71723   1.71723   2.18857   2.38073

 Mulliken charges and spin densities:
               1          2
     1  H   -0.012024  -0.007547
     2  H    0.014378   0.017193
     3  F   -0.002354   0.990354
 Sum of Mulliken charges =   0.00000   1.00000

 Dipole moment (field-independent basis, Debye):
    X=             -0.1035    Y=              0.0000    Z=             -0.0000  Tot=              0.1035
 Quadrupole moment (field-independent basis, Debye-Ang):
   XX=             -5.5901   YY=             -7.1457   ZZ=             -7.1457
   XY=              0.0000   XZ=             -0.0000   YZ=              0.0000

  Exact polarizability:      15.279      -0.000       2.039      -0.000      -0.000       2.039
 Approx polarizability:      17.360      -0.000       2.103      -0.000      -0.000       2.103

 ******    1 imaginary frequencies (negative Signs) ******

                      1                      2                      3
                      A                      A                      A
 Frequencies --   -119.5009              1437.2456              1437.2456
 Red. masses --      1.1085                 1.0098                 1.0098
 Frc consts  --      0.0093                 1.2290                 1.2290
 IR Inten    --      2.2308                 0.1865                 0.1865

                      4
                      A
 Frequencies --   2621.9404
 Red. masses --      1.0078
 Frc consts  --      4.0821
 IR Inten    --     24.8061

 - Thermochemistry -
 -------------------
 Temperature   298.150 Kelvin.  Pressure   1.00000 Atm.
 Atom     1 has atomic number  1 and mass   1.00783

 Molecular mass:    21.01405 amu.
 Principal axes and moments of inertia in atomic units:
                           1         2         3
     Eigenvalues --     0.00000  66.02915  66.02915
           X            1.00000  -0.00000   0.00000
           Y            0.00000   1.00000   0.00000
           Z            0.00000   0.00000   1.00000
 This molecule is a prolate symmetric top.
 Rotational symmetry number  1.
 Rotational temperature (Kelvin)      1.31175
 Rotational constant (GHZ):          27.332490
    1 imaginary frequencies ignored.
 Zero-point vibrational energy      32876.0 (Joules/Mol)
                                    7.85754 (Kcal/Mol)
 Vibrational temperatures:   2067.88  2067.88  3772.39
          (Kelvin)

 Zero-point correction=                           0.012522 (Hartree/Particle)
 Thermal correction to Energy=                    0.014895
 Thermal correction to Enthalpy=                  0.015839
 Thermal correction to Gibbs Free Energy=        -0.007559
 Sum of electronic and zero-point Energies=           -100.909337
 Sum of electronic and thermal Energies=              -100.906964
 Sum of electronic and thermal Enthalpies=            -100.906020
 Sum of electronic and thermal Free Energies=         -100.929419

                     E (Thermal)             CV                S
                      KCal/Mol        Cal/Mol-Kelvin    Cal/Mol-Kelvin
 Total                    9.347              5.155             49.246
 Electronic               0.000              0.000              1.377
 Translational            0.889              2.981             35.068
 Rotational               0.592              1.987             12.770
 Vibrational              7.866              0.187              0.031

 Normal termination of Gaussian 16 at Fri Aug 22 18:19:29 2025.
