 Gaussian 16, Revision C.01,
 Gaussian 16:  ES64L-G16RevC.01  3-Jul-2019

 -----------------------------------------
 # sp b3lyp/6-311g** Force nosymm scf=(qc)
 -----------------------------------------

 -------------------
 Title Card Required
 -------------------
 Symbolic Z-matrix:
 Charge =  0 Multiplicity = 2

                          Input orientation:
 ---------------------------------------------------------------------
 Center     Atomic      Atomic             Coordinates (Angstroms)
 Number     Number       Type             X           Y           Z
 ---------------------------------------------------------------------
      1          1           0        0.000000    0.000000    0.000000
      2          1           0       -1.000000    0.000000    0.000000
      3          9           0        3.250000    0.000000    0.000000
 ---------------------------------------------------------------------

 SCF Done:  E(UB3LYP) =  -100.906648819     a.u. after    7 cycles

 Alpha  occ. eigenvalues --  -24.76184  -1.22084  -0.55308  -0.46449  -0.46449
 Alpha  occ. eigenvalues --   -0.39184
 Alpha virt. eigenvalues --    0.00079   0.21186   0.38275   0.88740   0.90944
 Alpha virt. eigenvalues --    0.90944   1.02748   1.08915   1.08915   1.37375
 Alpha virt. eigenvalues --    1.65560   1.65560   2.22504   2.36197   2.58706

  Beta  occ. eigenvalues --  -24.73039  -1.13036  -0.43295  -0.43295  -0.39170
  Beta virt. eigenvalues --   -0.26104   0.00168   0.21262   0.38553   0.92438
  Beta virt. eigenvalues --    0.92438   0.97746   1.06923   1.08937   1.08937
  Beta virt. eigenvalues --    1.37415   1.65577   1.65577   2.22573   2.36234

 Mulliken charges and spin densities:
               1          2
     1  H   -0.007358  -0.002285
     2  H    0.006886   0.005060
     3  F    0.000472   0.997225
 Sum of Mulliken charges =   0.00000   1.00000

 Dipole moment (field-independent basis, Debye):
    X=             -0.0312    Y=             -0.0000    Z=              0.0000  Tot=              0.0312
 Quadrupole moment (field-independent basis, Debye-Ang):
   XX=             -5.5042   YY=             -7.2713   ZZ=             -7.2713
   XY=             -0.0000   XZ=              0.0000   YZ=             -0.0000

  Exact polarizability:      14.111      -0.000       2.058      -0.000       0.000       2.058
 Approx polarizability:      17.746      -0.000       2.110      -0.000       0.000       2.110

 ******    1 imaginary frequencies (negative Signs) ******

                      1                      2                      3
                      A                      A                      A
 Frequencies --    -52.1758              1536.5647              1536.5647
 Red. masses --      1.1085                 1.0096                 1.0096
 Frc consts  --      0.0018                 1.4044                 1.4044
 IR Inten    --      0.1730                 0.0541                 0.0541

                      4
                      A
 Frequencies --   1788.3178
 Red. masses --      1.0078
 Frc consts  --      1.8990
 IR Inten    --      2.4263

 - Thermochemistry -
 -------------------
 Temperature   298.150 Kelvin.  Pressure   1.00000 Atm.
 Atom     1 has atomic number  1 and mass   1.00783

 Molecular mass:    21.01405 amu.
 Principal axes and moments of inertia in atomic units:
                           1         2         3
     Eigenvalues --     0.00000  93.31248  93.31248
           X            1.00000  -0.00000   0.00000
           Y            0.00000   1.00000   0.00000
           Z            0.00000   0.00000   1.00000
 This molecule is a prolate symmetric top.
 Rotational symmetry number  1.
 Rotational temperature (Kelvin)      0.92821
 Rotational constant (GHZ):          19.340834
    1 imaginary frequencies ignored.
 Zero-point vibrational energy      29077.9 (Joules/Mol)
                                    6.94979 (Kcal/Mol)
 Vibrational temperatures:   2210.77  2210.77  2572.99
          (Kelvin)

 Zero-point correction=                           0.011075 (Hartree/Particle)
 Thermal correction to Energy=                    0.013446
 Thermal correction to Enthalpy=                  0.014390
 Thermal correction to Gibbs Free Energy=        -0.009332
 Sum of electronic and zero-point Energies=           -100.895574
 Sum of electronic and thermal Energies=              -100.893203
 Sum of electronic and thermal Enthalpies=            -100.892259
 Sum of electronic and thermal Free Energies=         -100.915981

                     E (Thermal)             CV                S
                      KCal/Mol        Cal/Mol-Kelvin    Cal/Mol-Kelvin
 Total                    8.437              5.126             49.927
 Electronic               0.000              0.000              1.377
 Translational            0.889              2.981             35.068
 Rotational               0.592              1.987             13.458
 Vibrational              6.956              0.158              0.024

 Normal termination of Gaussian 16 at Fri Aug 22 20:28:18 2025.
