 Gaussian 16, Revision C.01,
 Gaussian 16:  ES64L-G16RevC.01  3-Jul-2019

 -----------------------------------------
 # sp b3lyp/6-311g** Force nosymm scf=(qc)
 -----------------------------------------

 -------------------
 Title Card Required
 -------------------
 Symbolic Z-matrix:
 Charge =  0 Multiplicity = 2

                          Input orientation:
 ---------------------------------------------------------------------
 Center     Atomic      Atomic             Coordinates (Angstroms)
 Number     Number       Type             X           Y           Z
 ---------------------------------------------------------------------
      1          1           0        0.000000    0.000000    0.000000
      2          1           0       -1.850000    0.000000    0.000000
      3          9           0        1.350000    0.000000    0.000000
 ---------------------------------------------------------------------

 SCF Done:  E(UB3LYP) =  -100.894532335     a.u. after    9 cycles

 Alpha  occ. eigenvalues --  -24.63532  -1.10323  -0.46007  -0.37313  -0.36238
 Alpha  occ. eigenvalues --   -0.36238
 Alpha virt. eigenvalues --   -0.06928   0.22706   0.27745   0.93756   0.93756
 Alpha virt. eigenvalues --    1.02410   1.05082   1.19251   1.19251   1.35296
 Alpha virt. eigenvalues --    1.35296   1.43939   1.71094   2.12428   2.31436

  Beta  occ. eigenvalues --  -24.63106  -1.09222  -0.44002  -0.35841  -0.35841
  Beta virt. eigenvalues --   -0.17531  -0.03045   0.26622   0.31992   0.93709
  Beta virt. eigenvalues --    0.93709   1.03865   1.11092   1.31538   1.31538
  Beta virt. eigenvalues --    1.38873   1.38873   1.52720   1.72989   2.21499

 Mulliken charges and spin densities:
               1          2
     1  H    0.319806  -0.059552
     2  H    0.045840   0.929088
     3  F   -0.365647   0.130465
 Sum of Mulliken charges =   0.00000   1.00000

 Dipole moment (field-independent basis, Debye):
    X=             -2.9064    Y=              0.0000    Z=             -0.0000  Tot=              2.9064
 Quadrupole moment (field-independent basis, Debye-Ang):
   XX=             -8.4488   YY=             -7.1767   ZZ=             -7.1767
   XY=              0.0000   XZ=             -0.0000   YZ=              0.0000

  Exact polarizability:      22.482       0.000       2.319       0.000      -0.000       2.319
 Approx polarizability:      30.347       0.000       2.269      -0.000      -0.000       2.269

 ******    2 imaginary frequencies (negative Signs) ******

                      1                      2                      3
                      A                      A                      A
 Frequencies --  -1541.8359              -253.2441              1085.8131
 Red. masses --      1.0287                 1.0843                 1.0222
 Frc consts  --      1.4409                 0.0410                 0.7100
 IR Inten    --    164.7453                 2.8906                78.3620

                      4
                      A
 Frequencies --   1085.8131
 Red. masses --      1.0222
 Frc consts  --      0.7100
 IR Inten    --     78.3620

 - Thermochemistry -
 -------------------
 Temperature   298.150 Kelvin.  Pressure   1.00000 Atm.
 Atom     1 has atomic number  1 and mass   1.00783

 Molecular mass:    21.01405 amu.
 Principal axes and moments of inertia in atomic units:
                           1         2         3
     Eigenvalues --     0.00000  39.83965  39.83965
           X            1.00000  -0.00000   0.00000
           Y            0.00000   1.00000   0.00000
           Z            0.00000   0.00000   1.00000
 This molecule is a prolate symmetric top.
 Rotational symmetry number  1.
 Rotational temperature (Kelvin)      2.17406
 Rotational constant (GHZ):          45.300132
    2 imaginary frequencies ignored.
 Zero-point vibrational energy      12989.2 (Joules/Mol)
                                    3.10450 (Kcal/Mol)
 Vibrational temperatures:   1562.24  1562.24
          (Kelvin)

 Zero-point correction=                           0.004947 (Hartree/Particle)
 Thermal correction to Energy=                    0.007361
 Thermal correction to Enthalpy=                  0.008305
 Thermal correction to Gibbs Free Energy=        -0.014665
 Sum of electronic and zero-point Energies=           -100.889585
 Sum of electronic and thermal Energies=              -100.887172
 Sum of electronic and thermal Enthalpies=            -100.886228
 Sum of electronic and thermal Free Energies=         -100.909197

                     E (Thermal)             CV                S
                      KCal/Mol        Cal/Mol-Kelvin    Cal/Mol-Kelvin
 Total                    4.619              5.553             48.344
 Electronic               0.000              0.000              1.377
 Translational            0.889              2.981             35.068
 Rotational               0.592              1.987             11.766
 Vibrational              3.138              0.585              0.132

 Normal termination of Gaussian 16 at Fri Aug 22 16:17:29 2025.
