 Gaussian 16, Revision C.01,
 Gaussian 16:  ES64L-G16RevC.01  3-Jul-2019

 -----------------------------------------
 # sp b3lyp/6-311g** Force nosymm scf=(qc)
 -----------------------------------------

 -------------------
 Title Card Required
 -------------------
 Symbolic Z-matrix:
 Charge =  0 Multiplicity = 2

                          Input orientation:
 ---------------------------------------------------------------------
 Center     Atomic      Atomic             Coordinates (Angstroms)
 Number     Number       Type             X           Y           Z
 ---------------------------------------------------------------------
      1          1           0        0.000000    0.000000    0.000000
      2          1           0       -1.500000    0.000000    0.000000
      3          9           0        3.950000    0.000000    0.000000
 ---------------------------------------------------------------------

 SCF Done:  E(UB3LYP) =  -100.820017700     a.u. after  234 cycles

 Alpha  occ. eigenvalues --  -24.76224  -1.22128  -0.55331  -0.46505  -0.46487
 Alpha  occ. eigenvalues --   -0.33608
 Alpha virt. eigenvalues --   -0.09833   0.24943   0.30440   0.86034   0.90912
 Alpha virt. eigenvalues --    0.91259   1.00849   1.07544   1.20337   1.20338
 Alpha virt. eigenvalues --    1.41458   1.41460   1.81691   2.22139   2.46058

  Beta  occ. eigenvalues --  -24.73069  -1.13055  -0.43343  -0.43324  -0.33607
  Beta virt. eigenvalues --   -0.25982  -0.09838   0.24944   0.30450   0.92412
  Beta virt. eigenvalues --    0.92749   0.95501   1.04994   1.07549   1.20335
  Beta virt. eigenvalues --    1.20337   1.41457   1.41458   1.81696   2.22153

 Mulliken charges and spin densities:
               1          2
     1  H    0.001099  -0.125749
     2  H   -0.001883   0.125675
     3  F    0.000783   1.000074
 Sum of Mulliken charges =   0.00000   1.00000

 Dipole moment (field-independent basis, Debye):
    X=              0.0223    Y=             -0.0000    Z=              0.0000  Tot=              0.0223
 Quadrupole moment (field-independent basis, Debye-Ang):
   XX=             -6.3291   YY=             -7.7400   ZZ=             -6.9110
   XY=             -0.0000   XZ=             -0.0000   YZ=              0.1230

  Exact polarizability:      22.467      -0.000       2.048      -0.000       0.058       2.437
 Approx polarizability:      42.926      -0.000       2.047      -0.000       0.083       2.606

 ******    2 imaginary frequencies (negative Signs) ******

                      1                      2                      3
                      A                      A                      A
 Frequencies --  -2184.7503               -59.6675              1221.6559
 Red. masses --      1.0078                 1.1085                 1.0103
 Frc consts  --      2.8343                 0.0023                 0.8884
 IR Inten    --      0.0222                 0.0395                 0.0017

                      4
                      A
 Frequencies --   1247.6149
 Red. masses --      1.0103
 Frc consts  --      0.9266
 IR Inten    --      0.1150

 - Thermochemistry -
 -------------------
 Temperature   298.150 Kelvin.  Pressure   1.00000 Atm.
 Atom     1 has atomic number  1 and mass   1.00783

 Molecular mass:    21.01405 amu.
 Principal axes and moments of inertia in atomic units:
                           1         2         3
     Eigenvalues --     0.00000 147.80153 147.80153
           X            1.00000  -0.00000   0.00000
           Y            0.00000   1.00000   0.00000
           Z            0.00000   0.00000   1.00000
 This molecule is a prolate symmetric top.
 Rotational symmetry number  1.
 Rotational temperature (Kelvin)      0.58602
 Rotational constant (GHZ):          12.210571
    2 imaginary frequencies ignored.
 Zero-point vibrational energy      14769.5 (Joules/Mol)
                                    3.53000 (Kcal/Mol)
 Vibrational temperatures:   1757.69  1795.04
          (Kelvin)

 Zero-point correction=                           0.005625 (Hartree/Particle)
 Thermal correction to Energy=                    0.008015
 Thermal correction to Enthalpy=                  0.008959
 Thermal correction to Gibbs Free Energy=        -0.015220
 Sum of electronic and zero-point Energies=           -100.814392
 Sum of electronic and thermal Energies=              -100.812003
 Sum of electronic and thermal Enthalpies=            -100.811058
 Sum of electronic and thermal Free Energies=         -100.835237

                     E (Thermal)             CV                S
                      KCal/Mol        Cal/Mol-Kelvin    Cal/Mol-Kelvin
 Total                    5.030              5.335             50.889
 Electronic               0.000              0.000              1.377
 Translational            0.889              2.981             35.068
 Rotational               0.592              1.987             14.371
 Vibrational              3.548              0.367              0.072

 Normal termination of Gaussian 16 at Sat Aug 23 01:34:38 2025.
