 Gaussian 16, Revision C.01,
 Gaussian 16:  ES64L-G16RevC.01  3-Jul-2019

 -----------------------------------------
 # sp b3lyp/6-311g** Force nosymm scf=(qc)
 -----------------------------------------

 -------------------
 Title Card Required
 -------------------
 Symbolic Z-matrix:
 Charge =  0 Multiplicity = 2

                          Input orientation:
 ---------------------------------------------------------------------
 Center     Atomic      Atomic             Coordinates (Angstroms)
 Number     Number       Type             X           Y           Z
 ---------------------------------------------------------------------
      1          1           0        0.000000    0.000000    0.000000
      2          1           0       -1.800000    0.000000    0.000000
      3          9           0        2.550000    0.000000    0.000000
 ---------------------------------------------------------------------

 SCF Done:  E(UB3LYP) =  -100.792050874     a.u. after   23 cycles

 Alpha  occ. eigenvalues --  -24.72502  -1.18663  -0.51628  -0.43342  -0.43342
 Alpha  occ. eigenvalues --   -0.35106
 Alpha virt. eigenvalues --   -0.12455   0.24593   0.31266   0.89700   0.93188
 Alpha virt. eigenvalues --    0.93188   1.04299   1.14607   1.22438   1.22438
 Alpha virt. eigenvalues --    1.35261   1.35261   1.59128   2.12776   2.38523

  Beta  occ. eigenvalues --  -24.69606  -1.10401  -0.40451  -0.40451  -0.34994
  Beta virt. eigenvalues --   -0.24097  -0.11745   0.26342   0.30876   0.94583
  Beta virt. eigenvalues --    0.94583   0.96520   1.07023   1.17706   1.22722
  Beta virt. eigenvalues --    1.22722   1.36172   1.36172   1.59785   2.13728

 Mulliken charges and spin densities:
               1          2
     1  H    0.038175  -0.666583
     2  H    0.033991   0.750763
     3  F   -0.072166   0.915821
 Sum of Mulliken charges =   0.00000   1.00000

 Dipole moment (field-independent basis, Debye):
    X=             -1.2306    Y=             -0.0000    Z=              0.0000  Tot=              1.2306
 Quadrupole moment (field-independent basis, Debye-Ang):
   XX=             -7.6746   YY=             -7.6880   ZZ=             -7.6880
   XY=             -0.0000   XZ=              0.0000   YZ=              0.0000

  Exact polarizability:      62.990       0.000       2.013      -0.000      -0.000       2.013
 Approx polarizability:      73.358       0.000       1.952      -0.000      -0.000       1.952

 ******    2 imaginary frequencies (negative Signs) ******

                      1                      2                      3
                      A                      A                      A
 Frequencies --  -1749.3999              -361.8965               755.1907
 Red. masses --      1.0084                 1.1078                 1.0143
 Frc consts  --      1.8183                 0.0855                 0.3408
 IR Inten    --    154.9991                48.9716                 0.4628

                      4
                      A
 Frequencies --    755.1907
 Red. masses --      1.0143
 Frc consts  --      0.3408
 IR Inten    --      0.4628

 - Thermochemistry -
 -------------------
 Temperature   298.150 Kelvin.  Pressure   1.00000 Atm.
 Atom     1 has atomic number  1 and mass   1.00783

 Molecular mass:    21.01405 amu.
 Principal axes and moments of inertia in atomic units:
                           1         2         3
     Eigenvalues --     0.00000  83.28698  83.28698
           X            1.00000  -0.00000   0.00000
           Y            0.00000   1.00000   0.00000
           Z            0.00000   0.00000   1.00000
 This molecule is a prolate symmetric top.
 Rotational symmetry number  1.
 Rotational temperature (Kelvin)      1.03995
 Rotational constant (GHZ):          21.668948
    2 imaginary frequencies ignored.
 Zero-point vibrational energy       9034.1 (Joules/Mol)
                                    2.15920 (Kcal/Mol)
 Vibrational temperatures:   1086.55  1086.55
          (Kelvin)

 Zero-point correction=                           0.003441 (Hartree/Particle)
 Thermal correction to Energy=                    0.005986
 Thermal correction to Enthalpy=                  0.006930
 Thermal correction to Gibbs Free Energy=        -0.016908
 Sum of electronic and zero-point Energies=           -100.788610
 Sum of electronic and thermal Energies=              -100.786065
 Sum of electronic and thermal Enthalpies=            -100.785121
 Sum of electronic and thermal Free Energies=         -100.808959

                     E (Thermal)             CV                S
                      KCal/Mol        Cal/Mol-Kelvin    Cal/Mol-Kelvin
 Total                    3.756              6.423             50.171
 Electronic               0.000              0.000              1.377
 Translational            0.889              2.981             35.068
 Rotational               0.592              1.987             13.232
 Vibrational              2.275              1.455              0.494

 Normal termination of Gaussian 16 at Fri Aug 22 17:53:36 2025.
