 Gaussian 16, Revision C.01,
 Gaussian 16:  ES64L-G16RevC.01  3-Jul-2019

 -----------------------------------------
 # sp b3lyp/6-311g** Force nosymm scf=(qc)
 -----------------------------------------

 -------------------
 Title Card Required
 -------------------
 Symbolic Z-matrix:
 Charge =  0 Multiplicity = 2

                          Input orientation:
 ---------------------------------------------------------------------
 Center     Atomic      Atomic             Coordinates (Angstroms)
 Number     Number       Type             X           Y           Z
 ---------------------------------------------------------------------
      1          1           0        0.000000    0.000000    0.000000
      2          1           0       -1.400000    0.000000    0.000000
      3          9           0        2.850000    0.000000    0.000000
 ---------------------------------------------------------------------

 SCF Done:  E(UB3LYP) =  -100.837157664     a.u. after  257 cycles

 Alpha  occ. eigenvalues --  -24.76769  -1.22586  -0.55766  -0.47055  -0.46923
 Alpha  occ. eigenvalues --   -0.34218
 Alpha virt. eigenvalues --   -0.07874   0.24489   0.31927   0.85774   0.90556
 Alpha virt. eigenvalues --    0.93079   1.04540   1.11143   1.18035   1.18043
 Alpha virt. eigenvalues --    1.45233   1.45241   1.90745   2.26006   2.51158

  Beta  occ. eigenvalues --  -24.73611  -1.13511  -0.43901  -0.43757  -0.34189
  Beta virt. eigenvalues --   -0.26424  -0.07840   0.24521   0.32028   0.92053
  Beta virt. eigenvalues --    0.94393   0.95559   1.08274   1.11296   1.18045
  Beta virt. eigenvalues --    1.18053   1.45242   1.45250   1.90767   2.26024

 Mulliken charges and spin densities:
               1          2
     1  H   -0.000577  -0.001697
     2  H   -0.007414   0.001721
     3  F    0.007991   0.999976
 Sum of Mulliken charges =   0.00000   1.00000

 Dipole moment (field-independent basis, Debye):
    X=              0.1147    Y=              0.0008    Z=              0.0004  Tot=              0.1147
 Quadrupole moment (field-independent basis, Debye-Ang):
   XX=             -6.1322   YY=             -7.0430   ZZ=             -7.5112
   XY=              0.1527   XZ=              0.0803   YZ=              0.3403

  Exact polarizability:      50.542      -0.318       2.412      -0.201       0.185       2.159
 Approx polarizability:      38.377       0.041       2.505       0.021       0.228       2.191

 ******    2 imaginary frequencies (negative Signs) ******

                      1                      2                      3
                      A                      A                      A
 Frequencies --  -1223.7537              -115.4855              1304.0523
 Red. masses --      1.0079                 1.1084                 1.0116
 Frc consts  --      0.8893                 0.0087                 1.0136
 IR Inten    --    114.2010                 7.6382                 5.6196

                      4
                      A
 Frequencies --   1307.1732
 Red. masses --      1.0116
 Frc consts  --      1.0184
 IR Inten    --      0.0066

 - Thermochemistry -
 -------------------
 Temperature   298.150 Kelvin.  Pressure   1.00000 Atm.
 Atom     1 has atomic number  1 and mass   1.00783

 Molecular mass:    21.01405 amu.
 Principal axes and moments of inertia in atomic units:
                           1         2         3
     Eigenvalues --     0.00000  85.53892  85.53892
           X            1.00000  -0.00000   0.00000
           Y            0.00000   1.00000   0.00000
           Z            0.00000   0.00000   1.00000
 This molecule is a prolate symmetric top.
 Rotational symmetry number  1.
 Rotational temperature (Kelvin)      1.01257
 Rotational constant (GHZ):          21.098479
    2 imaginary frequencies ignored.
 Zero-point vibrational energy      15618.6 (Joules/Mol)
                                    3.73293 (Kcal/Mol)
 Vibrational temperatures:   1876.24  1880.73
          (Kelvin)

 Zero-point correction=                           0.005949 (Hartree/Particle)
 Thermal correction to Energy=                    0.008331
 Thermal correction to Enthalpy=                  0.009275
 Thermal correction to Gibbs Free Energy=        -0.014378
 Sum of electronic and zero-point Energies=           -100.831209
 Sum of electronic and thermal Energies=              -100.828827
 Sum of electronic and thermal Enthalpies=            -100.827882
 Sum of electronic and thermal Free Energies=         -100.851536

                     E (Thermal)             CV                S
                      KCal/Mol        Cal/Mol-Kelvin    Cal/Mol-Kelvin
 Total                    5.228              5.259             49.783
 Electronic               0.000              0.000              1.377
 Translational            0.889              2.981             35.068
 Rotational               0.592              1.987             13.285
 Vibrational              3.747              0.291              0.053

 Normal termination of Gaussian 16 at Fri Aug 22 18:51:05 2025.
