 Gaussian 16, Revision C.01,
 Gaussian 16:  ES64L-G16RevC.01  3-Jul-2019

 -----------------------------------------
 # sp b3lyp/6-311g** Force nosymm scf=(qc)
 -----------------------------------------

 -------------------
 Title Card Required
 -------------------
 Symbolic Z-matrix:
 Charge =  0 Multiplicity = 2

                          Input orientation:
 ---------------------------------------------------------------------
 Center     Atomic      Atomic             Coordinates (Angstroms)
 Number     Number       Type             X           Y           Z
 ---------------------------------------------------------------------
      1          1           0        0.000000    0.000000    0.000000
      2          1           0       -3.250000    0.000000    0.000000
      3          9           0        3.050000    0.000000    0.000000
 ---------------------------------------------------------------------

 SCF Done:  E(UB3LYP) =  -100.761058948     a.u. after   23 cycles

 Alpha  occ. eigenvalues --  -24.74266  -1.20313  -0.53386  -0.44826  -0.44826
 Alpha  occ. eigenvalues --   -0.32585
 Alpha virt. eigenvalues --   -0.08386   0.24330   0.35792   0.89243   0.92167
 Alpha virt. eigenvalues --    0.92167   1.03640   1.24933   1.24933   1.25310
 Alpha virt. eigenvalues --    1.43503   1.43503   1.43777   2.15194   2.39757

  Beta  occ. eigenvalues --  -24.71227  -1.11598  -0.41783  -0.41783  -0.33626
  Beta virt. eigenvalues --   -0.24879  -0.07032   0.24263   0.37420   0.93632
  Beta virt. eigenvalues --    0.93632   0.98008   1.07432   1.23729   1.23729
  Beta virt. eigenvalues --    1.24259   1.45266   1.45497   1.45497   2.15532

 Mulliken charges and spin densities:
               1          2
     1  H    0.032633  -0.959394
     2  H    0.000789   0.996126
     3  F   -0.033421   0.963268
 Sum of Mulliken charges =  -0.00000   1.00000

 Dipole moment (field-independent basis, Debye):
    X=             -0.5359    Y=             -0.0000    Z=             -0.0000  Tot=              0.5359
 Quadrupole moment (field-independent basis, Debye-Ang):
   XX=             -8.1620   YY=             -7.6164   ZZ=             -7.6164
   XY=             -0.0000   XZ=              0.0000   YZ=              0.0000

  Exact polarizability:      32.699      -0.000       2.025       0.000       0.000       2.025
 Approx polarizability:      31.926      -0.000       1.926       0.000      -0.000       1.926

 ******    2 imaginary frequencies (negative Signs) ******

                      1                      2                      3
                      A                      A                      A
 Frequencies --   -384.0105              -149.1887               137.5316
 Red. masses --      1.0359                 1.0765                 1.0187
 Frc consts  --      0.0900                 0.0141                 0.0114
 IR Inten    --     34.4076                 2.2160                 0.9716

                      4
                      A
 Frequencies --    137.5316
 Red. masses --      1.0187
 Frc consts  --      0.0114
 IR Inten    --      0.9716

 - Thermochemistry -
 -------------------
 Temperature   298.150 Kelvin.  Pressure   1.00000 Atm.
 Atom     1 has atomic number  1 and mass   1.00783

 Molecular mass:    21.01405 amu.
 Principal axes and moments of inertia in atomic units:
                           1         2         3
     Eigenvalues --     0.00000 161.23470 161.23470
           X            1.00000  -0.00000   0.00000
           Y            0.00000   1.00000   0.00000
           Z            0.00000   0.00000   1.00000
 This molecule is a prolate symmetric top.
 Rotational symmetry number  1.
 Rotational temperature (Kelvin)      0.53719
 Rotational constant (GHZ):          11.193256
    2 imaginary frequencies ignored.
 Zero-point vibrational energy       1645.2 (Joules/Mol)
                                    0.39322 (Kcal/Mol)
 Warning -- explicit consideration of   2 degrees of freedom as
           vibrations may cause significant error
 Vibrational temperatures:    197.88   197.88
          (Kelvin)

 Zero-point correction=                           0.000627 (Hartree/Particle)
 Thermal correction to Energy=                    0.004318
 Thermal correction to Enthalpy=                  0.005262
 Thermal correction to Gibbs Free Energy=        -0.021662
 Sum of electronic and zero-point Energies=           -100.760432
 Sum of electronic and thermal Energies=              -100.756741
 Sum of electronic and thermal Enthalpies=            -100.755797
 Sum of electronic and thermal Free Energies=         -100.782721

                     E (Thermal)             CV                S
                      KCal/Mol        Cal/Mol-Kelvin    Cal/Mol-Kelvin
 Total                    2.709              8.800             56.666
 Electronic               0.000              0.000              1.377
 Translational            0.889              2.981             35.068
 Rotational               0.592              1.987             14.544
 Vibrational              1.228              3.832              5.676
 Vibration     1          0.614              1.916              2.838
 Vibration     2          0.614              1.916              2.838

 Normal termination of Gaussian 16 at Fri Aug 22 19:45:04 2025.
