 Gaussian 16, Revision C.01,
 Gaussian 16:  ES64L-G16RevC.01  3-Jul-2019

 -----------------------------------------
 # sp b3lyp/6-311g** Force nosymm scf=(qc)
 -----------------------------------------

 -------------------
 Title Card Required
 -------------------
 Symbolic Z-matrix:
 Charge =  0 Multiplicity = 2

                          Input orientation:
 ---------------------------------------------------------------------
 Center     Atomic      Atomic             Coordinates (Angstroms)
 Number     Number       Type             X           Y           Z
 ---------------------------------------------------------------------
      1          1           0        0.000000    0.000000    0.000000
      2          1           0       -2.350000    0.000000    0.000000
      3          9           0        2.850000    0.000000    0.000000
 ---------------------------------------------------------------------

 SCF Done:  E(UB3LYP) =  -100.767970890     a.u. after   21 cycles

 Alpha  occ. eigenvalues --  -24.73583  -1.19674  -0.52698  -0.44249  -0.44249
 Alpha  occ. eigenvalues --   -0.33446
 Alpha virt. eigenvalues --   -0.11270   0.25331   0.33062   0.90055   0.92582
 Alpha virt. eigenvalues --    0.92582   1.04910   1.24283   1.24283   1.25876
 Alpha virt. eigenvalues --    1.38466   1.38466   1.41909   2.14407   2.35248

  Beta  occ. eigenvalues --  -24.70594  -1.11117  -0.41259  -0.41259  -0.34170
  Beta virt. eigenvalues --   -0.24512  -0.09949   0.25838   0.34169   0.94029
  Beta virt. eigenvalues --    0.94029   0.98591   1.08759   1.23412   1.23412
  Beta virt. eigenvalues --    1.25109   1.40622   1.40622   1.43774   2.15406

 Mulliken charges and spin densities:
               1          2
     1  H    0.037549  -0.900996
     2  H    0.009878   0.954204
     3  F   -0.047427   0.946791
 Sum of Mulliken charges =  -0.00000   1.00000

 Dipole moment (field-independent basis, Debye):
    X=             -0.8036    Y=             -0.0000    Z=             -0.0000  Tot=              0.8036
 Quadrupole moment (field-independent basis, Debye-Ang):
   XX=             -8.0715   YY=             -7.6576   ZZ=             -7.6576
   XY=             -0.0000   XZ=             -0.0000   YZ=             -0.0000

  Exact polarizability:      49.269      -0.000       2.010      -0.000      -0.000       2.010
 Approx polarizability:      45.912      -0.000       1.920      -0.000       0.000       1.920

 ******    2 imaginary frequencies (negative Signs) ******

                      1                      2                      3
                      A                      A                      A
 Frequencies --   -867.0612              -277.0182               330.8522
 Red. masses --      1.0096                 1.1064                 1.0158
 Frc consts  --      0.4472                 0.0500                 0.0655
 IR Inten    --     28.4044                28.0465                 1.0169

                      4
                      A
 Frequencies --    330.8522
 Red. masses --      1.0158
 Frc consts  --      0.0655
 IR Inten    --      1.0169

 - Thermochemistry -
 -------------------
 Temperature   298.150 Kelvin.  Pressure   1.00000 Atm.
 Atom     1 has atomic number  1 and mass   1.00783

 Molecular mass:    21.01405 amu.
 Principal axes and moments of inertia in atomic units:
                           1         2         3
     Eigenvalues --     0.00000 115.36478 115.36478
           X            1.00000  -0.00000   0.00000
           Y            0.00000   1.00000   0.00000
           Z            0.00000   0.00000   1.00000
 This molecule is a prolate symmetric top.
 Rotational symmetry number  1.
 Rotational temperature (Kelvin)      0.75078
 Rotational constant (GHZ):          15.643780
    2 imaginary frequencies ignored.
 Zero-point vibrational energy       3957.9 (Joules/Mol)
                                    0.94595 (Kcal/Mol)
 Warning -- explicit consideration of   2 degrees of freedom as
           vibrations may cause significant error
 Vibrational temperatures:    476.02   476.02
          (Kelvin)

 Zero-point correction=                           0.001507 (Hartree/Particle)
 Thermal correction to Energy=                    0.004634
 Thermal correction to Enthalpy=                  0.005578
 Thermal correction to Gibbs Free Energy=        -0.019526
 Sum of electronic and zero-point Energies=           -100.766463
 Sum of electronic and thermal Energies=              -100.763337
 Sum of electronic and thermal Enthalpies=            -100.762393
 Sum of electronic and thermal Free Energies=         -100.787497

                     E (Thermal)             CV                S
                      KCal/Mol        Cal/Mol-Kelvin    Cal/Mol-Kelvin
 Total                    2.908              8.196             52.836
 Electronic               0.000              0.000              1.377
 Translational            0.889              2.981             35.068
 Rotational               0.592              1.987             13.879
 Vibrational              1.427              3.228              2.512
 Vibration     1          0.713              1.614              1.256
 Vibration     2          0.713              1.614              1.256

 Normal termination of Gaussian 16 at Fri Aug 22 18:53:43 2025.
