 Gaussian 16, Revision C.01,
 Gaussian 16:  ES64L-G16RevC.01  3-Jul-2019

 -----------------------------------------
 # sp b3lyp/6-311g** Force nosymm scf=(qc)
 -----------------------------------------

 -------------------
 Title Card Required
 -------------------
 Symbolic Z-matrix:
 Charge =  0 Multiplicity = 2

                          Input orientation:
 ---------------------------------------------------------------------
 Center     Atomic      Atomic             Coordinates (Angstroms)
 Number     Number       Type             X           Y           Z
 ---------------------------------------------------------------------
      1          1           0        0.000000    0.000000    0.000000
      2          1           0       -1.500000    0.000000    0.000000
      3          9           0        2.800000    0.000000    0.000000
 ---------------------------------------------------------------------

 SCF Done:  E(UB3LYP) =  -100.821418210     a.u. after   22 cycles

 Alpha  occ. eigenvalues --  -24.74780  -1.20795  -0.53929  -0.45276  -0.45276
 Alpha  occ. eigenvalues --   -0.34960
 Alpha virt. eigenvalues --   -0.10427   0.24200   0.30479   0.89872   0.91790
 Alpha virt. eigenvalues --    0.91790   1.04810   1.07796   1.19040   1.19040
 Alpha virt. eigenvalues --    1.40500   1.40500   1.81073   2.21162   2.46907

  Beta  occ. eigenvalues --  -24.71730  -1.12047  -0.42222  -0.42222  -0.34673
  Beta virt. eigenvalues --   -0.25494  -0.10017   0.24748   0.30774   0.93249
  Beta virt. eigenvalues --    0.93249   0.98142   1.06579   1.10775   1.19360
  Beta virt. eigenvalues --    1.19360   1.40777   1.40777   1.81518   2.21867

 Mulliken charges and spin densities:
               1          2
     1  H    0.002924  -0.264845
     2  H    0.024614   0.298798
     3  F   -0.027538   0.966046
 Sum of Mulliken charges =   0.00000   1.00000

 Dipole moment (field-independent basis, Debye):
    X=             -0.5673    Y=             -0.0000    Z=              0.0000  Tot=              0.5673
 Quadrupole moment (field-independent basis, Debye-Ang):
   XX=             -6.3514   YY=             -7.7115   ZZ=             -7.7115
   XY=             -0.0000   XZ=             -0.0000   YZ=              0.0000

  Exact polarizability:      54.436      -0.000       2.063      -0.000      -0.000       2.063
 Approx polarizability:      71.741      -0.000       2.030      -0.000       0.000       2.030

 ******    2 imaginary frequencies (negative Signs) ******

                      1                      2                      3
                      A                      A                      A
 Frequencies --  -2029.8311              -219.6409              1170.1192
 Red. masses --      1.0081                 1.1082                 1.0122
 Frc consts  --      2.4471                 0.0315                 0.8165
 IR Inten    --    442.0078                20.9049                 0.0148

                      4
                      A
 Frequencies --   1170.1192
 Red. masses --      1.0122
 Frc consts  --      0.8165
 IR Inten    --      0.0148

 - Thermochemistry -
 -------------------
 Temperature   298.150 Kelvin.  Pressure   1.00000 Atm.
 Atom     1 has atomic number  1 and mass   1.00783

 Molecular mass:    21.01405 amu.
 Principal axes and moments of inertia in atomic units:
                           1         2         3
     Eigenvalues --     0.00000  86.06078  86.06078
           X            1.00000  -0.00000   0.00000
           Y            0.00000   1.00000   0.00000
           Z            0.00000   0.00000   1.00000
 This molecule is a prolate symmetric top.
 Rotational symmetry number  1.
 Rotational temperature (Kelvin)      1.00643
 Rotational constant (GHZ):          20.970542
    2 imaginary frequencies ignored.
 Zero-point vibrational energy      13997.7 (Joules/Mol)
                                    3.34554 (Kcal/Mol)
 Vibrational temperatures:   1683.54  1683.54
          (Kelvin)

 Zero-point correction=                           0.005331 (Hartree/Particle)
 Thermal correction to Energy=                    0.007730
 Thermal correction to Enthalpy=                  0.008674
 Thermal correction to Gibbs Free Energy=        -0.015005
 Sum of electronic and zero-point Energies=           -100.816087
 Sum of electronic and thermal Energies=              -100.813689
 Sum of electronic and thermal Enthalpies=            -100.812744
 Sum of electronic and thermal Free Energies=         -100.836423

                     E (Thermal)             CV                S
                      KCal/Mol        Cal/Mol-Kelvin    Cal/Mol-Kelvin
 Total                    4.850              5.418             49.836
 Electronic               0.000              0.000              1.377
 Translational            0.889              2.981             35.068
 Rotational               0.592              1.987             13.297
 Vibrational              3.369              0.450              0.094

 Normal termination of Gaussian 16 at Fri Aug 22 18:42:20 2025.
