 Gaussian 16, Revision C.01,
 Gaussian 16:  ES64L-G16RevC.01  3-Jul-2019

 -----------------------------------------
 # sp b3lyp/6-311g** Force nosymm scf=(qc)
 -----------------------------------------

 -------------------
 Title Card Required
 -------------------
 Symbolic Z-matrix:
 Charge =  0 Multiplicity = 2

                          Input orientation:
 ---------------------------------------------------------------------
 Center     Atomic      Atomic             Coordinates (Angstroms)
 Number     Number       Type             X           Y           Z
 ---------------------------------------------------------------------
      1          1           0        0.000000    0.000000    0.000000
      2          1           0       -3.900000    0.000000    0.000000
      3          9           0        2.000000    0.000000    0.000000
 ---------------------------------------------------------------------

 SCF Done:  E(UB3LYP) =  -100.787084046     a.u. after   19 cycles

 Alpha  occ. eigenvalues --  -24.68250  -1.14568  -0.47227  -0.39780  -0.39780
 Alpha  occ. eigenvalues --   -0.33197
 Alpha virt. eigenvalues --   -0.13761   0.22448   0.31443   0.88848   0.94840
 Alpha virt. eigenvalues --    0.94840   1.05609   1.24302   1.24307   1.24307
 Alpha virt. eigenvalues --    1.35461   1.35461   1.60478   2.13647   2.29507

  Beta  occ. eigenvalues --  -24.65878  -1.07939  -0.37948  -0.37443  -0.37443
  Beta virt. eigenvalues --   -0.20747  -0.06342   0.22392   0.38040   0.90154
  Beta virt. eigenvalues --    0.95474   0.95474   1.08066   1.21940   1.21940
  Beta virt. eigenvalues --    1.46258   1.46519   1.46519   1.53301   2.11470

 Mulliken charges and spin densities:
               1          2
     1  H    0.193211  -0.744984
     2  H    0.000580   0.999150
     3  F   -0.193791   0.745834
 Sum of Mulliken charges =   0.00000   1.00000

 Dipole moment (field-independent basis, Debye):
    X=             -1.9254    Y=              0.0000    Z=              0.0000  Tot=              1.9254
 Quadrupole moment (field-independent basis, Debye-Ang):
   XX=            -10.0963   YY=             -7.4858   ZZ=             -7.4858
   XY=              0.0000   XZ=              0.0000   YZ=              0.0000

  Exact polarizability:      24.873      -0.000       2.062       0.000       0.000       2.062
 Approx polarizability:      36.618      -0.000       1.947      -0.000      -0.000       1.947

 ******    2 imaginary frequencies (negative Signs) ******

                      1                      2                      3
                      A                      A                      A
 Frequencies --  -1127.8075               -73.9442               482.0176
 Red. masses --      1.0578                 1.0537                 1.0276
 Frc consts  --      0.7927                 0.0034                 0.1407
 IR Inten    --    122.9545                 0.0467                35.6467

                      4
                      A
 Frequencies --    482.0176
 Red. masses --      1.0276
 Frc consts  --      0.1407
 IR Inten    --     35.6467

 - Thermochemistry -
 -------------------
 Temperature   298.150 Kelvin.  Pressure   1.00000 Atm.
 Atom     1 has atomic number  1 and mass   1.00783

 Molecular mass:    21.01405 amu.
 Principal axes and moments of inertia in atomic units:
                           1         2         3
     Eigenvalues --     0.00000 128.90512 128.90512
           X            1.00000  -0.00000   0.00000
           Y            0.00000   1.00000   0.00000
           Z            0.00000   0.00000   1.00000
 This molecule is a prolate symmetric top.
 Rotational symmetry number  1.
 Rotational temperature (Kelvin)      0.67192
 Rotational constant (GHZ):          14.000539
    2 imaginary frequencies ignored.
 Zero-point vibrational energy       5766.2 (Joules/Mol)
                                    1.37816 (Kcal/Mol)
 Warning -- explicit consideration of   2 degrees of freedom as
           vibrations may cause significant error
 Vibrational temperatures:    693.52   693.52
          (Kelvin)

 Zero-point correction=                           0.002196 (Hartree/Particle)
 Thermal correction to Energy=                    0.005032
 Thermal correction to Enthalpy=                  0.005976
 Thermal correction to Gibbs Free Energy=        -0.018709
 Sum of electronic and zero-point Energies=           -100.784888
 Sum of electronic and thermal Energies=              -100.782052
 Sum of electronic and thermal Enthalpies=            -100.781108
 Sum of electronic and thermal Free Energies=         -100.805793

                     E (Thermal)             CV                S
                      KCal/Mol        Cal/Mol-Kelvin    Cal/Mol-Kelvin
 Total                    3.158              7.548             51.954
 Electronic               0.000              0.000              1.377
 Translational            0.889              2.981             35.068
 Rotational               0.592              1.987             14.100
 Vibrational              1.677              2.580              1.409
 Vibration     1          0.838              1.290              0.705
 Vibration     2          0.838              1.290              0.705

 Normal termination of Gaussian 16 at Fri Aug 22 16:58:09 2025.
