 Gaussian 16, Revision C.01,
 Gaussian 16:  ES64L-G16RevC.01  3-Jul-2019

 -----------------------------------------
 # sp b3lyp/6-311g** Force nosymm scf=(qc)
 -----------------------------------------

 -------------------
 Title Card Required
 -------------------
 Symbolic Z-matrix:
 Charge =  0 Multiplicity = 2

                          Input orientation:
 ---------------------------------------------------------------------
 Center     Atomic      Atomic             Coordinates (Angstroms)
 Number     Number       Type             X           Y           Z
 ---------------------------------------------------------------------
      1          1           0        0.000000    0.000000    0.000000
      2          1           0       -2.800000    0.000000    0.000000
      3          9           0        2.700000    0.000000    0.000000
 ---------------------------------------------------------------------

 SCF Done:  E(UB3LYP) =  -100.765601861     a.u. after   20 cycles

 Alpha  occ. eigenvalues --  -24.72837  -1.18982  -0.51949  -0.43627  -0.43627
 Alpha  occ. eigenvalues --   -0.33132
 Alpha virt. eigenvalues --   -0.10481   0.24683   0.34179   0.90159   0.93013
 Alpha virt. eigenvalues --    0.93013   1.05752   1.24437   1.24437   1.25916
 Alpha virt. eigenvalues --    1.40422   1.40422   1.42245   2.15381   2.36460

  Beta  occ. eigenvalues --  -24.69903  -1.10601  -0.40696  -0.40696  -0.34622
  Beta virt. eigenvalues --   -0.24047  -0.08359   0.25150   0.35945   0.94437
  Beta virt. eigenvalues --    0.94437   0.98153   1.09114   1.22783   1.22783
  Beta virt. eigenvalues --    1.26117   1.43642   1.43642   1.44055   2.15306

 Mulliken charges and spin densities:
               1          2
     1  H    0.059853  -0.915892
     2  H    0.004117   0.987387
     3  F   -0.063970   0.928505
 Sum of Mulliken charges =   0.00000   1.00000

 Dipole moment (field-independent basis, Debye):
    X=             -0.9387    Y=              0.0000    Z=             -0.0000  Tot=              0.9387
 Quadrupole moment (field-independent basis, Debye-Ang):
   XX=             -8.6967   YY=             -7.6121   ZZ=             -7.6121
   XY=              0.0000   XZ=             -0.0000   YZ=             -0.0000

  Exact polarizability:      38.127       0.000       2.018      -0.000      -0.000       2.018
 Approx polarizability:      41.128       0.000       1.919      -0.000       0.000       1.919

 ******    2 imaginary frequencies (negative Signs) ******

                      1                      2                      3
                      A                      A                      A
 Frequencies --   -598.8238              -248.4021               229.6523
 Red. masses --      1.0280                 1.0851                 1.0184
 Frc consts  --      0.2172                 0.0394                 0.0316
 IR Inten    --     53.0249                 9.7265                 3.1460

                      4
                      A
 Frequencies --    229.6523
 Red. masses --      1.0184
 Frc consts  --      0.0316
 IR Inten    --      3.1460

 - Thermochemistry -
 -------------------
 Temperature   298.150 Kelvin.  Pressure   1.00000 Atm.
 Atom     1 has atomic number  1 and mass   1.00783

 Molecular mass:    21.01405 amu.
 Principal axes and moments of inertia in atomic units:
                           1         2         3
     Eigenvalues --     0.00000 123.50069 123.50069
           X            1.00000  -0.00000   0.00000
           Y            0.00000   1.00000   0.00000
           Z            0.00000   0.00000   1.00000
 This molecule is a prolate symmetric top.
 Rotational symmetry number  1.
 Rotational temperature (Kelvin)      0.70132
 Rotational constant (GHZ):          14.613207
    2 imaginary frequencies ignored.
 Zero-point vibrational energy       2747.3 (Joules/Mol)
                                    0.65661 (Kcal/Mol)
 Warning -- explicit consideration of   2 degrees of freedom as
           vibrations may cause significant error
 Vibrational temperatures:    330.42   330.42
          (Kelvin)

 Zero-point correction=                           0.001046 (Hartree/Particle)
 Thermal correction to Energy=                    0.004438
 Thermal correction to Enthalpy=                  0.005382
 Thermal correction to Gibbs Free Energy=        -0.020381
 Sum of electronic and zero-point Energies=           -100.764555
 Sum of electronic and thermal Energies=              -100.761164
 Sum of electronic and thermal Enthalpies=            -100.760219
 Sum of electronic and thermal Free Energies=         -100.785983

                     E (Thermal)             CV                S
                      KCal/Mol        Cal/Mol-Kelvin    Cal/Mol-Kelvin
 Total                    2.785              8.559             54.223
 Electronic               0.000              0.000              1.377
 Translational            0.889              2.981             35.068
 Rotational               0.592              1.987             14.015
 Vibrational              1.304              3.591              3.763
 Vibration     1          0.652              1.796              1.882
 Vibration     2          0.652              1.796              1.882

 Normal termination of Gaussian 16 at Fri Aug 22 18:26:13 2025.
