 Gaussian 16, Revision C.01,
 Gaussian 16:  ES64L-G16RevC.01  3-Jul-2019

 -----------------------------------------
 # sp b3lyp/6-311g** Force nosymm scf=(qc)
 -----------------------------------------

 -------------------
 Title Card Required
 -------------------
 Symbolic Z-matrix:
 Charge =  0 Multiplicity = 2

                          Input orientation:
 ---------------------------------------------------------------------
 Center     Atomic      Atomic             Coordinates (Angstroms)
 Number     Number       Type             X           Y           Z
 ---------------------------------------------------------------------
      1          1           0        0.000000    0.000000    0.000000
      2          1           0       -2.100000    0.000000    0.000000
      3          9           0        2.750000    0.000000    0.000000
 ---------------------------------------------------------------------

 SCF Done:  E(UB3LYP) =  -100.774687590     a.u. after   20 cycles

 Alpha  occ. eigenvalues --  -24.73209  -1.19323  -0.52322  -0.43932  -0.43932
 Alpha  occ. eigenvalues --   -0.34025
 Alpha virt. eigenvalues --   -0.12096   0.25244   0.32277   0.90304   0.92805
 Alpha virt. eigenvalues --    0.92805   1.05480   1.21165   1.23884   1.23884
 Alpha virt. eigenvalues --    1.36547   1.36547   1.46060   2.12259   2.35167

  Beta  occ. eigenvalues --  -24.70249  -1.10859  -0.40973  -0.40973  -0.34422
  Beta virt. eigenvalues --   -0.24333  -0.11042   0.26214   0.32803   0.94240
  Beta virt. eigenvalues --    0.94240   0.98556   1.09156   1.21472   1.23401
  Beta virt. eigenvalues --    1.23401   1.38269   1.38269   1.47263   2.13326

 Mulliken charges and spin densities:
               1          2
     1  H    0.036963  -0.838396
     2  H    0.018419   0.901304
     3  F   -0.055382   0.937091
 Sum of Mulliken charges =  -0.00000   1.00000

 Dipole moment (field-independent basis, Debye):
    X=             -0.9644    Y=             -0.0000    Z=             -0.0000  Tot=              0.9644
 Quadrupole moment (field-independent basis, Debye-Ang):
   XX=             -7.9232   YY=             -7.6784   ZZ=             -7.6784
   XY=              0.0000   XZ=             -0.0000   YZ=              0.0000

  Exact polarizability:      57.709       0.000       2.005      -0.000       0.000       2.005
 Approx polarizability:      55.865       0.000       1.924      -0.000      -0.000       1.924

 ******    2 imaginary frequencies (negative Signs) ******

                      1                      2                      3
                      A                      A                      A
 Frequencies --  -1210.1507              -311.4227               477.0263
 Red. masses --      1.0086                 1.1076                 1.0150
 Frc consts  --      0.8703                 0.0633                 0.1361
 IR Inten    --     42.9237                39.2438                 0.7658

                      4
                      A
 Frequencies --    477.0263
 Red. masses --      1.0150
 Frc consts  --      0.1361
 IR Inten    --      0.7658

 - Thermochemistry -
 -------------------
 Temperature   298.150 Kelvin.  Pressure   1.00000 Atm.
 Atom     1 has atomic number  1 and mass   1.00783

 Molecular mass:    21.01405 amu.
 Principal axes and moments of inertia in atomic units:
                           1         2         3
     Eigenvalues --     0.00000 101.90541 101.90541
           X            1.00000  -0.00000   0.00000
           Y            0.00000   1.00000   0.00000
           Z            0.00000   0.00000   1.00000
 This molecule is a prolate symmetric top.
 Rotational symmetry number  1.
 Rotational temperature (Kelvin)      0.84994
 Rotational constant (GHZ):          17.709965
    2 imaginary frequencies ignored.
 Zero-point vibrational energy       5706.5 (Joules/Mol)
                                    1.36389 (Kcal/Mol)
 Warning -- explicit consideration of   2 degrees of freedom as
           vibrations may cause significant error
 Vibrational temperatures:    686.33   686.33
          (Kelvin)

 Zero-point correction=                           0.002173 (Hartree/Particle)
 Thermal correction to Energy=                    0.005017
 Thermal correction to Enthalpy=                  0.005961
 Thermal correction to Gibbs Free Energy=        -0.018515
 Sum of electronic and zero-point Energies=           -100.772514
 Sum of electronic and thermal Energies=              -100.769670
 Sum of electronic and thermal Enthalpies=            -100.768726
 Sum of electronic and thermal Free Energies=         -100.793202

                     E (Thermal)             CV                S
                      KCal/Mol        Cal/Mol-Kelvin    Cal/Mol-Kelvin
 Total                    3.148              7.570             51.514
 Electronic               0.000              0.000              1.377
 Translational            0.889              2.981             35.068
 Rotational               0.592              1.987             13.633
 Vibrational              1.667              2.602              1.436
 Vibration     1          0.834              1.301              0.718
 Vibration     2          0.834              1.301              0.718

 Normal termination of Gaussian 16 at Fri Aug 22 18:33:43 2025.
