 Gaussian 16, Revision C.01,
 Gaussian 16:  ES64L-G16RevC.01  3-Jul-2019

 -----------------------------------------
 # sp b3lyp/6-311g** Force nosymm scf=(qc)
 -----------------------------------------

 -------------------
 Title Card Required
 -------------------
 Symbolic Z-matrix:
 Charge =  0 Multiplicity = 2

                          Input orientation:
 ---------------------------------------------------------------------
 Center     Atomic      Atomic             Coordinates (Angstroms)
 Number     Number       Type             X           Y           Z
 ---------------------------------------------------------------------
      1          1           0        0.000000    0.000000    0.000000
      2          1           0       -2.000000    0.000000    0.000000
      3          9           0        3.550000    0.000000    0.000000
 ---------------------------------------------------------------------

 SCF Done:  E(UB3LYP) =  -100.774530521     a.u. after   34 cycles

 Alpha  occ. eigenvalues --  -24.75656  -1.21600  -0.54780  -0.45999  -0.45999
 Alpha  occ. eigenvalues --   -0.33071
 Alpha virt. eigenvalues --   -0.10973   0.25893   0.32276   0.87433   0.91297
 Alpha virt. eigenvalues --    0.91297   1.01593   1.17123   1.24907   1.24907
 Alpha virt. eigenvalues --    1.37897   1.37897   1.51198   2.13165   2.36515

  Beta  occ. eigenvalues --  -24.72530  -1.12615  -0.42865  -0.42865  -0.33142
  Beta virt. eigenvalues --   -0.25670  -0.10749   0.25778   0.32685   0.92790
  Beta virt. eigenvalues --    0.92790   0.96641   1.05658   1.17106   1.24817
  Beta virt. eigenvalues --    1.24817   1.38204   1.38204   1.51421   2.13662

 Mulliken charges and spin densities:
               1          2
     1  H    0.002152  -0.848579
     2  H    0.005396   0.857396
     3  F   -0.007548   0.991183
 Sum of Mulliken charges =   0.00000   1.00000

 Dipole moment (field-independent basis, Debye):
    X=             -0.1883    Y=              0.0000    Z=              0.0000  Tot=              0.1883
 Quadrupole moment (field-independent basis, Debye-Ang):
   XX=             -6.5473   YY=             -7.7268   ZZ=             -7.7268
   XY=              0.0000   XZ=              0.0000   YZ=             -0.0000

  Exact polarizability:      41.340       0.000       2.004      -0.000       0.000       2.004
 Approx polarizability:      36.504       0.000       1.938       0.000       0.000       1.938

 ******    2 imaginary frequencies (negative Signs) ******

                      1                      2                      3
                      A                      A                      A
 Frequencies --  -1355.3159              -127.8036               552.0682
 Red. masses --      1.0078                 1.1085                 1.0125
 Frc consts  --      1.0907                 0.0107                 0.1818
 IR Inten    --      7.9433                 5.4398                 0.0000

                      4
                      A
 Frequencies --    552.0682
 Red. masses --      1.0125
 Frc consts  --      0.1818
 IR Inten    --      0.0000

 - Thermochemistry -
 -------------------
 Temperature   298.150 Kelvin.  Pressure   1.00000 Atm.
 Atom     1 has atomic number  1 and mass   1.00783

 Molecular mass:    21.01405 amu.
 Principal axes and moments of inertia in atomic units:
                           1         2         3
     Eigenvalues --     0.00000 141.92139 141.92139
           X            1.00000  -0.00000   0.00000
           Y            0.00000   1.00000   0.00000
           Z            0.00000   0.00000   1.00000
 This molecule is a prolate symmetric top.
 Rotational symmetry number  1.
 Rotational temperature (Kelvin)      0.61030
 Rotational constant (GHZ):          12.716485
    2 imaginary frequencies ignored.
 Zero-point vibrational energy       6604.2 (Joules/Mol)
                                    1.57844 (Kcal/Mol)
 Warning -- explicit consideration of   2 degrees of freedom as
           vibrations may cause significant error
 Vibrational temperatures:    794.30   794.30
          (Kelvin)

 Zero-point correction=                           0.002515 (Hartree/Particle)
 Thermal correction to Energy=                    0.005253
 Thermal correction to Enthalpy=                  0.006197
 Thermal correction to Gibbs Free Energy=        -0.018423
 Sum of electronic and zero-point Energies=           -100.772015
 Sum of electronic and thermal Energies=              -100.769278
 Sum of electronic and thermal Enthalpies=            -100.768334
 Sum of electronic and thermal Free Energies=         -100.792953

                     E (Thermal)             CV                S
                      KCal/Mol        Cal/Mol-Kelvin    Cal/Mol-Kelvin
 Total                    3.296              7.238             51.816
 Electronic               0.000              0.000              1.377
 Translational            0.889              2.981             35.068
 Rotational               0.592              1.987             14.291
 Vibrational              1.815              2.270              1.080
 Vibration     1          0.907              1.135              0.540
 Vibration     2          0.907              1.135              0.540

 Normal termination of Gaussian 16 at Fri Aug 22 22:38:59 2025.
