 Gaussian 16, Revision C.01,
 Gaussian 16:  ES64L-G16RevC.01  3-Jul-2019

 -----------------------------------------
 # sp b3lyp/6-311g** Force nosymm scf=(qc)
 -----------------------------------------

 -------------------
 Title Card Required
 -------------------
 Symbolic Z-matrix:
 Charge =  0 Multiplicity = 2

                          Input orientation:
 ---------------------------------------------------------------------
 Center     Atomic      Atomic             Coordinates (Angstroms)
 Number     Number       Type             X           Y           Z
 ---------------------------------------------------------------------
      1          1           0        0.000000    0.000000    0.000000
      2          1           0       -3.500000    0.000000    0.000000
      3          9           0        3.150000    0.000000    0.000000
 ---------------------------------------------------------------------

 SCF Done:  E(UB3LYP) =  -100.760224618     a.u. after   22 cycles

 Alpha  occ. eigenvalues --  -24.74575  -1.20599  -0.53696  -0.45085  -0.45085
 Alpha  occ. eigenvalues --   -0.32467
 Alpha virt. eigenvalues --   -0.07709   0.24125   0.36338   0.88850   0.91979
 Alpha virt. eigenvalues --    0.91979   1.03107   1.25038   1.25038   1.25195
 Alpha virt. eigenvalues --    1.44435   1.44435   1.44665   2.14892   2.40694

  Beta  occ. eigenvalues --  -24.71514  -1.11818  -0.42020  -0.42020  -0.33395
  Beta virt. eigenvalues --   -0.25049  -0.06537   0.23966   0.37885   0.93452
  Beta virt. eigenvalues --    0.93452   0.97713   1.06947   1.23967   1.23967
  Beta virt. eigenvalues --    1.24197   1.45843   1.46093   1.46093   2.15193

 Mulliken charges and spin densities:
               1          2
     1  H    0.026841  -0.968113
     2  H    0.000351   0.997923
     3  F   -0.027192   0.970190
 Sum of Mulliken charges =  -0.00000   1.00000

 Dipole moment (field-independent basis, Debye):
    X=             -0.4460    Y=             -0.0000    Z=             -0.0000  Tot=              0.4460
 Quadrupole moment (field-independent basis, Debye-Ang):
   XX=             -8.0053   YY=             -7.6150   ZZ=             -7.6150
   XY=             -0.0000   XZ=             -0.0000   YZ=             -0.0000

  Exact polarizability:      30.563      -0.000       2.028      -0.000      -0.000       2.028
 Approx polarizability:      28.695      -0.000       1.929      -0.000       0.000       1.929

 ******    2 imaginary frequencies (negative Signs) ******

                      1                      2                      3
                      A                      A                      A
 Frequencies --   -326.8407              -115.0023               112.6522
 Red. masses --      1.0419                 1.0700                 1.0193
 Frc consts  --      0.0656                 0.0083                 0.0076
 IR Inten    --     28.9352                 0.8921                 0.6661

                      4
                      A
 Frequencies --    112.6522
 Red. masses --      1.0193
 Frc consts  --      0.0076
 IR Inten    --      0.6661

 - Thermochemistry -
 -------------------
 Temperature   298.150 Kelvin.  Pressure   1.00000 Atm.
 Atom     1 has atomic number  1 and mass   1.00783

 Molecular mass:    21.01405 amu.
 Principal axes and moments of inertia in atomic units:
                           1         2         3
     Eigenvalues --     0.00000 178.29115 178.29115
           X            1.00000  -0.00000   0.00000
           Y            0.00000   1.00000   0.00000
           Z            0.00000   0.00000   1.00000
 This molecule is a prolate symmetric top.
 Rotational symmetry number  1.
 Rotational temperature (Kelvin)      0.48580
 Rotational constant (GHZ):          10.122439
    2 imaginary frequencies ignored.
 Zero-point vibrational energy       1347.6 (Joules/Mol)
                                    0.32209 (Kcal/Mol)
 Warning -- explicit consideration of   2 degrees of freedom as
           vibrations may cause significant error
 Vibrational temperatures:    162.08   162.08
          (Kelvin)

 Zero-point correction=                           0.000513 (Hartree/Particle)
 Thermal correction to Energy=                    0.004295
 Thermal correction to Enthalpy=                  0.005239
 Thermal correction to Gibbs Free Energy=        -0.022145
 Sum of electronic and zero-point Energies=           -100.759711
 Sum of electronic and thermal Energies=              -100.755930
 Sum of electronic and thermal Enthalpies=            -100.754985
 Sum of electronic and thermal Free Energies=         -100.782370

                     E (Thermal)             CV                S
                      KCal/Mol        Cal/Mol-Kelvin    Cal/Mol-Kelvin
 Total                    2.695              8.846             57.635
 Electronic               0.000              0.000              1.377
 Translational            0.889              2.981             35.068
 Rotational               0.592              1.987             14.744
 Vibrational              1.214              3.878              6.445
 Vibration     1          0.607              1.939              3.223
 Vibration     2          0.607              1.939              3.223

 Normal termination of Gaussian 16 at Fri Aug 22 20:11:47 2025.
