 Gaussian 16, Revision C.01,
 Gaussian 16:  ES64L-G16RevC.01  3-Jul-2019

 -----------------------------------------
 # sp b3lyp/6-311g** Force nosymm scf=(qc)
 -----------------------------------------

 -------------------
 Title Card Required
 -------------------
 Symbolic Z-matrix:
 Charge =  0 Multiplicity = 2

                          Input orientation:
 ---------------------------------------------------------------------
 Center     Atomic      Atomic             Coordinates (Angstroms)
 Number     Number       Type             X           Y           Z
 ---------------------------------------------------------------------
      1          1           0        0.000000    0.000000    0.000000
      2          1           0       -2.250000    0.000000    0.000000
      3          9           0        1.250000    0.000000    0.000000
 ---------------------------------------------------------------------

 SCF Done:  E(UB3LYP) =  -100.914949121     a.u. after    6 cycles

 Alpha  occ. eigenvalues --  -24.63954  -1.11373  -0.46860  -0.36951  -0.36951
 Alpha  occ. eigenvalues --   -0.36012
 Alpha virt. eigenvalues --   -0.05809   0.24285   0.27884   0.93389   0.93389
 Alpha virt. eigenvalues --    1.01611   1.16641   1.21454   1.21454   1.34704
 Alpha virt. eigenvalues --    1.34704   1.35435   1.72152   2.11934   2.28521

  Beta  occ. eigenvalues --  -24.63850  -1.11107  -0.46386  -0.36855  -0.36855
  Beta virt. eigenvalues --   -0.13444  -0.02592   0.27776   0.35271   0.93380
  Beta virt. eigenvalues --    0.93380   1.01875   1.23264   1.34383   1.34383
  Beta virt. eigenvalues --    1.41602   1.41602   1.47922   1.72336   2.25886

 Mulliken charges and spin densities:
               1          2
     1  H    0.342812  -0.007160
     2  H    0.018869   0.975454
     3  F   -0.361682   0.031705
 Sum of Mulliken charges =  -0.00000   1.00000

 Dipole moment (field-independent basis, Debye):
    X=             -2.5674    Y=             -0.0000    Z=             -0.0000  Tot=              2.5674
 Quadrupole moment (field-independent basis, Debye-Ang):
   XX=             -8.5263   YY=             -7.1491   ZZ=             -7.1491
   XY=              0.0000   XZ=             -0.0000   YZ=             -0.0000

  Exact polarizability:      15.476       0.000       2.337      -0.000       0.000       2.337
 Approx polarizability:      20.091      -0.000       2.292      -0.000       0.000       2.292

 ******    1 imaginary frequencies (negative Signs) ******

                      1                      2                      3
                      A                      A                      A
 Frequencies --   -480.9999               278.2620              1154.1608
 Red. masses --      1.0084                 1.1078                 1.0264
 Frc consts  --      0.1375                 0.0505                 0.8055
 IR Inten    --    125.8502                46.4445               115.7157

                      4
                      A
 Frequencies --   1154.1608
 Red. masses --      1.0264
 Frc consts  --      0.8055
 IR Inten    --    115.7157

 - Thermochemistry -
 -------------------
 Temperature   298.150 Kelvin.  Pressure   1.00000 Atm.
 Atom     1 has atomic number  1 and mass   1.00783

 Molecular mass:    21.01405 amu.
 Principal axes and moments of inertia in atomic units:
                           1         2         3
     Eigenvalues --     0.00000  45.81686  45.81686
           X            1.00000  -0.00000   0.00000
           Y            0.00000   1.00000   0.00000
           Z            0.00000   0.00000   1.00000
 This molecule is a prolate symmetric top.
 Rotational symmetry number  1.
 Rotational temperature (Kelvin)      1.89044
 Rotational constant (GHZ):          39.390328
    1 imaginary frequencies ignored.
 Zero-point vibrational energy      15471.2 (Joules/Mol)
                                    3.69771 (Kcal/Mol)
 Warning -- explicit consideration of   1 degrees of freedom as
           vibrations may cause significant error
 Vibrational temperatures:    400.36  1660.58  1660.58
          (Kelvin)

 Zero-point correction=                           0.005893 (Hartree/Particle)
 Thermal correction to Energy=                    0.008741
 Thermal correction to Enthalpy=                  0.009686
 Thermal correction to Gibbs Free Energy=        -0.014135
 Sum of electronic and zero-point Energies=           -100.909056
 Sum of electronic and thermal Energies=              -100.906208
 Sum of electronic and thermal Enthalpies=            -100.905264
 Sum of electronic and thermal Free Energies=         -100.929084

                     E (Thermal)             CV                S
                      KCal/Mol        Cal/Mol-Kelvin    Cal/Mol-Kelvin
 Total                    5.485              7.155             50.134
 Electronic               0.000              0.000              1.377
 Translational            0.889              2.981             35.068
 Rotational               0.592              1.987             12.044
 Vibrational              4.004              2.187              1.644
 Vibration     1          0.679              1.714              1.544

 Normal termination of Gaussian 16 at Fri Aug 22 16:12:46 2025.
