 Gaussian 16, Revision C.01,
 Gaussian 16:  ES64L-G16RevC.01  3-Jul-2019

 -----------------------------------------
 # sp b3lyp/6-311g** Force nosymm scf=(qc)
 -----------------------------------------

 -------------------
 Title Card Required
 -------------------
 Symbolic Z-matrix:
 Charge =  0 Multiplicity = 2

                          Input orientation:
 ---------------------------------------------------------------------
 Center     Atomic      Atomic             Coordinates (Angstroms)
 Number     Number       Type             X           Y           Z
 ---------------------------------------------------------------------
      1          1           0        0.000000    0.000000    0.000000
      2          1           0       -1.300000    0.000000    0.000000
      3          9           0        1.300000    0.000000    0.000000
 ---------------------------------------------------------------------

 SCF Done:  E(UB3LYP) =  -100.920146411     a.u. after    8 cycles

 Alpha  occ. eigenvalues --  -24.64527  -1.12365  -0.50482  -0.38206  -0.37458
 Alpha  occ. eigenvalues --   -0.37458
 Alpha virt. eigenvalues --    0.00708   0.19849   0.30430   0.92309   0.92309
 Alpha virt. eigenvalues --    1.01034   1.11318   1.11318   1.11886   1.47558
 Alpha virt. eigenvalues --    1.47558   1.56515   1.99974   2.26187   2.44526

  Beta  occ. eigenvalues --  -24.63377  -1.09371  -0.44858  -0.36382  -0.36382
  Beta virt. eigenvalues --   -0.21247   0.04071   0.22996   0.33017   0.92744
  Beta virt. eigenvalues --    0.92744   1.03732   1.17632   1.17954   1.17954
  Beta virt. eigenvalues --    1.50745   1.50745   1.59614   2.07578   2.29691

 Mulliken charges and spin densities:
               1          2
     1  H    0.271175  -0.101063
     2  H    0.063607   0.756619
     3  F   -0.334782   0.344444
 Sum of Mulliken charges =  -0.00000   1.00000

 Dipole moment (field-independent basis, Debye):
    X=             -2.6337    Y=             -0.0000    Z=             -0.0000  Tot=              2.6337
 Quadrupole moment (field-independent basis, Debye-Ang):
   XX=             -7.9363   YY=             -7.0202   ZZ=             -7.0202
   XY=             -0.0000   XZ=             -0.0000   YZ=             -0.0000

  Exact polarizability:      25.768      -0.000       2.436      -0.000       0.000       2.436
 Approx polarizability:      35.544      -0.000       2.407      -0.000       0.000       2.407

 ******    1 imaginary frequencies (negative Signs) ******

                      1                      2                      3
                      A                      A                      A
 Frequencies --  -2531.2954               521.6588              1129.0215
 Red. masses --      1.0224                 1.0914                 1.0179
 Frc consts  --      3.8597                 0.1750                 0.7645
 IR Inten    --    132.2052                31.9641                37.1934

                      4
                      A
 Frequencies --   1129.0215
 Red. masses --      1.0179
 Frc consts  --      0.7645
 IR Inten    --     37.1934

 - Thermochemistry -
 -------------------
 Temperature   298.150 Kelvin.  Pressure   1.00000 Atm.
 Atom     1 has atomic number  1 and mass   1.00783

 Molecular mass:    21.01405 amu.
 Principal axes and moments of inertia in atomic units:
                           1         2         3
     Eigenvalues --     0.00000  27.78627  27.78627
           X            1.00000  -0.00000   0.00000
           Y            0.00000   1.00000   0.00000
           Z            0.00000   0.00000   1.00000
 This molecule is a prolate symmetric top.
 Rotational symmetry number  1.
 Rotational temperature (Kelvin)      3.11715
 Rotational constant (GHZ):          64.950824
    1 imaginary frequencies ignored.
 Zero-point vibrational energy      16626.3 (Joules/Mol)
                                    3.97378 (Kcal/Mol)
 Warning -- explicit consideration of   1 degrees of freedom as
           vibrations may cause significant error
 Vibrational temperatures:    750.55  1624.41  1624.41
          (Kelvin)

 Zero-point correction=                           0.006333 (Hartree/Particle)
 Thermal correction to Energy=                    0.008946
 Thermal correction to Enthalpy=                  0.009890
 Thermal correction to Gibbs Free Energy=        -0.013017
 Sum of electronic and zero-point Energies=           -100.913814
 Sum of electronic and thermal Energies=              -100.911200
 Sum of electronic and thermal Enthalpies=            -100.910256
 Sum of electronic and thermal Free Energies=         -100.933163

                     E (Thermal)             CV                S
                      KCal/Mol        Cal/Mol-Kelvin    Cal/Mol-Kelvin
 Total                    5.614              6.682             48.212
 Electronic               0.000              0.000              1.377
 Translational            0.889              2.981             35.068
 Rotational               0.592              1.987             11.050
 Vibrational              4.133              1.714              0.717
 Vibration     1          0.877              1.202              0.606

 Normal termination of Gaussian 16 at Fri Aug 22 16:14:33 2025.
