 Gaussian 16, Revision C.01,
 Gaussian 16:  ES64L-G16RevC.01  3-Jul-2019

 -----------------------------------------
 # sp b3lyp/6-311g** Force nosymm scf=(qc)
 -----------------------------------------

 -------------------
 Title Card Required
 -------------------
 Symbolic Z-matrix:
 Charge =  0 Multiplicity = 2

                          Input orientation:
 ---------------------------------------------------------------------
 Center     Atomic      Atomic             Coordinates (Angstroms)
 Number     Number       Type             X           Y           Z
 ---------------------------------------------------------------------
      1          1           0        0.000000    0.000000    0.000000
      2          1           0       -1.250000    0.000000    0.000000
      3          9           0        3.850000    0.000000    0.000000
 ---------------------------------------------------------------------

 SCF Done:  E(UB3LYP) =  -100.862584495     a.u. after  243 cycles

 Alpha  occ. eigenvalues --  -24.76242  -1.22139  -0.55342  -0.46519  -0.46498
 Alpha  occ. eigenvalues --   -0.35800
 Alpha virt. eigenvalues --   -0.05151   0.23198   0.33433   0.86030   0.90908
 Alpha virt. eigenvalues --    0.91459   1.00938   1.14105   1.14107   1.18767
 Alpha virt. eigenvalues --    1.51859   1.51861   2.02764   2.30159   2.53639

  Beta  occ. eigenvalues --  -24.73086  -1.13065  -0.43356  -0.43334  -0.35799
  Beta virt. eigenvalues --   -0.25991  -0.05150   0.23201   0.33447   0.92408
  Beta virt. eigenvalues --    0.92952   0.95496   1.05083   1.14105   1.14107
  Beta virt. eigenvalues --    1.18770   1.51859   1.51861   2.02766   2.30160

 Mulliken charges and spin densities:
               1          2
     1  H    0.000915  -0.000059
     2  H   -0.002111  -0.000075
     3  F    0.001196   1.000133
 Sum of Mulliken charges =   0.00000   1.00000

 Dipole moment (field-independent basis, Debye):
    X=              0.0256    Y=             -0.0000    Z=              0.0000  Tot=              0.0256
 Quadrupole moment (field-independent basis, Debye-Ang):
   XX=             -6.3234   YY=             -7.5330   ZZ=             -6.6900
   XY=              0.0000   XZ=              0.0000   YZ=              0.0960

  Exact polarizability:      16.868       0.000       2.082       0.000       0.052       2.538
 Approx polarizability:      26.507       0.000       2.104       0.000       0.065       2.672

 ******    2 imaginary frequencies (negative Signs) ******

                      1                      2                      3
                      A                      A                      A
 Frequencies --   -789.7067               -51.8875              1435.0491
 Red. masses --      1.0078                 1.1085                 1.0098
 Frc consts  --      0.3703                 0.0018                 1.2252
 IR Inten    --      0.0688                 0.0512                 0.0024

                      4
                      A
 Frequencies --   1436.3611
 Red. masses --      1.0098
 Frc consts  --      1.2274
 IR Inten    --      0.0013

 - Thermochemistry -
 -------------------
 Temperature   298.150 Kelvin.  Pressure   1.00000 Atm.
 Atom     1 has atomic number  1 and mass   1.00783

 Molecular mass:    21.01405 amu.
 Principal axes and moments of inertia in atomic units:
                           1         2         3
     Eigenvalues --     0.00000 133.13027 133.13027
           X            1.00000  -0.00000   0.00000
           Y            0.00000   1.00000   0.00000
           Z            0.00000   0.00000   1.00000
 This molecule is a prolate symmetric top.
 Rotational symmetry number  1.
 Rotational temperature (Kelvin)      0.65060
 Rotational constant (GHZ):          13.556205
    2 imaginary frequencies ignored.
 Zero-point vibrational energy      17174.8 (Joules/Mol)
                                    4.10489 (Kcal/Mol)
 Vibrational temperatures:   2064.72  2066.60
          (Kelvin)

 Zero-point correction=                           0.006542 (Hartree/Particle)
 Thermal correction to Energy=                    0.008915
 Thermal correction to Enthalpy=                  0.009859
 Thermal correction to Gibbs Free Energy=        -0.014202
 Sum of electronic and zero-point Energies=           -100.856043
 Sum of electronic and thermal Energies=              -100.853670
 Sum of electronic and thermal Enthalpies=            -100.852725
 Sum of electronic and thermal Free Energies=         -100.876786

                     E (Thermal)             CV                S
                      KCal/Mol        Cal/Mol-Kelvin    Cal/Mol-Kelvin
 Total                    5.594              5.155             50.640
 Electronic               0.000              0.000              1.377
 Translational            0.889              2.981             35.068
 Rotational               0.592              1.987             14.164
 Vibrational              4.113              0.187              0.031

 Normal termination of Gaussian 16 at Sat Aug 23 00:58:55 2025.
