 Gaussian 16, Revision C.01,
 Gaussian 16:  ES64L-G16RevC.01  3-Jul-2019

 -----------------------------------------
 # sp b3lyp/6-311g** Force nosymm scf=(qc)
 -----------------------------------------

 -------------------
 Title Card Required
 -------------------
 Symbolic Z-matrix:
 Charge =  0 Multiplicity = 2

                          Input orientation:
 ---------------------------------------------------------------------
 Center     Atomic      Atomic             Coordinates (Angstroms)
 Number     Number       Type             X           Y           Z
 ---------------------------------------------------------------------
      1          1           0        0.000000    0.000000    0.000000
      2          1           0       -3.600000    0.000000    0.000000
      3          9           0        2.500000    0.000000    0.000000
 ---------------------------------------------------------------------

 SCF Done:  E(UB3LYP) =  -100.767421648     a.u. after   16 cycles

 Alpha  occ. eigenvalues --  -24.71735  -1.17952  -0.50838  -0.42708  -0.42708
 Alpha  occ. eigenvalues --   -0.32861
 Alpha virt. eigenvalues --   -0.10240   0.23435   0.35256   0.89636   0.93616
 Alpha virt. eigenvalues --    0.93616   1.06236   1.24646   1.24646   1.24755
 Alpha virt. eigenvalues --    1.40536   1.40536   1.44839   2.14362   2.36759

  Beta  occ. eigenvalues --  -24.68894  -1.09865  -0.39875  -0.39875  -0.35358
  Beta virt. eigenvalues --   -0.23336  -0.06579   0.23823   0.37985   0.94978
  Beta virt. eigenvalues --    0.94978   0.95945   1.08560   1.22095   1.22095
  Beta virt. eigenvalues --    1.29702   1.45905   1.46167   1.46167   2.12694

 Mulliken charges and spin densities:
               1          2
     1  H    0.089848  -0.896175
     2  H    0.000692   0.998378
     3  F   -0.090540   0.897797
 Sum of Mulliken charges =  -0.00000   1.00000

 Dipole moment (field-independent basis, Debye):
    X=             -1.1632    Y=             -0.0000    Z=             -0.0000  Tot=              1.1632
 Quadrupole moment (field-independent basis, Debye-Ang):
   XX=             -9.3170   YY=             -7.5699   ZZ=             -7.5699
   XY=             -0.0000   XZ=             -0.0000   YZ=              0.0000

  Exact polarizability:      30.607       0.000       2.026      -0.000      -0.000       2.026
 Approx polarizability:      38.731      -0.000       1.921      -0.000       0.000       1.921

 ******    2 imaginary frequencies (negative Signs) ******

                      1                      2                      3
                      A                      A                      A
 Frequencies --   -616.7331              -107.8991               241.3924
 Red. masses --      1.0550                 1.0565                 1.0229
 Frc consts  --      0.2364                 0.0072                 0.0351
 IR Inten    --     80.4776                 0.1881                 7.7528

                      4
                      A
 Frequencies --    241.3924
 Red. masses --      1.0229
 Frc consts  --      0.0351
 IR Inten    --      7.7528

 - Thermochemistry -
 -------------------
 Temperature   298.150 Kelvin.  Pressure   1.00000 Atm.
 Atom     1 has atomic number  1 and mass   1.00783

 Molecular mass:    21.01405 amu.
 Principal axes and moments of inertia in atomic units:
                           1         2         3
     Eigenvalues --     0.00000 143.64690 143.64690
           X            1.00000  -0.00000   0.00000
           Y            0.00000   1.00000   0.00000
           Z            0.00000   0.00000   1.00000
 This molecule is a prolate symmetric top.
 Rotational symmetry number  1.
 Rotational temperature (Kelvin)      0.60296
 Rotational constant (GHZ):          12.563732
    2 imaginary frequencies ignored.
 Zero-point vibrational energy       2887.7 (Joules/Mol)
                                    0.69018 (Kcal/Mol)
 Warning -- explicit consideration of   2 degrees of freedom as
           vibrations may cause significant error
 Vibrational temperatures:    347.31   347.31
          (Kelvin)

 Zero-point correction=                           0.001100 (Hartree/Particle)
 Thermal correction to Energy=                    0.004458
 Thermal correction to Enthalpy=                  0.005402
 Thermal correction to Gibbs Free Energy=        -0.020419
 Sum of electronic and zero-point Energies=           -100.766322
 Sum of electronic and thermal Energies=              -100.762964
 Sum of electronic and thermal Enthalpies=            -100.762020
 Sum of electronic and thermal Free Energies=         -100.787841

                     E (Thermal)             CV                S
                      KCal/Mol        Cal/Mol-Kelvin    Cal/Mol-Kelvin
 Total                    2.797              8.522             54.345
 Electronic               0.000              0.000              1.377
 Translational            0.889              2.981             35.068
 Rotational               0.592              1.987             14.315
 Vibrational              1.316              3.554              3.585
 Vibration     1          0.658              1.777              1.793
 Vibration     2          0.658              1.777              1.793

 Normal termination of Gaussian 16 at Fri Aug 22 17:46:20 2025.
