 Gaussian 16, Revision C.01,
 Gaussian 16:  ES64L-G16RevC.01  3-Jul-2019

 -----------------------------------------
 # sp b3lyp/6-311g** Force nosymm scf=(qc)
 -----------------------------------------

 -------------------
 Title Card Required
 -------------------
 Symbolic Z-matrix:
 Charge =  0 Multiplicity = 2

                          Input orientation:
 ---------------------------------------------------------------------
 Center     Atomic      Atomic             Coordinates (Angstroms)
 Number     Number       Type             X           Y           Z
 ---------------------------------------------------------------------
      1          1           0        0.000000    0.000000    0.000000
      2          1           0       -3.750000    0.000000    0.000000
      3          9           0        0.950000    0.000000    0.000000
 ---------------------------------------------------------------------

 SCF Done:  E(UB3LYP) =  -100.970998443     a.u. after    6 cycles

 Alpha  occ. eigenvalues --  -24.64111  -1.17448  -0.52745  -0.39219  -0.39219
 Alpha  occ. eigenvalues --   -0.33475
 Alpha virt. eigenvalues --    0.01904   0.23850   0.36945   0.94215   0.94215
 Alpha virt. eigenvalues --    0.98126   1.23943   1.24034   1.24034   1.29149
 Alpha virt. eigenvalues --    1.36468   1.36468   1.95646   2.14170   2.34816

  Beta  occ. eigenvalues --  -24.64111  -1.17446  -0.52743  -0.39218  -0.39218
  Beta virt. eigenvalues --   -0.05234   0.02266   0.35525   0.40049   0.94215
  Beta virt. eigenvalues --    0.94215   0.98127   1.29057   1.36468   1.36468
  Beta virt. eigenvalues --    1.50372   1.50845   1.50845   1.95733   2.34603

 Mulliken charges and spin densities:
               1          2
     1  H    0.308097   0.000367
     2  H    0.000558   0.999365
     3  F   -0.308656   0.000269
 Sum of Mulliken charges =   0.00000   1.00000

 Dipole moment (field-independent basis, Debye):
    X=             -1.9601    Y=             -0.0000    Z=             -0.0000  Tot=              1.9601
 Quadrupole moment (field-independent basis, Debye-Ang):
   XX=             -8.0944   YY=             -6.9164   ZZ=             -6.9164
   XY=              0.0000   XZ=             -0.0000   YZ=              0.0000

  Exact polarizability:       5.903       0.000       2.411      -0.000      -0.000       2.411
 Approx polarizability:       7.114       0.000       2.386       0.000       0.000       2.386

 ******    1 imaginary frequencies (negative Signs) ******

                      1                      2                      3
                      A                      A                      A
 Frequencies --    -37.1422               677.9579               677.9579
 Red. masses --      1.0532                 1.0387                 1.0387
 Frc consts  --      0.0009                 0.2813                 0.2813
 IR Inten    --      0.0219               176.4144               176.4144

                      4
                      A
 Frequencies --   3680.0477
 Red. masses --      1.0583
 Frc consts  --      8.4445
 IR Inten    --     92.9674

 - Thermochemistry -
 -------------------
 Temperature   298.150 Kelvin.  Pressure   1.00000 Atm.
 Atom     1 has atomic number  1 and mass   1.00783

 Molecular mass:    21.01405 amu.
 Principal axes and moments of inertia in atomic units:
                           1         2         3
     Eigenvalues --     0.00000  77.24016  77.24016
           X            1.00000  -0.00000   0.00000
           Y            0.00000   1.00000   0.00000
           Z            0.00000   0.00000   1.00000
 This molecule is a prolate symmetric top.
 Rotational symmetry number  1.
 Rotational temperature (Kelvin)      1.12136
 Rotational constant (GHZ):          23.365322
    1 imaginary frequencies ignored.
 Zero-point vibrational energy      30121.8 (Joules/Mol)
                                    7.19927 (Kcal/Mol)
 Vibrational temperatures:    975.43   975.43  5294.77
          (Kelvin)

 Zero-point correction=                           0.011473 (Hartree/Particle)
 Thermal correction to Energy=                    0.014077
 Thermal correction to Enthalpy=                  0.015021
 Thermal correction to Gibbs Free Energy=        -0.008828
 Sum of electronic and zero-point Energies=           -100.959526
 Sum of electronic and thermal Energies=              -100.956922
 Sum of electronic and thermal Enthalpies=            -100.955977
 Sum of electronic and thermal Free Energies=         -100.979826

                     E (Thermal)             CV                S
                      KCal/Mol        Cal/Mol-Kelvin    Cal/Mol-Kelvin
 Total                    8.833              6.712             50.194
 Electronic               0.000              0.000              1.377
 Translational            0.889              2.981             35.068
 Rotational               0.592              1.987             13.082
 Vibrational              7.352              1.744              0.667

 Normal termination of Gaussian 16 at Fri Aug 22 15:59:18 2025.
