 Gaussian 16, Revision C.01,
 Gaussian 16:  ES64L-G16RevC.01  3-Jul-2019

 -----------------------------------------
 # sp b3lyp/6-311g** Force nosymm scf=(qc)
 -----------------------------------------

 -------------------
 Title Card Required
 -------------------
 Symbolic Z-matrix:
 Charge =  0 Multiplicity = 2

                          Input orientation:
 ---------------------------------------------------------------------
 Center     Atomic      Atomic             Coordinates (Angstroms)
 Number     Number       Type             X           Y           Z
 ---------------------------------------------------------------------
      1          1           0        0.000000    0.000000    0.000000
      2          1           0       -1.150000    0.000000    0.000000
      3          9           0        2.500000    0.000000    0.000000
 ---------------------------------------------------------------------

 SCF Done:  E(UB3LYP) =  -100.881723711     a.u. after   60 cycles

 Alpha  occ. eigenvalues --  -24.75743  -1.21664  -0.54863  -0.46183  -0.46075
 Alpha  occ. eigenvalues --   -0.37623
 Alpha virt. eigenvalues --   -0.03099   0.22458   0.35998   0.87946   0.91121
 Alpha virt. eigenvalues --    0.92141   1.08800   1.11000   1.11007   1.26794
 Alpha virt. eigenvalues --    1.56313   1.56318   2.11816   2.32666   2.55461

  Beta  occ. eigenvalues --  -24.72651  -1.12799  -0.43133  -0.42980  -0.37409
  Beta virt. eigenvalues --   -0.26086  -0.02686   0.22704   0.36374   0.92584
  Beta virt. eigenvalues --    0.93069   0.97153   1.11241   1.11243   1.12532
  Beta virt. eigenvalues --    1.27535   1.56508   1.56512   2.12124   2.32960

 Mulliken charges and spin densities:
               1          2
     1  H   -0.002422  -0.023733
     2  H    0.014061   0.046250
     3  F   -0.011639   0.977483
 Sum of Mulliken charges =  -0.00000   1.00000

 Dipole moment (field-independent basis, Debye):
    X=             -0.2424    Y=              0.0030    Z=              0.0007  Tot=              0.2424
 Quadrupole moment (field-independent basis, Debye-Ang):
   XX=             -6.0809   YY=             -7.1764   ZZ=             -7.4152
   XY=              0.3795   XZ=              0.0851   YZ=              0.0563

  Exact polarizability:      64.279       0.184       2.223       0.492       0.045       2.045
 Approx polarizability:      36.787       0.070       2.296       0.016       0.037       2.137

 ******    1 imaginary frequencies (negative Signs) ******

                      1                      2                      3
                      A                      A                      A
 Frequencies --   -589.9768               303.4476              1479.0108
 Red. masses --      1.0449                 1.0668                 1.0112
 Frc consts  --      0.2143                 0.0579                 1.3033
 IR Inten    --    885.0409                98.1322                 5.1781

                      4
                      A
 Frequencies --   1539.0431
 Red. masses --      1.0113
 Frc consts  --      1.4113
 IR Inten    --     14.9569

 - Thermochemistry -
 -------------------
 Temperature   298.150 Kelvin.  Pressure   1.00000 Atm.
 Atom     1 has atomic number  1 and mass   1.00783

 Molecular mass:    21.01405 amu.
 Principal axes and moments of inertia in atomic units:
                           1         2         3
     Eigenvalues --     0.00000  63.91317  63.91317
           X            1.00000  -0.00000   0.00000
           Y            0.00000   1.00000   0.00000
           Z            0.00000   0.00000   1.00000
 This molecule is a prolate symmetric top.
 Rotational symmetry number  1.
 Rotational temperature (Kelvin)      1.35518
 Rotational constant (GHZ):          28.237392
    1 imaginary frequencies ignored.
 Zero-point vibrational energy      19867.0 (Joules/Mol)
                                    4.74832 (Kcal/Mol)
 Warning -- explicit consideration of   1 degrees of freedom as
           vibrations may cause significant error
 Vibrational temperatures:    436.59  2127.97  2214.34
          (Kelvin)

 Zero-point correction=                           0.007567 (Hartree/Particle)
 Thermal correction to Energy=                    0.010353
 Thermal correction to Enthalpy=                  0.011297
 Thermal correction to Gibbs Free Energy=        -0.012731
 Sum of electronic and zero-point Energies=           -100.874157
 Sum of electronic and thermal Energies=              -100.871371
 Sum of electronic and thermal Enthalpies=            -100.870427
 Sum of electronic and thermal Free Energies=         -100.894455

                     E (Thermal)             CV                S
                      KCal/Mol        Cal/Mol-Kelvin    Cal/Mol-Kelvin
 Total                    6.496              6.781             50.572
 Electronic               0.000              0.000              1.377
 Translational            0.889              2.981             35.068
 Rotational               0.592              1.987             12.706
 Vibrational              5.015              1.813              1.421
 Vibration     1          0.695              1.667              1.398

 Normal termination of Gaussian 16 at Fri Aug 22 17:43:46 2025.
