 Gaussian 16, Revision C.01,
 Gaussian 16:  ES64L-G16RevC.01  3-Jul-2019

 -----------------------------------------
 # sp b3lyp/6-311g** Force nosymm scf=(qc)
 -----------------------------------------

 -------------------
 Title Card Required
 -------------------
 Symbolic Z-matrix:
 Charge =  0 Multiplicity = 2

                          Input orientation:
 ---------------------------------------------------------------------
 Center     Atomic      Atomic             Coordinates (Angstroms)
 Number     Number       Type             X           Y           Z
 ---------------------------------------------------------------------
      1          1           0        0.000000    0.000000    0.000000
      2          1           0       -1.100000    0.000000    0.000000
      3          9           0        0.900000    0.000000    0.000000
 ---------------------------------------------------------------------

 SCF Done:  E(UB3LYP) =  -100.959293777     a.u. after    7 cycles

 Alpha  occ. eigenvalues --  -24.64331  -1.20080  -0.58250  -0.40106  -0.40106
 Alpha  occ. eigenvalues --   -0.36219
 Alpha virt. eigenvalues --    0.13730   0.19085   0.47277   0.91410   0.91410
 Alpha virt. eigenvalues --    0.96820   1.08894   1.08894   1.41471   1.57047
 Alpha virt. eigenvalues --    1.57047   1.64081   2.12881   2.30486   3.03280

  Beta  occ. eigenvalues --  -24.63744  -1.18576  -0.54463  -0.39593  -0.39593
  Beta virt. eigenvalues --   -0.16711   0.15314   0.23282   0.52730   0.92663
  Beta virt. eigenvalues --    0.92663   0.98003   1.15916   1.15916   1.44275
  Beta virt. eigenvalues --    1.62536   1.62536   1.72779   2.14563   2.44927

 Mulliken charges and spin densities:
               1          2
     1  H    0.271514  -0.006132
     2  H    0.014362   0.867279
     3  F   -0.285875   0.138853
 Sum of Mulliken charges =   0.00000   1.00000

 Dipole moment (field-independent basis, Debye):
    X=             -1.8790    Y=             -0.0000    Z=              0.0000  Tot=              1.8790
 Quadrupole moment (field-independent basis, Debye-Ang):
   XX=             -7.5577   YY=             -6.6553   ZZ=             -6.6553
   XY=             -0.0000   XZ=              0.0000   YZ=             -0.0000

  Exact polarizability:      11.974       0.000       2.583      -0.000      -0.000       2.583
 Approx polarizability:      12.969       0.000       2.611      -0.000      -0.000       2.611

 ******    2 imaginary frequencies (negative Signs) ******

                      1                      2                      3
                      A                      A                      A
 Frequencies --  -1113.8625             -1113.8625              1301.5431
 Red. masses --      1.0206                 1.0206                 1.0506
 Frc consts  --      0.7460                 0.7460                 1.0486
 IR Inten    --     84.8117                84.8117                38.1351

                      4
                      A
 Frequencies --   4076.1197
 Red. masses --      1.0610
 Frc consts  --     10.3861
 IR Inten    --     78.3538

 - Thermochemistry -
 -------------------
 Temperature   298.150 Kelvin.  Pressure   1.00000 Atm.
 Atom     1 has atomic number  1 and mass   1.00783

 Molecular mass:    21.01405 amu.
 Principal axes and moments of inertia in atomic units:
                           1         2         3
     Eigenvalues --     0.00000  15.85961  15.85961
           X            1.00000  -0.00000   0.00000
           Y            0.00000   1.00000   0.00000
           Z            0.00000   0.00000   1.00000
 This molecule is a prolate symmetric top.
 Rotational symmetry number  1.
 Rotational temperature (Kelvin)      5.46129
 Rotational constant (GHZ):         113.794826
    2 imaginary frequencies ignored.
 Zero-point vibrational energy      32165.6 (Joules/Mol)
                                    7.68775 (Kcal/Mol)
 Vibrational temperatures:   1872.63  5864.63
          (Kelvin)

 Zero-point correction=                           0.012251 (Hartree/Particle)
 Thermal correction to Energy=                    0.014623
 Thermal correction to Enthalpy=                  0.015567
 Thermal correction to Gibbs Free Energy=        -0.006483
 Sum of electronic and zero-point Energies=           -100.947043
 Sum of electronic and thermal Energies=              -100.944671
 Sum of electronic and thermal Enthalpies=            -100.943727
 Sum of electronic and thermal Free Energies=         -100.965777

                     E (Thermal)             CV                S
                      KCal/Mol        Cal/Mol-Kelvin    Cal/Mol-Kelvin
 Total                    9.176              5.115             46.408
 Electronic               0.000              0.000              1.377
 Translational            0.889              2.981             35.068
 Rotational               0.592              1.987              9.936
 Vibrational              7.695              0.147              0.027

 Normal termination of Gaussian 16 at Fri Aug 22 15:55:12 2025.
