 Gaussian 16, Revision C.01,
 Gaussian 16:  ES64L-G16RevC.01  3-Jul-2019

 -----------------------------------------
 # sp b3lyp/6-311g** Force nosymm scf=(qc)
 -----------------------------------------

 -------------------
 Title Card Required
 -------------------
 Symbolic Z-matrix:
 Charge =  0 Multiplicity = 2

                          Input orientation:
 ---------------------------------------------------------------------
 Center     Atomic      Atomic             Coordinates (Angstroms)
 Number     Number       Type             X           Y           Z
 ---------------------------------------------------------------------
      1          1           0        0.000000    0.000000    0.000000
      2          1           0       -2.300000    0.000000    0.000000
      3          9           0        1.200000    0.000000    0.000000
 ---------------------------------------------------------------------

 SCF Done:  E(UB3LYP) =  -100.926728062     a.u. after    7 cycles

 Alpha  occ. eigenvalues --  -24.64014  -1.12035  -0.47700  -0.37251  -0.37251
 Alpha  occ. eigenvalues --   -0.35793
 Alpha virt. eigenvalues --   -0.04295   0.24491   0.28543   0.93446   0.93446
 Alpha virt. eigenvalues --    1.00933   1.17926   1.21707   1.21707   1.34966
 Alpha virt. eigenvalues --    1.34966   1.36398   1.73767   2.12382   2.29979

  Beta  occ. eigenvalues --  -24.63938  -1.11844  -0.47353  -0.37182  -0.37182
  Beta virt. eigenvalues --   -0.12607  -0.01447   0.28503   0.35694   0.93443
  Beta virt. eigenvalues --    0.93443   1.01132   1.25433   1.34758   1.34758
  Beta virt. eigenvalues --    1.42177   1.42177   1.48358   1.73939   2.28060

 Mulliken charges and spin densities:
               1          2
     1  H    0.341979  -0.002547
     2  H    0.015461   0.979724
     3  F   -0.357440   0.022824
 Sum of Mulliken charges =   0.00000   1.00000

 Dipole moment (field-independent basis, Debye):
    X=             -2.4714    Y=              0.0000    Z=              0.0000  Tot=              2.4714
 Quadrupole moment (field-independent basis, Debye-Ang):
   XX=             -8.4285   YY=             -7.1143   ZZ=             -7.1143
   XY=              0.0000   XZ=              0.0000   YZ=             -0.0000

  Exact polarizability:      13.807       0.000       2.358       0.000       0.000       2.358
 Approx polarizability:      17.402       0.000       2.318       0.000       0.000       2.318

 ******    1 imaginary frequencies (negative Signs) ******

                      1                      2                      3
                      A                      A                      A
 Frequencies --   -242.2873               893.7201              1173.1544
 Red. masses --      1.0399                 1.0721                 1.0274
 Frc consts  --      0.0360                 0.5045                 0.8331
 IR Inten    --     13.9645               143.7742               123.7061

                      4
                      A
 Frequencies --   1173.1544
 Red. masses --      1.0274
 Frc consts  --      0.8331
 IR Inten    --    123.7061

 - Thermochemistry -
 -------------------
 Temperature   298.150 Kelvin.  Pressure   1.00000 Atm.
 Atom     1 has atomic number  1 and mass   1.00783

 Molecular mass:    21.01405 amu.
 Principal axes and moments of inertia in atomic units:
                           1         2         3
     Eigenvalues --     0.00000  45.45754  45.45754
           X            1.00000  -0.00000   0.00000
           Y            0.00000   1.00000   0.00000
           Z            0.00000   0.00000   1.00000
 This molecule is a prolate symmetric top.
 Rotational symmetry number  1.
 Rotational temperature (Kelvin)      1.90538
 Rotational constant (GHZ):          39.701691
    1 imaginary frequencies ignored.
 Zero-point vibrational energy      19379.7 (Joules/Mol)
                                    4.63185 (Kcal/Mol)
 Vibrational temperatures:   1285.86  1687.91  1687.91
          (Kelvin)

 Zero-point correction=                           0.007381 (Hartree/Particle)
 Thermal correction to Energy=                    0.009834
 Thermal correction to Enthalpy=                  0.010779
 Thermal correction to Gibbs Free Energy=        -0.012365
 Sum of electronic and zero-point Energies=           -100.919347
 Sum of electronic and thermal Energies=              -100.916894
 Sum of electronic and thermal Enthalpies=            -100.915949
 Sum of electronic and thermal Free Energies=         -100.939093

                     E (Thermal)             CV                S
                      KCal/Mol        Cal/Mol-Kelvin    Cal/Mol-Kelvin
 Total                    6.171              5.923             48.709
 Electronic               0.000              0.000              1.377
 Translational            0.889              2.981             35.068
 Rotational               0.592              1.987             12.028
 Vibrational              4.690              0.955              0.236

 Normal termination of Gaussian 16 at Fri Aug 22 16:10:21 2025.
