 Gaussian 16, Revision C.01,
 Gaussian 16:  ES64L-G16RevC.01  3-Jul-2019

 -----------------------------------------
 # sp b3lyp/6-311g** Force nosymm scf=(qc)
 -----------------------------------------

 -------------------
 Title Card Required
 -------------------
 Symbolic Z-matrix:
 Charge =  0 Multiplicity = 2

                          Input orientation:
 ---------------------------------------------------------------------
 Center     Atomic      Atomic             Coordinates (Angstroms)
 Number     Number       Type             X           Y           Z
 ---------------------------------------------------------------------
      1          1           0        0.000000    0.000000    0.000000
      2          1           0       -0.750000    0.000000    0.000000
      3          9           0        1.500000    0.000000    0.000000
 ---------------------------------------------------------------------

 SCF Done:  E(UB3LYP) =  -100.937872917     a.u. after    6 cycles

 Alpha  occ. eigenvalues --  -24.71146  -1.18231  -0.56094  -0.42788  -0.42727
 Alpha  occ. eigenvalues --   -0.42727
 Alpha virt. eigenvalues --    0.09029   0.19812   0.43312   0.88756   0.88756
 Alpha virt. eigenvalues --    0.97284   1.08334   1.08334   1.29403   1.68245
 Alpha virt. eigenvalues --    1.80795   1.80795   1.98034   2.42327   3.04948

  Beta  occ. eigenvalues --  -24.68512  -1.10999  -0.47711  -0.40166  -0.40166
  Beta virt. eigenvalues --   -0.23412   0.10382   0.20748   0.45581   0.89931
  Beta virt. eigenvalues --    0.89931   1.03420   1.10601   1.10601   1.33145
  Beta virt. eigenvalues --    1.71257   1.82126   1.82126   1.99045   2.45070

 Mulliken charges and spin densities:
               1          2
     1  H    0.130595  -0.045145
     2  H    0.018389   0.248465
     3  F   -0.148984   0.796680
 Sum of Mulliken charges =   0.00000   1.00000

 Dipole moment (field-independent basis, Debye):
    X=             -1.1632    Y=             -0.0000    Z=              0.0000  Tot=              1.1632
 Quadrupole moment (field-independent basis, Debye-Ang):
   XX=             -6.8815   YY=             -6.7842   ZZ=             -6.7842
   XY=             -0.0000   XZ=              0.0000   YZ=              0.0000

  Exact polarizability:      20.097       0.000       2.306      -0.000      -0.000       2.306
 Approx polarizability:      25.760      -0.000       2.343       0.000      -0.000       2.343

 ******    3 imaginary frequencies (negative Signs) ******

                      1                      2                      3
                      A                      A                      A
 Frequencies --   -881.8278              -881.8278              -411.0391
 Red. masses --      1.0117                 1.0117                 1.1078
 Frc consts  --      0.4635                 0.4635                 0.1103
 IR Inten    --      0.8337                 0.8337               102.4373

                      4
                      A
 Frequencies --   3985.8624
 Red. masses --      1.0084
 Frc consts  --      9.4388
 IR Inten    --    685.6788

 - Thermochemistry -
 -------------------
 Temperature   298.150 Kelvin.  Pressure   1.00000 Atm.
 Atom     1 has atomic number  1 and mass   1.00783

 Molecular mass:    21.01405 amu.
 Principal axes and moments of inertia in atomic units:
                           1         2         3
     Eigenvalues --     0.00000  23.89047  23.89047
           X            1.00000  -0.00000   0.00000
           Y            0.00000   1.00000   0.00000
           Z            0.00000   0.00000   1.00000
 This molecule is a prolate symmetric top.
 Rotational symmetry number  1.
 Rotational temperature (Kelvin)      3.62546
 Rotational constant (GHZ):          75.542321
    3 imaginary frequencies ignored.
 Zero-point vibrational energy      23840.8 (Joules/Mol)
                                    5.69808 (Kcal/Mol)
 Vibrational temperatures:   5734.77
          (Kelvin)

 Zero-point correction=                           0.009080 (Hartree/Particle)
 Thermal correction to Energy=                    0.011441
 Thermal correction to Enthalpy=                  0.012385
 Thermal correction to Gibbs Free Energy=        -0.010039
 Sum of electronic and zero-point Energies=           -100.928792
 Sum of electronic and thermal Energies=              -100.926432
 Sum of electronic and thermal Enthalpies=            -100.925488
 Sum of electronic and thermal Free Energies=         -100.947912

                     E (Thermal)             CV                S
                      KCal/Mol        Cal/Mol-Kelvin    Cal/Mol-Kelvin
 Total                    7.179              4.968             47.195
 Electronic               0.000              0.000              1.377
 Translational            0.889              2.981             35.068
 Rotational               0.592              1.987             10.750
 Vibrational              5.698              0.000              0.000

 Normal termination of Gaussian 16 at Fri Aug 22 16:24:25 2025.
