 Gaussian 16, Revision C.01,
 Gaussian 16:  ES64L-G16RevC.01  3-Jul-2019

 -----------------------------------------
 # sp b3lyp/6-311g** Force nosymm scf=(qc)
 -----------------------------------------

 -------------------
 Title Card Required
 -------------------
 Symbolic Z-matrix:
 Charge =  0 Multiplicity = 2

                          Input orientation:
 ---------------------------------------------------------------------
 Center     Atomic      Atomic             Coordinates (Angstroms)
 Number     Number       Type             X           Y           Z
 ---------------------------------------------------------------------
      1          1           0        0.000000    0.000000    0.000000
      2          1           0       -2.900000    0.000000    0.000000
      3          9           0        1.350000    0.000000    0.000000
 ---------------------------------------------------------------------

 SCF Done:  E(UB3LYP) =  -100.889506271     a.u. after    7 cycles

 Alpha  occ. eigenvalues --  -24.64274  -1.10598  -0.45256  -0.36795  -0.36795
 Alpha  occ. eigenvalues --   -0.34701
 Alpha virt. eigenvalues --   -0.10161   0.22376   0.27680   0.93110   0.93110
 Alpha virt. eigenvalues --    1.02693   1.18960   1.22823   1.22823   1.23778
 Alpha virt. eigenvalues --    1.33380   1.33380   1.71581   2.13810   2.23459

  Beta  occ. eigenvalues --  -24.64239  -1.10508  -0.45143  -0.36763  -0.36763
  Beta virt. eigenvalues --   -0.12011  -0.06211   0.25469   0.37228   0.93102
  Beta virt. eigenvalues --    0.93102   1.02785   1.19355   1.33271   1.33271
  Beta virt. eigenvalues --    1.44660   1.44899   1.44899   1.71746   2.23295

 Mulliken charges and spin densities:
               1          2
     1  H    0.354079  -0.004125
     2  H    0.006089   0.993117
     3  F   -0.360167   0.011008
 Sum of Mulliken charges =  -0.00000   1.00000

 Dipole moment (field-independent basis, Debye):
    X=             -2.5315    Y=             -0.0000    Z=              0.0000  Tot=              2.5315
 Quadrupole moment (field-independent basis, Debye-Ang):
   XX=             -9.1702   YY=             -7.2335   ZZ=             -7.2335
   XY=             -0.0000   XZ=              0.0000   YZ=             -0.0000

  Exact polarizability:      14.348      -0.000       2.264       0.000       0.000       2.264
 Approx polarizability:      21.692      -0.000       2.205      -0.000       0.000       2.205

 ******    2 imaginary frequencies (negative Signs) ******

                      1                      2                      3
                      A                      A                      A
 Frequencies --   -906.3844              -133.2616              1115.6253
 Red. masses --      1.0537                 1.0579                 1.0292
 Frc consts  --      0.5100                 0.0111                 0.7547
 IR Inten    --     82.0014                 0.5579               123.9719

                      4
                      A
 Frequencies --   1115.6253
 Red. masses --      1.0292
 Frc consts  --      0.7547
 IR Inten    --    123.9719

 - Thermochemistry -
 -------------------
 Temperature   298.150 Kelvin.  Pressure   1.00000 Atm.
 Atom     1 has atomic number  1 and mass   1.00783

 Molecular mass:    21.01405 amu.
 Principal axes and moments of inertia in atomic units:
                           1         2         3
     Eigenvalues --     0.00000  66.15333  66.15333
           X            1.00000  -0.00000   0.00000
           Y            0.00000   1.00000   0.00000
           Z            0.00000   0.00000   1.00000
 This molecule is a prolate symmetric top.
 Rotational symmetry number  1.
 Rotational temperature (Kelvin)      1.30929
 Rotational constant (GHZ):          27.281184
    2 imaginary frequencies ignored.
 Zero-point vibrational energy      13345.8 (Joules/Mol)
                                    3.18973 (Kcal/Mol)
 Vibrational temperatures:   1605.14  1605.14
          (Kelvin)

 Zero-point correction=                           0.005083 (Hartree/Particle)
 Thermal correction to Energy=                    0.007491
 Thermal correction to Enthalpy=                  0.008435
 Thermal correction to Gibbs Free Energy=        -0.015007
 Sum of electronic and zero-point Energies=           -100.884423
 Sum of electronic and thermal Energies=              -100.882016
 Sum of electronic and thermal Enthalpies=            -100.881072
 Sum of electronic and thermal Free Energies=         -100.904513

                     E (Thermal)             CV                S
                      KCal/Mol        Cal/Mol-Kelvin    Cal/Mol-Kelvin
 Total                    4.700              5.502             49.336
 Electronic               0.000              0.000              1.377
 Translational            0.889              2.981             35.068
 Rotational               0.592              1.987             12.774
 Vibrational              3.219              0.534              0.117

 Normal termination of Gaussian 16 at Fri Aug 22 16:18:13 2025.
