 Gaussian 16, Revision C.01,
 Gaussian 16:  ES64L-G16RevC.01  3-Jul-2019

 -----------------------------------------
 # sp b3lyp/6-311g** Force nosymm scf=(qc)
 -----------------------------------------

 -------------------
 Title Card Required
 -------------------
 Symbolic Z-matrix:
 Charge =  0 Multiplicity = 2

                          Input orientation:
 ---------------------------------------------------------------------
 Center     Atomic      Atomic             Coordinates (Angstroms)
 Number     Number       Type             X           Y           Z
 ---------------------------------------------------------------------
      1          1           0        0.000000    0.000000    0.000000
      2          1           0       -1.300000    0.000000    0.000000
      3          9           0        1.750000    0.000000    0.000000
 ---------------------------------------------------------------------

 SCF Done:  E(UB3LYP) =  -100.872565588     a.u. after   13 cycles

 Alpha  occ. eigenvalues --  -24.68959  -1.15495  -0.49554  -0.40535  -0.40535
 Alpha  occ. eigenvalues --   -0.39469
 Alpha virt. eigenvalues --   -0.05979   0.21158   0.31367   0.91821   0.92643
 Alpha virt. eigenvalues --    0.92643   1.04312   1.11840   1.11840   1.44155
 Alpha virt. eigenvalues --    1.46654   1.46654   2.00744   2.24211   2.50708

  Beta  occ. eigenvalues --  -24.66576  -1.08871  -0.39832  -0.38196  -0.38196
  Beta virt. eigenvalues --   -0.23643  -0.03501   0.23075   0.31925   0.93419
  Beta virt. eigenvalues --    0.93419   0.96941   1.07751   1.14699   1.14699
  Beta virt. eigenvalues --    1.47959   1.47959   1.48401   2.03586   2.26069

 Mulliken charges and spin densities:
               1          2
     1  H    0.119701  -0.213698
     2  H    0.067313   0.471275
     3  F   -0.187014   0.742423
 Sum of Mulliken charges =   0.00000   1.00000

 Dipole moment (field-independent basis, Debye):
    X=             -2.0091    Y=             -0.0000    Z=              0.0000  Tot=              2.0091
 Quadrupole moment (field-independent basis, Debye-Ang):
   XX=             -7.5735   YY=             -7.3351   ZZ=             -7.3351
   XY=              0.0000   XZ=              0.0000   YZ=              0.0000

  Exact polarizability:      41.734       0.000       2.236      -0.000       0.000       2.236
 Approx polarizability:      65.184      -0.000       2.198      -0.000      -0.000       2.198

 ******    2 imaginary frequencies (negative Signs) ******

                      1                      2                      3
                      A                      A                      A
 Frequencies --  -2240.1839              -331.1345              1234.2469
 Red. masses --      1.0178                 1.0967                 1.0147
 Frc consts  --      3.0094                 0.0708                 0.9108
 IR Inten    --   1138.8146                 0.6884                 3.3976

                      4
                      A
 Frequencies --   1234.2469
 Red. masses --      1.0147
 Frc consts  --      0.9108
 IR Inten    --      3.3976

 - Thermochemistry -
 -------------------
 Temperature   298.150 Kelvin.  Pressure   1.00000 Atm.
 Atom     1 has atomic number  1 and mass   1.00783

 Molecular mass:    21.01405 amu.
 Principal axes and moments of inertia in atomic units:
                           1         2         3
     Eigenvalues --     0.00000  40.52488  40.52488
           X            1.00000  -0.00000   0.00000
           Y            0.00000   1.00000   0.00000
           Z            0.00000   0.00000   1.00000
 This molecule is a prolate symmetric top.
 Rotational symmetry number  1.
 Rotational temperature (Kelvin)      2.13730
 Rotational constant (GHZ):          44.534156
    2 imaginary frequencies ignored.
 Zero-point vibrational energy      14764.9 (Joules/Mol)
                                    3.52889 (Kcal/Mol)
 Vibrational temperatures:   1775.81  1775.81
          (Kelvin)

 Zero-point correction=                           0.005624 (Hartree/Particle)
 Thermal correction to Energy=                    0.008013
 Thermal correction to Enthalpy=                  0.008957
 Thermal correction to Gibbs Free Energy=        -0.014000
 Sum of electronic and zero-point Energies=           -100.866942
 Sum of electronic and thermal Energies=              -100.864552
 Sum of electronic and thermal Enthalpies=            -100.863608
 Sum of electronic and thermal Free Energies=         -100.886565

                     E (Thermal)             CV                S
                      KCal/Mol        Cal/Mol-Kelvin    Cal/Mol-Kelvin
 Total                    5.028              5.335             48.317
 Electronic               0.000              0.000              1.377
 Translational            0.889              2.981             35.068
 Rotational               0.592              1.987             11.800
 Vibrational              3.547              0.367              0.072

 Normal termination of Gaussian 16 at Fri Aug 22 16:39:49 2025.
