 Gaussian 16, Revision C.01,
 Gaussian 16:  ES64L-G16RevC.01  3-Jul-2019

 -----------------------------------------
 # sp b3lyp/6-311g** Force nosymm scf=(qc)
 -----------------------------------------

 -------------------
 Title Card Required
 -------------------
 Symbolic Z-matrix:
 Charge =  0 Multiplicity = 2

                          Input orientation:
 ---------------------------------------------------------------------
 Center     Atomic      Atomic             Coordinates (Angstroms)
 Number     Number       Type             X           Y           Z
 ---------------------------------------------------------------------
      1          1           0        0.000000    0.000000    0.000000
      2          1           0       -1.550000    0.000000    0.000000
      3          9           0        2.700000    0.000000    0.000000
 ---------------------------------------------------------------------

 SCF Done:  E(UB3LYP) =  -100.815085537     a.u. after   20 cycles

 Alpha  occ. eigenvalues --  -24.74128  -1.20188  -0.53278  -0.44724  -0.44724
 Alpha  occ. eigenvalues --   -0.35124
 Alpha virt. eigenvalues --   -0.11001   0.24209   0.30570   0.89911   0.92189
 Alpha virt. eigenvalues --    0.92189   1.04055   1.09172   1.19738   1.19738
 Alpha virt. eigenvalues --    1.38966   1.38966   1.76803   2.19198   2.45349

  Beta  occ. eigenvalues --  -24.71121  -1.11579  -0.41717  -0.41717  -0.34777
  Beta virt. eigenvalues --   -0.25148  -0.10506   0.25095   0.30679   0.93632
  Beta virt. eigenvalues --    0.93632   0.97635   1.05870   1.12554   1.20156
  Beta virt. eigenvalues --    1.20156   1.39335   1.39335   1.77351   2.20114

 Mulliken charges and spin densities:
               1          2
     1  H    0.010418  -0.377586
     2  H    0.029861   0.425880
     3  F   -0.040279   0.951706
 Sum of Mulliken charges =  -0.00000   1.00000

 Dipole moment (field-independent basis, Debye):
    X=             -0.7735    Y=              0.0000    Z=             -0.0000  Tot=              0.7735
 Quadrupole moment (field-independent basis, Debye-Ang):
   XX=             -6.7040   YY=             -7.7092   ZZ=             -7.7092
   XY=             -0.0000   XZ=              0.0000   YZ=              0.0000

  Exact polarizability:      59.025      -0.000       2.039       0.000       0.000       2.039
 Approx polarizability:      77.181      -0.000       2.013       0.000      -0.000       2.013

 ******    2 imaginary frequencies (negative Signs) ******

                      1                      2                      3
                      A                      A                      A
 Frequencies --  -2081.4246              -264.6262              1092.0688
 Red. masses --      1.0081                 1.1082                 1.0126
 Frc consts  --      2.5732                 0.0457                 0.7115
 IR Inten    --    401.7354                30.2900                 0.0027

                      4
                      A
 Frequencies --   1092.0688
 Red. masses --      1.0126
 Frc consts  --      0.7115
 IR Inten    --      0.0027

 - Thermochemistry -
 -------------------
 Temperature   298.150 Kelvin.  Pressure   1.00000 Atm.
 Atom     1 has atomic number  1 and mass   1.00783

 Molecular mass:    21.01405 amu.
 Principal axes and moments of inertia in atomic units:
                           1         2         3
     Eigenvalues --     0.00000  82.90652  82.90652
           X            1.00000  -0.00000   0.00000
           Y            0.00000   1.00000   0.00000
           Z            0.00000   0.00000   1.00000
 This molecule is a prolate symmetric top.
 Rotational symmetry number  1.
 Rotational temperature (Kelvin)      1.04472
 Rotational constant (GHZ):          21.768387
    2 imaginary frequencies ignored.
 Zero-point vibrational energy      13064.0 (Joules/Mol)
                                    3.12238 (Kcal/Mol)
 Vibrational temperatures:   1571.24  1571.24
          (Kelvin)

 Zero-point correction=                           0.004976 (Hartree/Particle)
 Thermal correction to Energy=                    0.007388
 Thermal correction to Enthalpy=                  0.008332
 Thermal correction to Gibbs Free Energy=        -0.015328
 Sum of electronic and zero-point Energies=           -100.810110
 Sum of electronic and thermal Energies=              -100.807698
 Sum of electronic and thermal Enthalpies=            -100.806754
 Sum of electronic and thermal Free Energies=         -100.830414

                     E (Thermal)             CV                S
                      KCal/Mol        Cal/Mol-Kelvin    Cal/Mol-Kelvin
 Total                    4.636              5.542             49.797
 Electronic               0.000              0.000              1.377
 Translational            0.889              2.981             35.068
 Rotational               0.592              1.987             13.223
 Vibrational              3.155              0.574              0.129

 Normal termination of Gaussian 16 at Fri Aug 22 18:24:51 2025.
