 Gaussian 16, Revision C.01,
 Gaussian 16:  ES64L-G16RevC.01  3-Jul-2019

 -----------------------------------------
 # sp b3lyp/6-311g** Force nosymm scf=(qc)
 -----------------------------------------

 -------------------
 Title Card Required
 -------------------
 Symbolic Z-matrix:
 Charge =  0 Multiplicity = 2

                          Input orientation:
 ---------------------------------------------------------------------
 Center     Atomic      Atomic             Coordinates (Angstroms)
 Number     Number       Type             X           Y           Z
 ---------------------------------------------------------------------
      1          1           0        0.000000    0.000000    0.000000
      2          1           0       -2.950000    0.000000    0.000000
      3          9           0        2.500000    0.000000    0.000000
 ---------------------------------------------------------------------

 SCF Done:  E(UB3LYP) =  -100.768456450     a.u. after   18 cycles

 Alpha  occ. eigenvalues --  -24.71746  -1.17959  -0.50846  -0.42714  -0.42714
 Alpha  occ. eigenvalues --   -0.33243
 Alpha virt. eigenvalues --   -0.10952   0.24168   0.34304   0.89854   0.93615
 Alpha virt. eigenvalues --    0.93615   1.06456   1.24305   1.24305   1.25365
 Alpha virt. eigenvalues --    1.39962   1.39962   1.44040   2.15079   2.34903

  Beta  occ. eigenvalues --  -24.68904  -1.09871  -0.39881  -0.39881  -0.35355
  Beta virt. eigenvalues --   -0.23355  -0.08015   0.24804   0.36515   0.94978
  Beta virt. eigenvalues --    0.94978   0.96448   1.08967   1.22148   1.22148
  Beta virt. eigenvalues --    1.29797   1.44289   1.44289   1.44435   2.13958

 Mulliken charges and spin densities:
               1          2
     1  H    0.086304  -0.889396
     2  H    0.003620   0.991464
     3  F   -0.089924   0.897932
 Sum of Mulliken charges =  -0.00000   1.00000

 Dipole moment (field-independent basis, Debye):
    X=             -1.1948    Y=              0.0000    Z=             -0.0000  Tot=              1.1948
 Quadrupole moment (field-independent basis, Debye-Ang):
   XX=             -9.1346   YY=             -7.5852   ZZ=             -7.5852
   XY=              0.0000   XZ=             -0.0000   YZ=              0.0000

  Exact polarizability:      34.932       0.000       2.022      -0.000       0.000       2.022
 Approx polarizability:      41.455       0.000       1.919      -0.000      -0.000       1.919

 ******    2 imaginary frequencies (negative Signs) ******

                      1                      2                      3
                      A                      A                      A
 Frequencies --   -660.3586              -225.9785               259.6963
 Red. masses --      1.0428                 1.0691                 1.0201
 Frc consts  --      0.2679                 0.0322                 0.0405
 IR Inten    --     74.9727                 4.0213                 6.7548

                      4
                      A
 Frequencies --    259.6963
 Red. masses --      1.0201
 Frc consts  --      0.0405
 IR Inten    --      6.7548

 - Thermochemistry -
 -------------------
 Temperature   298.150 Kelvin.  Pressure   1.00000 Atm.
 Atom     1 has atomic number  1 and mass   1.00783

 Molecular mass:    21.01405 amu.
 Principal axes and moments of inertia in atomic units:
                           1         2         3
     Eigenvalues --     0.00000 118.48417 118.48417
           X            1.00000  -0.00000   0.00000
           Y            0.00000   1.00000   0.00000
           Z            0.00000   0.00000   1.00000
 This molecule is a prolate symmetric top.
 Rotational symmetry number  1.
 Rotational temperature (Kelvin)      0.73102
 Rotational constant (GHZ):          15.231919
    2 imaginary frequencies ignored.
 Zero-point vibrational energy       3106.7 (Joules/Mol)
                                    0.74251 (Kcal/Mol)
 Warning -- explicit consideration of   2 degrees of freedom as
           vibrations may cause significant error
 Vibrational temperatures:    373.65   373.65
          (Kelvin)

 Zero-point correction=                           0.001183 (Hartree/Particle)
 Thermal correction to Energy=                    0.004490
 Thermal correction to Enthalpy=                  0.005434
 Thermal correction to Gibbs Free Energy=        -0.020083
 Sum of electronic and zero-point Energies=           -100.767273
 Sum of electronic and thermal Energies=              -100.763967
 Sum of electronic and thermal Enthalpies=            -100.763023
 Sum of electronic and thermal Free Energies=         -100.788540

                     E (Thermal)             CV                S
                      KCal/Mol        Cal/Mol-Kelvin    Cal/Mol-Kelvin
 Total                    2.817              8.461             53.705
 Electronic               0.000              0.000              1.377
 Translational            0.889              2.981             35.068
 Rotational               0.592              1.987             13.932
 Vibrational              1.336              3.493              3.328
 Vibration     1          0.668              1.746              1.664
 Vibration     2          0.668              1.746              1.664

 Normal termination of Gaussian 16 at Fri Aug 22 17:45:43 2025.
