 Gaussian 16, Revision C.01,
 Gaussian 16:  ES64L-G16RevC.01  3-Jul-2019

 -----------------------------------------
 # sp b3lyp/6-311g** Force nosymm scf=(qc)
 -----------------------------------------

 -------------------
 Title Card Required
 -------------------
 Symbolic Z-matrix:
 Charge =  0 Multiplicity = 2

                          Input orientation:
 ---------------------------------------------------------------------
 Center     Atomic      Atomic             Coordinates (Angstroms)
 Number     Number       Type             X           Y           Z
 ---------------------------------------------------------------------
      1          1           0        0.000000    0.000000    0.000000
      2          1           0       -2.350000    0.000000    0.000000
      3          9           0        2.750000    0.000000    0.000000
 ---------------------------------------------------------------------

 SCF Done:  E(UB3LYP) =  -100.769024146     a.u. after   22 cycles

 Alpha  occ. eigenvalues --  -24.73123  -1.19244  -0.52234  -0.43861  -0.43861
 Alpha  occ. eigenvalues --   -0.33603
 Alpha virt. eigenvalues --   -0.11537   0.25224   0.33014   0.90263   0.92855
 Alpha virt. eigenvalues --    0.92855   1.05532   1.24126   1.24126   1.26055
 Alpha virt. eigenvalues --    1.38073   1.38073   1.41792   2.14251   2.34791

  Beta  occ. eigenvalues --  -24.70167  -1.10795  -0.40908  -0.40908  -0.34445
  Beta virt. eigenvalues --   -0.24243  -0.10025   0.25933   0.34115   0.94289
  Beta virt. eigenvalues --    0.94289   0.98547   1.09243   1.23144   1.23144
  Beta virt. eigenvalues --    1.25662   1.40545   1.40545   1.43678   2.15053

 Mulliken charges and spin densities:
               1          2
     1  H    0.045901  -0.889920
     2  H    0.011332   0.954368
     3  F   -0.057233   0.935553
 Sum of Mulliken charges =  -0.00000   1.00000

 Dipole moment (field-independent basis, Debye):
    X=             -0.9328    Y=             -0.0000    Z=             -0.0000  Tot=              0.9328
 Quadrupole moment (field-independent basis, Debye-Ang):
   XX=             -8.2506   YY=             -7.6500   ZZ=             -7.6500
   XY=             -0.0000   XZ=             -0.0000   YZ=              0.0000

  Exact polarizability:      49.369       0.000       2.010      -0.000      -0.000       2.010
 Approx polarizability:      47.741      -0.000       1.919      -0.000       0.000       1.919

 ******    2 imaginary frequencies (negative Signs) ******

                      1                      2                      3
                      A                      A                      A
 Frequencies --   -880.5672              -302.8755               338.4595
 Red. masses --      1.0105                 1.1053                 1.0161
 Frc consts  --      0.4617                 0.0597                 0.0686
 IR Inten    --     33.0383                30.9282                 1.5474

                      4
                      A
 Frequencies --    338.4595
 Red. masses --      1.0161
 Frc consts  --      0.0686
 IR Inten    --      1.5474

 - Thermochemistry -
 -------------------
 Temperature   298.150 Kelvin.  Pressure   1.00000 Atm.
 Atom     1 has atomic number  1 and mass   1.00783

 Molecular mass:    21.01405 amu.
 Principal axes and moments of inertia in atomic units:
                           1         2         3
     Eigenvalues --     0.00000 110.19124 110.19124
           X            1.00000  -0.00000   0.00000
           Y            0.00000   1.00000   0.00000
           Z            0.00000   0.00000   1.00000
 This molecule is a prolate symmetric top.
 Rotational symmetry number  1.
 Rotational temperature (Kelvin)      0.78603
 Rotational constant (GHZ):          16.378263
    2 imaginary frequencies ignored.
 Zero-point vibrational energy       4048.9 (Joules/Mol)
                                    0.96770 (Kcal/Mol)
 Warning -- explicit consideration of   2 degrees of freedom as
           vibrations may cause significant error
 Vibrational temperatures:    486.97   486.97
          (Kelvin)

 Zero-point correction=                           0.001542 (Hartree/Particle)
 Thermal correction to Energy=                    0.004651
 Thermal correction to Enthalpy=                  0.005595
 Thermal correction to Gibbs Free Energy=        -0.019431
 Sum of electronic and zero-point Energies=           -100.767482
 Sum of electronic and thermal Energies=              -100.764373
 Sum of electronic and thermal Enthalpies=            -100.763429
 Sum of electronic and thermal Free Energies=         -100.788455

                     E (Thermal)             CV                S
                      KCal/Mol        Cal/Mol-Kelvin    Cal/Mol-Kelvin
 Total                    2.919              8.165             52.672
 Electronic               0.000              0.000              1.377
 Translational            0.889              2.981             35.068
 Rotational               0.592              1.987             13.788
 Vibrational              1.437              3.197              2.439
 Vibration     1          0.719              1.599              1.219
 Vibration     2          0.719              1.599              1.219

 Normal termination of Gaussian 16 at Fri Aug 22 18:34:00 2025.
