 Gaussian 16, Revision C.01,
 Gaussian 16:  ES64L-G16RevC.01  3-Jul-2019

 -----------------------------------------
 # sp b3lyp/6-311g** Force nosymm scf=(qc)
 -----------------------------------------

 -------------------
 Title Card Required
 -------------------
 Symbolic Z-matrix:
 Charge =  0 Multiplicity = 2

                          Input orientation:
 ---------------------------------------------------------------------
 Center     Atomic      Atomic             Coordinates (Angstroms)
 Number     Number       Type             X           Y           Z
 ---------------------------------------------------------------------
      1          1           0        0.000000    0.000000    0.000000
      2          1           0       -2.850000    0.000000    0.000000
      3          9           0        1.050000    0.000000    0.000000
 ---------------------------------------------------------------------

 SCF Done:  E(UB3LYP) =  -100.958481201     a.u. after    6 cycles

 Alpha  occ. eigenvalues --  -24.64187  -1.14826  -0.50581  -0.38381  -0.38381
 Alpha  occ. eigenvalues --   -0.34477
 Alpha virt. eigenvalues --   -0.00471   0.24774   0.32226   0.93860   0.93860
 Alpha virt. eigenvalues --    0.99097   1.22333   1.23060   1.23060   1.32336
 Alpha virt. eigenvalues --    1.35587   1.35587   1.85108   2.14296   2.33484

  Beta  occ. eigenvalues --  -24.64176  -1.14798  -0.50540  -0.38372  -0.38372
  Beta virt. eigenvalues --   -0.08584   0.01019   0.32104   0.37843   0.93861
  Beta virt. eigenvalues --    0.93861   0.99111   1.30070   1.35572   1.35572
  Beta virt. eigenvalues --    1.46304   1.46304   1.48261   1.85320   2.33426

 Mulliken charges and spin densities:
               1          2
     1  H    0.328487   0.001465
     2  H    0.003973   0.994913
     3  F   -0.332460   0.003622
 Sum of Mulliken charges =   0.00000   1.00000

 Dipole moment (field-independent basis, Debye):
    X=             -2.1481    Y=             -0.0000    Z=             -0.0000  Tot=              2.1481
 Quadrupole moment (field-independent basis, Debye-Ang):
   XX=             -8.2365   YY=             -7.0046   ZZ=             -7.0046
   XY=             -0.0000   XZ=             -0.0000   YZ=             -0.0000

  Exact polarizability:       8.590       0.000       2.395      -0.000       0.000       2.395
 Approx polarizability:      10.369      -0.000       2.366       0.000       0.000       2.366

 ******    1 imaginary frequencies (negative Signs) ******

                      1                      2                      3
                      A                      A                      A
 Frequencies --    -91.2783              1109.7424              1109.7424
 Red. masses --      1.0529                 1.0330                 1.0330
 Frc consts  --      0.0052                 0.7495                 0.7495
 IR Inten    --      0.5048               155.6545               155.6545

                      4
                      A
 Frequencies --   2445.3640
 Red. masses --      1.0586
 Frc consts  --      3.7298
 IR Inten    --    101.4116

 - Thermochemistry -
 -------------------
 Temperature   298.150 Kelvin.  Pressure   1.00000 Atm.
 Atom     1 has atomic number  1 and mass   1.00783

 Molecular mass:    21.01405 amu.
 Principal axes and moments of inertia in atomic units:
                           1         2         3
     Eigenvalues --     0.00000  54.47953  54.47953
           X            1.00000  -0.00000   0.00000
           Y            0.00000   1.00000   0.00000
           Z            0.00000   0.00000   1.00000
 This molecule is a prolate symmetric top.
 Rotational symmetry number  1.
 Rotational temperature (Kelvin)      1.58984
 Rotational constant (GHZ):          33.126962
    1 imaginary frequencies ignored.
 Zero-point vibrational energy      27902.0 (Joules/Mol)
                                    6.66874 (Kcal/Mol)
 Vibrational temperatures:   1596.67  1596.67  3518.33
          (Kelvin)

 Zero-point correction=                           0.010627 (Hartree/Particle)
 Thermal correction to Energy=                    0.013036
 Thermal correction to Enthalpy=                  0.013980
 Thermal correction to Gibbs Free Energy=        -0.009279
 Sum of electronic and zero-point Energies=           -100.947854
 Sum of electronic and thermal Energies=              -100.945445
 Sum of electronic and thermal Enthalpies=            -100.944501
 Sum of electronic and thermal Free Energies=         -100.967761

                     E (Thermal)             CV                S
                      KCal/Mol        Cal/Mol-Kelvin    Cal/Mol-Kelvin
 Total                    8.180              5.514             48.954
 Electronic               0.000              0.000              1.377
 Translational            0.889              2.981             35.068
 Rotational               0.592              1.987             12.388
 Vibrational              6.699              0.546              0.120

 Normal termination of Gaussian 16 at Fri Aug 22 16:03:30 2025.
