 Gaussian 16, Revision C.01,
 Gaussian 16:  ES64L-G16RevC.01  3-Jul-2019

 -----------------------------------------
 # sp b3lyp/6-311g** Force nosymm scf=(qc)
 -----------------------------------------

 -------------------
 Title Card Required
 -------------------
 Symbolic Z-matrix:
 Charge =  0 Multiplicity = 2

                          Input orientation:
 ---------------------------------------------------------------------
 Center     Atomic      Atomic             Coordinates (Angstroms)
 Number     Number       Type             X           Y           Z
 ---------------------------------------------------------------------
      1          1           0        0.000000    0.000000    0.000000
      2          1           0       -1.700000    0.000000    0.000000
      3          9           0        0.850000    0.000000    0.000000
 ---------------------------------------------------------------------

 SCF Done:  E(UB3LYP) =  -100.964709890     a.u. after    6 cycles

 Alpha  occ. eigenvalues --  -24.63509  -1.20708  -0.55387  -0.39867  -0.39867
 Alpha  occ. eigenvalues --   -0.36331
 Alpha virt. eigenvalues --    0.09871   0.22596   0.40924   0.94494   0.94494
 Alpha virt. eigenvalues --    0.97793   1.18755   1.19504   1.19504   1.40225
 Alpha virt. eigenvalues --    1.40225   1.53817   2.01545   2.21611   2.54514

  Beta  occ. eigenvalues --  -24.63398  -1.20421  -0.54705  -0.39775  -0.39775
  Beta virt. eigenvalues --   -0.12959   0.11717   0.30927   0.43325   0.94546
  Beta virt. eigenvalues --    0.94546   0.98065   1.27808   1.33350   1.33350
  Beta virt. eigenvalues --    1.44761   1.44761   1.59534   2.11093   2.30405

 Mulliken charges and spin densities:
               1          2
     1  H    0.265354   0.009980
     2  H    0.018964   0.964662
     3  F   -0.284318   0.025357
 Sum of Mulliken charges =   0.00000   1.00000

 Dipole moment (field-independent basis, Debye):
    X=             -1.9738    Y=             -0.0000    Z=              0.0000  Tot=              1.9738
 Quadrupole moment (field-independent basis, Debye-Ang):
   XX=             -7.3616   YY=             -6.7441   ZZ=             -6.7441
   XY=             -0.0000   XZ=              0.0000   YZ=             -0.0000

  Exact polarizability:       9.044      -0.000       2.520      -0.000      -0.000       2.520
 Approx polarizability:       9.227       0.000       2.517      -0.000      -0.000       2.517

 ******    2 imaginary frequencies (negative Signs) ******

                      1                      2                      3
                      A                      A                      A
 Frequencies --  -1323.6951             -1323.6951               455.9841
 Red. masses --      1.0281                 1.0281                 1.0529
 Frc consts  --      1.0613                 1.0613                 0.1290
 IR Inten    --    137.6328               137.6328                 0.1041

                      4
                      A
 Frequencies --   5265.3510
 Red. masses --      1.0586
 Frc consts  --     17.2919
 IR Inten    --    191.7806

 - Thermochemistry -
 -------------------
 Temperature   298.150 Kelvin.  Pressure   1.00000 Atm.
 Atom     1 has atomic number  1 and mass   1.00783

 Molecular mass:    21.01405 amu.
 Principal axes and moments of inertia in atomic units:
                           1         2         3
     Eigenvalues --     0.00000  24.00750  24.00750
           X            1.00000  -0.00000   0.00000
           Y            0.00000   1.00000   0.00000
           Z            0.00000   0.00000   1.00000
 This molecule is a prolate symmetric top.
 Rotational symmetry number  1.
 Rotational temperature (Kelvin)      3.60779
 Rotational constant (GHZ):          75.174056
    2 imaginary frequencies ignored.
 Zero-point vibrational energy      34221.2 (Joules/Mol)
                                    8.17906 (Kcal/Mol)
 Warning -- explicit consideration of   1 degrees of freedom as
           vibrations may cause significant error
 Vibrational temperatures:    656.06  7575.67
          (Kelvin)

 Zero-point correction=                           0.013034 (Hartree/Particle)
 Thermal correction to Energy=                    0.015653
 Thermal correction to Enthalpy=                  0.016598
 Thermal correction to Gibbs Free Energy=        -0.006201
 Sum of electronic and zero-point Energies=           -100.951676
 Sum of electronic and thermal Energies=              -100.949057
 Sum of electronic and thermal Enthalpies=            -100.948112
 Sum of electronic and thermal Free Energies=         -100.970911

                     E (Thermal)             CV                S
                      KCal/Mol        Cal/Mol-Kelvin    Cal/Mol-Kelvin
 Total                    9.823              6.316             47.983
 Electronic               0.000              0.000              1.377
 Translational            0.889              2.981             35.068
 Rotational               0.592              1.987             10.760
 Vibrational              8.341              1.348              0.778
 Vibration     1          0.814              1.348              0.778

 Normal termination of Gaussian 16 at Fri Aug 22 15:53:15 2025.
