 Gaussian 16, Revision C.01,
 Gaussian 16:  ES64L-G16RevC.01  3-Jul-2019

 -----------------------------------------
 # sp b3lyp/6-311g** Force nosymm scf=(qc)
 -----------------------------------------

 -------------------
 Title Card Required
 -------------------
 Symbolic Z-matrix:
 Charge =  0 Multiplicity = 2

                          Input orientation:
 ---------------------------------------------------------------------
 Center     Atomic      Atomic             Coordinates (Angstroms)
 Number     Number       Type             X           Y           Z
 ---------------------------------------------------------------------
      1          1           0        0.000000    0.000000    0.000000
      2          1           0       -1.250000    0.000000    0.000000
      3          9           0        0.500000    0.000000    0.000000
 ---------------------------------------------------------------------

 SCF Done:  E(UB3LYP) =  -100.246079355     a.u. after    6 cycles

 Alpha  occ. eigenvalues --  -24.64089  -1.44185  -0.65449  -0.45428  -0.45428
 Alpha  occ. eigenvalues --   -0.34844
 Alpha virt. eigenvalues --    0.15674   0.21276   0.73590   0.87531   0.88113
 Alpha virt. eigenvalues --    0.88113   1.14661   1.14661   1.49857   1.69327
 Alpha virt. eigenvalues --    1.69327   1.76628   2.04647   2.36639   3.75607

  Beta  occ. eigenvalues --  -24.63920  -1.43596  -0.64755  -0.45313  -0.45313
  Beta virt. eigenvalues --   -0.11108   0.16572   0.29689   0.79561   0.87722
  Beta virt. eigenvalues --    0.88688   0.88688   1.26873   1.26873   1.50654
  Beta virt. eigenvalues --    1.73801   1.73801   1.84453   2.12754   2.57518

 Mulliken charges and spin densities:
               1          2
     1  H    0.133233   0.007701
     2  H   -0.007120   0.986200
     3  F   -0.126112   0.006099
 Sum of Mulliken charges =   0.00000   1.00000

 Dipole moment (field-independent basis, Debye):
    X=             -1.0965    Y=             -0.0000    Z=              0.0000  Tot=              1.0965
 Quadrupole moment (field-independent basis, Debye-Ang):
   XX=             -6.8340   YY=             -6.3436   ZZ=             -6.3436
   XY=             -0.0000   XZ=              0.0000   YZ=              0.0000

  Exact polarizability:       5.666      -0.000       2.485      -0.000       0.000       2.485
 Approx polarizability:       5.336      -0.000       2.523       0.000      -0.000       2.523

 ******    2 imaginary frequencies (negative Signs) ******

                      1                      2                      3
                      A                      A                      A
 Frequencies --  -9337.1261             -9337.1261              1506.0600
 Red. masses --      1.0317                 1.0317                 1.0536
 Frc consts  --     52.9931                52.9931                 1.4080
 IR Inten    --    195.5379               195.5379                35.5002

                      4
                      A
 Frequencies --  19171.0390
 Red. masses --      1.0580
 Frc consts  --    229.0958
 IR Inten    --     52.5207

 - Thermochemistry -
 -------------------
 Temperature   298.150 Kelvin.  Pressure   1.00000 Atm.
 Atom     1 has atomic number  1 and mass   1.00783

 Molecular mass:    21.01405 amu.
 Principal axes and moments of inertia in atomic units:
                           1         2         3
     Eigenvalues --     0.00000  11.04789  11.04789
           X            1.00000  -0.00000   0.00000
           Y            0.00000   1.00000   0.00000
           Z            0.00000   0.00000   1.00000
 This molecule is a prolate symmetric top.
 Rotational symmetry number  1.
 Rotational temperature (Kelvin)      7.83986
 Rotational constant (GHZ):         163.356140
    2 imaginary frequencies ignored.
 Zero-point vibrational energy     123676.5 (Joules/Mol)
                                   29.55940 (Kcal/Mol)
 Vibrational temperatures:   2166.88 27582.85
          (Kelvin)

 Zero-point correction=                           0.047106 (Hartree/Particle)
 Thermal correction to Energy=                    0.049471
 Thermal correction to Enthalpy=                  0.050415
 Thermal correction to Gibbs Free Energy=         0.028714
 Sum of electronic and zero-point Energies=           -100.198973
 Sum of electronic and thermal Energies=              -100.196608
 Sum of electronic and thermal Enthalpies=            -100.195664
 Sum of electronic and thermal Free Energies=         -100.217365

                     E (Thermal)             CV                S
                      KCal/Mol        Cal/Mol-Kelvin    Cal/Mol-Kelvin
 Total                   31.044              5.041             45.674
 Electronic               0.000              0.000              1.377
 Translational            0.889              2.981             35.068
 Rotational               0.592              1.987              9.217
 Vibrational             29.562              0.073              0.011

 Normal termination of Gaussian 16 at Fri Aug 22 15:36:23 2025.
