 Gaussian 16, Revision C.01,
 Gaussian 16:  ES64L-G16RevC.01  3-Jul-2019

 -----------------------------------------
 # sp b3lyp/6-311g** Force nosymm scf=(qc)
 -----------------------------------------

 -------------------
 Title Card Required
 -------------------
 Symbolic Z-matrix:
 Charge =  0 Multiplicity = 2

                          Input orientation:
 ---------------------------------------------------------------------
 Center     Atomic      Atomic             Coordinates (Angstroms)
 Number     Number       Type             X           Y           Z
 ---------------------------------------------------------------------
      1          1           0        0.000000    0.000000    0.000000
      2          1           0       -3.250000    0.000000    0.000000
      3          9           0        3.500000    0.000000    0.000000
 ---------------------------------------------------------------------

 SCF Done:  E(UB3LYP) =  -100.759441907     a.u. after   36 cycles

 Alpha  occ. eigenvalues --  -24.75391  -1.21354  -0.54514  -0.45771  -0.45771
 Alpha  occ. eigenvalues --   -0.32384
 Alpha virt. eigenvalues --   -0.07480   0.24570   0.36583   0.87607   0.91477
 Alpha virt. eigenvalues --    0.91477   1.01815   1.25132   1.25132   1.25484
 Alpha virt. eigenvalues --    1.44527   1.44670   1.44670   2.15377   2.40397

  Beta  occ. eigenvalues --  -24.72277  -1.12406  -0.42650  -0.42650  -0.32847
  Beta virt. eigenvalues --   -0.25487  -0.06936   0.24346   0.37472   0.92967
  Beta virt. eigenvalues --    0.92967   0.96747   1.05828   1.24599   1.24599
  Beta virt. eigenvalues --    1.24924   1.45329   1.45545   1.45545   2.15627

 Mulliken charges and spin densities:
               1          2
     1  H    0.011107  -0.983418
     2  H    0.000348   0.996044
     3  F   -0.011455   0.987373
 Sum of Mulliken charges =  -0.00000   1.00000

 Dipole moment (field-independent basis, Debye):
    X=             -0.2116    Y=             -0.0000    Z=             -0.0000  Tot=              0.2116
 Quadrupole moment (field-independent basis, Debye-Ang):
   XX=             -7.3641   YY=             -7.6266   ZZ=             -7.6266
   XY=             -0.0000   XZ=             -0.0000   YZ=             -0.0000

  Exact polarizability:      24.626      -0.000       2.033      -0.000      -0.000       2.033
 Approx polarizability:      19.359      -0.000       1.932      -0.000       0.000       1.932

 ******    2 imaginary frequencies (negative Signs) ******

                      1                      2                      3
                      A                      A                      A
 Frequencies --   -286.7550              -119.6057                94.4000
 Red. masses --      1.0170                 1.0976                 1.0171
 Frc consts  --      0.0493                 0.0093                 0.0053
 IR Inten    --      8.9986                 2.6285                 0.1057

                      4
                      A
 Frequencies --     94.4000
 Red. masses --      1.0171
 Frc consts  --      0.0053
 IR Inten    --      0.1057

 - Thermochemistry -
 -------------------
 Temperature   298.150 Kelvin.  Pressure   1.00000 Atm.
 Atom     1 has atomic number  1 and mass   1.00783

 Molecular mass:    21.01405 amu.
 Principal axes and moments of inertia in atomic units:
                           1         2         3
     Eigenvalues --     0.00000 189.93317 189.93317
           X            1.00000  -0.00000   0.00000
           Y            0.00000   1.00000   0.00000
           Z            0.00000   0.00000   1.00000
 This molecule is a prolate symmetric top.
 Rotational symmetry number  1.
 Rotational temperature (Kelvin)      0.45602
 Rotational constant (GHZ):           9.501980
    2 imaginary frequencies ignored.
 Zero-point vibrational energy       1129.3 (Joules/Mol)
                                    0.26990 (Kcal/Mol)
 Warning -- explicit consideration of   2 degrees of freedom as
           vibrations may cause significant error
 Vibrational temperatures:    135.82   135.82
          (Kelvin)

 Zero-point correction=                           0.000430 (Hartree/Particle)
 Thermal correction to Energy=                    0.004281
 Thermal correction to Enthalpy=                  0.005226
 Thermal correction to Gibbs Free Energy=        -0.022545
 Sum of electronic and zero-point Energies=           -100.759012
 Sum of electronic and thermal Energies=              -100.755161
 Sum of electronic and thermal Enthalpies=            -100.754216
 Sum of electronic and thermal Free Energies=         -100.781987

                     E (Thermal)             CV                S
                      KCal/Mol        Cal/Mol-Kelvin    Cal/Mol-Kelvin
 Total                    2.687              8.874             58.449
 Electronic               0.000              0.000              1.377
 Translational            0.889              2.981             35.068
 Rotational               0.592              1.987             14.870
 Vibrational              1.205              3.906              7.134
 Vibration     1          0.603              1.953              3.567
 Vibration     2          0.603              1.953              3.567

 Normal termination of Gaussian 16 at Fri Aug 22 22:10:57 2025.
