 Gaussian 16, Revision C.01,
 Gaussian 16:  ES64L-G16RevC.01  3-Jul-2019

 -----------------------------------------
 # sp b3lyp/6-311g** Force nosymm scf=(qc)
 -----------------------------------------

 -------------------
 Title Card Required
 -------------------
 Symbolic Z-matrix:
 Charge =  0 Multiplicity = 2

                          Input orientation:
 ---------------------------------------------------------------------
 Center     Atomic      Atomic             Coordinates (Angstroms)
 Number     Number       Type             X           Y           Z
 ---------------------------------------------------------------------
      1          1           0        0.000000    0.000000    0.000000
      2          1           0       -2.650000    0.000000    0.000000
      3          9           0        3.650000    0.000000    0.000000
 ---------------------------------------------------------------------

 SCF Done:  E(UB3LYP) =  -100.761423558     a.u. after   29 cycles

 Alpha  occ. eigenvalues --  -24.75640  -1.21584  -0.54763  -0.45981  -0.45981
 Alpha  occ. eigenvalues --   -0.32529
 Alpha virt. eigenvalues --   -0.08892   0.25550   0.35006   0.87177   0.91320
 Alpha virt. eigenvalues --    0.91320   1.01464   1.25070   1.25070   1.26520
 Alpha virt. eigenvalues --    1.42442   1.42442   1.43252   2.16017   2.37829

  Beta  occ. eigenvalues --  -24.72511  -1.12589  -0.42844  -0.42844  -0.32793
  Beta virt. eigenvalues --   -0.25621  -0.08509   0.25348   0.35570   0.92814
  Beta virt. eigenvalues --    0.92814   0.96429   1.05540   1.24766   1.24766
  Beta virt. eigenvalues --    1.26169   1.43028   1.43028   1.43837   2.16305

 Mulliken charges and spin densities:
               1          2
     1  H    0.005827  -0.972500
     2  H    0.001184   0.980360
     3  F   -0.007011   0.992140
 Sum of Mulliken charges =   0.00000   1.00000

 Dipole moment (field-independent basis, Debye):
    X=             -0.1465    Y=              0.0000    Z=              0.0000  Tot=              0.1465
 Quadrupole moment (field-independent basis, Debye-Ang):
   XX=             -7.0068   YY=             -7.6543   ZZ=             -7.6543
   XY=             -0.0000   XZ=             -0.0000   YZ=              0.0000

  Exact polarizability:      25.871      -0.000       2.016       0.000       0.000       2.016
 Approx polarizability:      19.135      -0.000       1.931      -0.000      -0.000       1.931

 ******    2 imaginary frequencies (negative Signs) ******

                      1                      2                      3
                      A                      A                      A
 Frequencies --   -541.1250              -115.7650               197.0968
 Red. masses --      1.0081                 1.1082                 1.0145
 Frc consts  --      0.1739                 0.0088                 0.0232
 IR Inten    --      3.3229                 3.2626                 0.0293

                      4
                      A
 Frequencies --    197.0968
 Red. masses --      1.0145
 Frc consts  --      0.0232
 IR Inten    --      0.0293

 - Thermochemistry -
 -------------------
 Temperature   298.150 Kelvin.  Pressure   1.00000 Atm.
 Atom     1 has atomic number  1 and mass   1.00783

 Molecular mass:    21.01405 amu.
 Principal axes and moments of inertia in atomic units:
                           1         2         3
     Eigenvalues --     0.00000 173.70392 173.70392
           X            1.00000  -0.00000   0.00000
           Y            0.00000   1.00000   0.00000
           Z            0.00000   0.00000   1.00000
 This molecule is a prolate symmetric top.
 Rotational symmetry number  1.
 Rotational temperature (Kelvin)      0.49863
 Rotational constant (GHZ):          10.389755
    2 imaginary frequencies ignored.
 Zero-point vibrational energy       2357.8 (Joules/Mol)
                                    0.56353 (Kcal/Mol)
 Warning -- explicit consideration of   2 degrees of freedom as
           vibrations may cause significant error
 Vibrational temperatures:    283.58   283.58
          (Kelvin)

 Zero-point correction=                           0.000898 (Hartree/Particle)
 Thermal correction to Energy=                    0.004389
 Thermal correction to Enthalpy=                  0.005333
 Thermal correction to Gibbs Free Energy=        -0.021017
 Sum of electronic and zero-point Energies=           -100.760526
 Sum of electronic and thermal Energies=              -100.757034
 Sum of electronic and thermal Enthalpies=            -100.756090
 Sum of electronic and thermal Free Energies=         -100.782440

                     E (Thermal)             CV                S
                      KCal/Mol        Cal/Mol-Kelvin    Cal/Mol-Kelvin
 Total                    2.754              8.656             55.458
 Electronic               0.000              0.000              1.377
 Translational            0.889              2.981             35.068
 Rotational               0.592              1.987             14.692
 Vibrational              1.273              3.688              4.320
 Vibration     1          0.636              1.844              2.160
 Vibration     2          0.636              1.844              2.160

 Normal termination of Gaussian 16 at Fri Aug 22 23:36:46 2025.
