 Gaussian 16, Revision C.01,
 Gaussian 16:  ES64L-G16RevC.01  3-Jul-2019

 -----------------------------------------
 # sp b3lyp/6-311g** Force nosymm scf=(qc)
 -----------------------------------------

 -------------------
 Title Card Required
 -------------------
 Symbolic Z-matrix:
 Charge =  0 Multiplicity = 2

                          Input orientation:
 ---------------------------------------------------------------------
 Center     Atomic      Atomic             Coordinates (Angstroms)
 Number     Number       Type             X           Y           Z
 ---------------------------------------------------------------------
      1          1           0        0.000000    0.000000    0.000000
      2          1           0       -3.100000    0.000000    0.000000
      3          9           0        0.550000    0.000000    0.000000
 ---------------------------------------------------------------------

 SCF Done:  E(UB3LYP) =  -100.519277950     a.u. after    6 cycles

 Alpha  occ. eigenvalues --  -24.62689  -1.38425  -0.62256  -0.43627  -0.43627
 Alpha  occ. eigenvalues --   -0.33583
 Alpha virt. eigenvalues --    0.07981   0.25500   0.60446   0.91199   0.91222
 Alpha virt. eigenvalues --    0.91222   1.22960   1.23938   1.23938   1.38290
 Alpha virt. eigenvalues --    1.54141   1.54141   1.96891   2.15219   3.65600

  Beta  occ. eigenvalues --  -24.62688  -1.38421  -0.62254  -0.43627  -0.43627
  Beta virt. eigenvalues --   -0.05663   0.08832   0.39411   0.60514   0.91206
  Beta virt. eigenvalues --    0.91218   0.91218   1.35225   1.50435   1.50435
  Beta virt. eigenvalues --    1.52563   1.54144   1.54144   1.96727   2.45144

 Mulliken charges and spin densities:
               1          2
     1  H    0.198803   0.000959
     2  H    0.001566   0.998063
     3  F   -0.200369   0.000978
 Sum of Mulliken charges =   0.00000   1.00000

 Dipole moment (field-independent basis, Debye):
    X=             -1.3810    Y=             -0.0000    Z=             -0.0000  Tot=              1.3810
 Quadrupole moment (field-independent basis, Debye-Ang):
   XX=             -6.7571   YY=             -6.4952   ZZ=             -6.4952
   XY=             -0.0000   XZ=             -0.0000   YZ=              0.0000

  Exact polarizability:       3.626      -0.000       2.434      -0.000      -0.000       2.434
 Approx polarizability:       3.761       0.000       2.414       0.000      -0.000       2.414

 ******    3 imaginary frequencies (negative Signs) ******

                      1                      2                      3
                      A                      A                      A
 Frequencies --  -7494.1499             -7494.1499                -6.7818
 Red. masses --      1.0435                 1.0435                 1.0532
 Frc consts  --     34.5280                34.5280                 0.0000
 IR Inten    --    254.8192               254.8192                 0.0623

                      4
                      A
 Frequencies --  15777.8841
 Red. masses --      1.0583
 Frc consts  --    155.2248
 IR Inten    --     91.3001

 - Thermochemistry -
 -------------------
 Temperature   298.150 Kelvin.  Pressure   1.00000 Atm.
 Atom     1 has atomic number  1 and mass   1.00783

 Molecular mass:    21.01405 amu.
 Principal axes and moments of inertia in atomic units:
                           1         2         3
     Eigenvalues --     0.00000  45.99171  45.99171
           X            1.00000  -0.00000   0.00000
           Y            0.00000   1.00000   0.00000
           Z            0.00000   0.00000   1.00000
 This molecule is a prolate symmetric top.
 Rotational symmetry number  1.
 Rotational temperature (Kelvin)      1.88325
 Rotational constant (GHZ):          39.240580
    3 imaginary frequencies ignored.
 Zero-point vibrational energy      94372.7 (Joules/Mol)
                                   22.55562 (Kcal/Mol)
 Vibrational temperatures:  22700.86
          (Kelvin)

 Zero-point correction=                           0.035945 (Hartree/Particle)
 Thermal correction to Energy=                    0.038305
 Thermal correction to Enthalpy=                  0.039249
 Thermal correction to Gibbs Free Energy=         0.016207
 Sum of electronic and zero-point Energies=           -100.483333
 Sum of electronic and thermal Energies=              -100.480973
 Sum of electronic and thermal Enthalpies=            -100.480029
 Sum of electronic and thermal Free Energies=         -100.503071

                     E (Thermal)             CV                S
                      KCal/Mol        Cal/Mol-Kelvin    Cal/Mol-Kelvin
 Total                   24.037              4.968             48.497
 Electronic               0.000              0.000              1.377
 Translational            0.889              2.981             35.068
 Rotational               0.592              1.987             12.052
 Vibrational             22.556              0.000              0.000

 Normal termination of Gaussian 16 at Fri Aug 22 15:40:03 2025.
