 Gaussian 16, Revision C.01,
 Gaussian 16:  ES64L-G16RevC.01  3-Jul-2019

 -----------------------------------------
 # sp b3lyp/6-311g** Force nosymm scf=(qc)
 -----------------------------------------

 -------------------
 Title Card Required
 -------------------
 Symbolic Z-matrix:
 Charge =  0 Multiplicity = 2

                          Input orientation:
 ---------------------------------------------------------------------
 Center     Atomic      Atomic             Coordinates (Angstroms)
 Number     Number       Type             X           Y           Z
 ---------------------------------------------------------------------
      1          1           0        0.000000    0.000000    0.000000
      2          1           0       -3.650000    0.000000    0.000000
      3          9           0        2.450000    0.000000    0.000000
 ---------------------------------------------------------------------

 SCF Done:  E(UB3LYP) =  -100.768523820     a.u. after   17 cycles

 Alpha  occ. eigenvalues --  -24.71436  -1.17670  -0.50534  -0.42458  -0.42458
 Alpha  occ. eigenvalues --   -0.32884
 Alpha virt. eigenvalues --   -0.10528   0.23344   0.35046   0.89440   0.93770
 Alpha virt. eigenvalues --    0.93770   1.06268   1.24622   1.24622   1.24706
 Alpha virt. eigenvalues --    1.40045   1.40045   1.45434   2.14267   2.36229

  Beta  occ. eigenvalues --  -24.68623  -1.09672  -0.39655  -0.39655  -0.35569
  Beta virt. eigenvalues --   -0.23138  -0.06520   0.23733   0.38025   0.95107
  Beta virt. eigenvalues --    0.95107   0.95228   1.08464   1.21949   1.21949
  Beta virt. eigenvalues --    1.31257   1.45989   1.46241   1.46241   2.12375

 Mulliken charges and spin densities:
               1          2
     1  H    0.097478  -0.887074
     2  H    0.000649   0.998559
     3  F   -0.098127   0.888514
 Sum of Mulliken charges =   0.00000   1.00000

 Dipole moment (field-independent basis, Debye):
    X=             -1.2317    Y=             -0.0000    Z=             -0.0000  Tot=              1.2317
 Quadrupole moment (field-independent basis, Debye-Ang):
   XX=             -9.4151   YY=             -7.5633   ZZ=             -7.5633
   XY=             -0.0000   XZ=             -0.0000   YZ=              0.0000

  Exact polarizability:      30.072      -0.000       2.027      -0.000       0.000       2.027
 Approx polarizability:      38.762      -0.000       1.921      -0.000       0.000       1.921

 ******    2 imaginary frequencies (negative Signs) ******

                      1                      2                      3
                      A                      A                      A
 Frequencies --   -648.3608              -102.1131               257.2173
 Red. masses --      1.0557                 1.0559                 1.0234
 Frc consts  --      0.2615                 0.0065                 0.0399
 IR Inten    --     84.9200                 0.1440                 9.1505

                      4
                      A
 Frequencies --    257.2173
 Red. masses --      1.0234
 Frc consts  --      0.0399
 IR Inten    --      9.1505

 - Thermochemistry -
 -------------------
 Temperature   298.150 Kelvin.  Pressure   1.00000 Atm.
 Atom     1 has atomic number  1 and mass   1.00783

 Molecular mass:    21.01405 amu.
 Principal axes and moments of inertia in atomic units:
                           1         2         3
     Eigenvalues --     0.00000 142.90416 142.90416
           X            1.00000  -0.00000   0.00000
           Y            0.00000   1.00000   0.00000
           Z            0.00000   0.00000   1.00000
 This molecule is a prolate symmetric top.
 Rotational symmetry number  1.
 Rotational temperature (Kelvin)      0.60610
 Rotational constant (GHZ):          12.629032
    2 imaginary frequencies ignored.
 Zero-point vibrational energy       3077.0 (Joules/Mol)
                                    0.73542 (Kcal/Mol)
 Warning -- explicit consideration of   2 degrees of freedom as
           vibrations may cause significant error
 Vibrational temperatures:    370.08   370.08
          (Kelvin)

 Zero-point correction=                           0.001172 (Hartree/Particle)
 Thermal correction to Energy=                    0.004485
 Thermal correction to Enthalpy=                  0.005429
 Thermal correction to Gibbs Free Energy=        -0.020280
 Sum of electronic and zero-point Energies=           -100.767352
 Sum of electronic and thermal Energies=              -100.764039
 Sum of electronic and thermal Enthalpies=            -100.763094
 Sum of electronic and thermal Free Energies=         -100.788804

                     E (Thermal)             CV                S
                      KCal/Mol        Cal/Mol-Kelvin    Cal/Mol-Kelvin
 Total                    2.815              8.469             54.111
 Electronic               0.000              0.000              1.377
 Translational            0.889              2.981             35.068
 Rotational               0.592              1.987             14.305
 Vibrational              1.333              3.501              3.361
 Vibration     1          0.667              1.751              1.681
 Vibration     2          0.667              1.751              1.681

 Normal termination of Gaussian 16 at Fri Aug 22 17:39:53 2025.
