 Gaussian 16, Revision C.01,
 Gaussian 16:  ES64L-G16RevC.01  3-Jul-2019

 -----------------------------------------
 # sp b3lyp/6-311g** Force nosymm scf=(qc)
 -----------------------------------------

 -------------------
 Title Card Required
 -------------------
 Symbolic Z-matrix:
 Charge =  0 Multiplicity = 2

                          Input orientation:
 ---------------------------------------------------------------------
 Center     Atomic      Atomic             Coordinates (Angstroms)
 Number     Number       Type             X           Y           Z
 ---------------------------------------------------------------------
      1          1           0        0.000000    0.000000    0.000000
      2          1           0       -0.900000    0.000000    0.000000
      3          9           0        2.800000    0.000000    0.000000
 ---------------------------------------------------------------------

 SCF Done:  E(UB3LYP) =  -100.921770135     a.u. after    6 cycles

 Alpha  occ. eigenvalues --  -24.76125  -1.22023  -0.55270  -0.46395  -0.46395
 Alpha  occ. eigenvalues --   -0.40926
 Alpha virt. eigenvalues --    0.02445   0.20608   0.41764   0.89946   0.90971
 Alpha virt. eigenvalues --    0.90971   1.07269   1.07853   1.07853   1.44827
 Alpha virt. eigenvalues --    1.71735   1.71735   2.18851   2.37921   2.73577

  Beta  occ. eigenvalues --  -24.72991  -1.13011  -0.43253  -0.43253  -0.40890
  Beta virt. eigenvalues --   -0.26184   0.02716   0.20792   0.42164   0.92458
  Beta virt. eigenvalues --    0.92458   0.98491   1.07926   1.07926   1.11675
  Beta virt. eigenvalues --    1.44904   1.71787   1.71787   2.18963   2.38012

 Mulliken charges and spin densities:
               1          2
     1  H   -0.011559  -0.005763
     2  H    0.012470   0.013186
     3  F   -0.000911   0.992577
 Sum of Mulliken charges =   0.00000   1.00000

 Dipole moment (field-independent basis, Debye):
    X=             -0.0770    Y=             -0.0000    Z=              0.0000  Tot=              0.0770
 Quadrupole moment (field-independent basis, Debye-Ang):
   XX=             -5.5524   YY=             -7.1471   ZZ=             -7.1471
   XY=             -0.0000   XZ=              0.0000   YZ=             -0.0000

  Exact polarizability:      14.309      -0.000       2.035       0.000       0.000       2.035
 Approx polarizability:      16.445      -0.000       2.099       0.000      -0.000       2.099

 ******    1 imaginary frequencies (negative Signs) ******

                      1                      2                      3
                      A                      A                      A
 Frequencies --   -102.0735              1439.9871              1439.9871
 Red. masses --      1.1085                 1.0097                 1.0097
 Frc consts  --      0.0068                 1.2336                 1.2336
 IR Inten    --      1.2675                 0.1509                 0.1509

                      4
                      A
 Frequencies --   2627.6350
 Red. masses --      1.0078
 Frc consts  --      4.0998
 IR Inten    --     14.8569

 - Thermochemistry -
 -------------------
 Temperature   298.150 Kelvin.  Pressure   1.00000 Atm.
 Atom     1 has atomic number  1 and mass   1.00783

 Molecular mass:    21.01405 amu.
 Principal axes and moments of inertia in atomic units:
                           1         2         3
     Eigenvalues --     0.00000  70.19401  70.19401
           X            1.00000  -0.00000   0.00000
           Y            0.00000   1.00000   0.00000
           Z            0.00000   0.00000   1.00000
 This molecule is a prolate symmetric top.
 Rotational symmetry number  1.
 Rotational temperature (Kelvin)      1.23392
 Rotational constant (GHZ):          25.710757
    1 imaginary frequencies ignored.
 Zero-point vibrational energy      32942.8 (Joules/Mol)
                                    7.87352 (Kcal/Mol)
 Vibrational temperatures:   2071.82  2071.82  3780.58
          (Kelvin)

 Zero-point correction=                           0.012547 (Hartree/Particle)
 Thermal correction to Energy=                    0.014920
 Thermal correction to Enthalpy=                  0.015865
 Thermal correction to Gibbs Free Energy=        -0.007592
 Sum of electronic and zero-point Energies=           -100.909223
 Sum of electronic and thermal Energies=              -100.906850
 Sum of electronic and thermal Enthalpies=            -100.905906
 Sum of electronic and thermal Free Energies=         -100.929362

                     E (Thermal)             CV                S
                      KCal/Mol        Cal/Mol-Kelvin    Cal/Mol-Kelvin
 Total                    9.363              5.154             49.368
 Electronic               0.000              0.000              1.377
 Translational            0.889              2.981             35.068
 Rotational               0.592              1.987             12.892
 Vibrational              7.881              0.186              0.030

 Normal termination of Gaussian 16 at Fri Aug 22 18:38:54 2025.
