 Gaussian 16, Revision C.01,
 Gaussian 16:  ES64L-G16RevC.01  3-Jul-2019

 -----------------------------------------
 # sp b3lyp/6-311g** Force nosymm scf=(qc)
 -----------------------------------------

 -------------------
 Title Card Required
 -------------------
 Symbolic Z-matrix:
 Charge =  0 Multiplicity = 2

                          Input orientation:
 ---------------------------------------------------------------------
 Center     Atomic      Atomic             Coordinates (Angstroms)
 Number     Number       Type             X           Y           Z
 ---------------------------------------------------------------------
      1          1           0        0.000000    0.000000    0.000000
      2          1           0       -0.750000    0.000000    0.000000
      3          9           0        0.600000    0.000000    0.000000
 ---------------------------------------------------------------------

 SCF Done:  E(UB3LYP) =  -100.568172652     a.u. after    7 cycles

 Alpha  occ. eigenvalues --  -24.67458  -1.42928  -0.70160  -0.47518  -0.47518
 Alpha  occ. eigenvalues --   -0.29754
 Alpha virt. eigenvalues --    0.16808   0.19460   0.83714   0.85094   0.85094
 Alpha virt. eigenvalues --    0.94332   1.10429   1.10429   1.43815   1.61883
 Alpha virt. eigenvalues --    1.90024   1.90024   2.19581   2.87661   3.73452

  Beta  occ. eigenvalues --  -24.66804  -1.40746  -0.67321  -0.46982  -0.46982
  Beta virt. eigenvalues --   -0.10151   0.17431   0.25689   0.85623   0.86665
  Beta virt. eigenvalues --    0.86665   0.98682   1.16729   1.16729   1.46123
  Beta virt. eigenvalues --    1.67507   1.95770   1.95770   2.28422   2.96588

 Mulliken charges and spin densities:
               1          2
     1  H    0.266920  -0.047705
     2  H   -0.106199   0.978864
     3  F   -0.160721   0.068841
 Sum of Mulliken charges =   0.00000   1.00000

 Dipole moment (field-independent basis, Debye):
    X=             -0.5552    Y=             -0.0000    Z=             -0.0000  Tot=              0.5552
 Quadrupole moment (field-independent basis, Debye-Ang):
   XX=             -7.4802   YY=             -6.4193   ZZ=             -6.4193
   XY=             -0.0000   XZ=             -0.0000   YZ=              0.0000

  Exact polarizability:       7.426      -0.000       2.465       0.000      -0.000       2.465
 Approx polarizability:       7.196       0.000       2.556       0.000      -0.000       2.556

 ******    2 imaginary frequencies (negative Signs) ******

                      1                      2                      3
                      A                      A                      A
 Frequencies --  -6012.2001             -6012.2001              3667.0424
 Red. masses --      1.0209                 1.0209                 1.0587
 Frc consts  --     21.7413                21.7413                 8.3876
 IR Inten    --    149.8600               149.8600               262.8746

                      4
                      A
 Frequencies --  13236.1858
 Red. masses --      1.0529
 Frc consts  --    108.6841
 IR Inten    --     27.5530

 - Thermochemistry -
 -------------------
 Temperature   298.150 Kelvin.  Pressure   1.00000 Atm.
 Atom     1 has atomic number  1 and mass   1.00783

 Molecular mass:    21.01405 amu.
 Principal axes and moments of inertia in atomic units:
                           1         2         3
     Eigenvalues --     0.00000   7.19850   7.19850
           X            1.00000  -0.00000   0.00000
           Y            0.00000   1.00000   0.00000
           Z            0.00000   0.00000   1.00000
 This molecule is a prolate symmetric top.
 Rotational symmetry number  1.
 Rotational temperature (Kelvin)     12.03222
 Rotational constant (GHZ):         250.710790
    2 imaginary frequencies ignored.
 Zero-point vibrational energy     101103.8 (Joules/Mol)
                                   24.16438 (Kcal/Mol)
 Vibrational temperatures:   5276.06 19043.92
          (Kelvin)

 Zero-point correction=                           0.038508 (Hartree/Particle)
 Thermal correction to Energy=                    0.040869
 Thermal correction to Enthalpy=                  0.041813
 Thermal correction to Gibbs Free Energy=         0.020522
 Sum of electronic and zero-point Energies=           -100.529664
 Sum of electronic and thermal Energies=              -100.527304
 Sum of electronic and thermal Enthalpies=            -100.526360
 Sum of electronic and thermal Free Energies=         -100.547651

                     E (Thermal)             CV                S
                      KCal/Mol        Cal/Mol-Kelvin    Cal/Mol-Kelvin
 Total                   25.646              4.968             44.812
 Electronic               0.000              0.000              1.377
 Translational            0.889              2.981             35.068
 Rotational               0.592              1.987              8.366
 Vibrational             24.164              0.000              0.000

 Normal termination of Gaussian 16 at Fri Aug 22 15:40:49 2025.
