 Gaussian 16, Revision C.01,
 Gaussian 16:  ES64L-G16RevC.01  3-Jul-2019

 -----------------------------------------
 # sp b3lyp/6-311g** Force nosymm scf=(qc)
 -----------------------------------------

 -------------------
 Title Card Required
 -------------------
 Symbolic Z-matrix:
 Charge =  0 Multiplicity = 2

                          Input orientation:
 ---------------------------------------------------------------------
 Center     Atomic      Atomic             Coordinates (Angstroms)
 Number     Number       Type             X           Y           Z
 ---------------------------------------------------------------------
      1          1           0        0.000000    0.000000    0.000000
      2          1           0       -3.800000    0.000000    0.000000
      3          9           0        2.100000    0.000000    0.000000
 ---------------------------------------------------------------------

 SCF Done:  E(UB3LYP) =  -100.781164786     a.u. after   18 cycles

 Alpha  occ. eigenvalues --  -24.69027  -1.15350  -0.48053  -0.40439  -0.40439
 Alpha  occ. eigenvalues --   -0.33145
 Alpha virt. eigenvalues --   -0.13008   0.22656   0.32545   0.88279   0.94709
 Alpha virt. eigenvalues --    0.94709   1.05742   1.24360   1.24360   1.24376
 Alpha virt. eigenvalues --    1.36493   1.36493   1.55829   2.13809   2.31100

  Beta  occ. eigenvalues --  -24.66512  -1.08284  -0.37952  -0.37952  -0.37335
  Beta virt. eigenvalues --   -0.21383  -0.06443   0.22779   0.38057   0.90315
  Beta virt. eigenvalues --    0.95600   0.95600   1.08111   1.21593   1.21593
  Beta virt. eigenvalues --    1.45936   1.46398   1.46398   1.47666   2.11446

 Mulliken charges and spin densities:
               1          2
     1  H    0.166778  -0.790424
     2  H    0.000673   0.998935
     3  F   -0.167451   0.791488
 Sum of Mulliken charges =  -0.00000   1.00000

 Dipole moment (field-independent basis, Debye):
    X=             -1.7617    Y=              0.0000    Z=              0.0000  Tot=              1.7617
 Quadrupole moment (field-independent basis, Debye-Ang):
   XX=             -9.9710   YY=             -7.5070   ZZ=             -7.5070
   XY=              0.0000   XZ=             -0.0000   YZ=              0.0000

  Exact polarizability:      26.228      -0.000       2.050      -0.000      -0.000       2.050
 Approx polarizability:      37.404      -0.000       1.936      -0.000      -0.000       1.936

 ******    2 imaginary frequencies (negative Signs) ******

                      1                      2                      3
                      A                      A                      A
 Frequencies --   -982.2415               -84.6208               415.7977
 Red. masses --      1.0575                 1.0541                 1.0264
 Frc consts  --      0.6011                 0.0044                 0.1046
 IR Inten    --    114.2222                 0.0684                26.6191

                      4
                      A
 Frequencies --    415.7977
 Red. masses --      1.0264
 Frc consts  --      0.1046
 IR Inten    --     26.6191

 - Thermochemistry -
 -------------------
 Temperature   298.150 Kelvin.  Pressure   1.00000 Atm.
 Atom     1 has atomic number  1 and mass   1.00783

 Molecular mass:    21.01405 amu.
 Principal axes and moments of inertia in atomic units:
                           1         2         3
     Eigenvalues --     0.00000 130.10627 130.10627
           X            1.00000  -0.00000   0.00000
           Y            0.00000   1.00000   0.00000
           Z            0.00000   0.00000   1.00000
 This molecule is a prolate symmetric top.
 Rotational symmetry number  1.
 Rotational temperature (Kelvin)      0.66572
 Rotational constant (GHZ):          13.871285
    2 imaginary frequencies ignored.
 Zero-point vibrational energy       4974.0 (Joules/Mol)
                                    1.18883 (Kcal/Mol)
 Warning -- explicit consideration of   2 degrees of freedom as
           vibrations may cause significant error
 Vibrational temperatures:    598.24   598.24
          (Kelvin)

 Zero-point correction=                           0.001895 (Hartree/Particle)
 Thermal correction to Energy=                    0.004844
 Thermal correction to Enthalpy=                  0.005788
 Thermal correction to Gibbs Free Energy=        -0.019098
 Sum of electronic and zero-point Energies=           -100.779270
 Sum of electronic and thermal Energies=              -100.776321
 Sum of electronic and thermal Enthalpies=            -100.775377
 Sum of electronic and thermal Free Energies=         -100.800263

                     E (Thermal)             CV                S
                      KCal/Mol        Cal/Mol-Kelvin    Cal/Mol-Kelvin
 Total                    3.039              7.840             52.376
 Electronic               0.000              0.000              1.377
 Translational            0.889              2.981             35.068
 Rotational               0.592              1.987             14.118
 Vibrational              1.558              2.872              1.813
 Vibration     1          0.779              1.436              0.906
 Vibration     2          0.779              1.436              0.906

 Normal termination of Gaussian 16 at Fri Aug 22 17:05:33 2025.
