 Gaussian 16, Revision C.01,
 Gaussian 16:  ES64L-G16RevC.01  3-Jul-2019

 -----------------------------------------
 # sp b3lyp/6-311g** Force nosymm scf=(qc)
 -----------------------------------------

 -------------------
 Title Card Required
 -------------------
 Symbolic Z-matrix:
 Charge =  0 Multiplicity = 2

                          Input orientation:
 ---------------------------------------------------------------------
 Center     Atomic      Atomic             Coordinates (Angstroms)
 Number     Number       Type             X           Y           Z
 ---------------------------------------------------------------------
      1          1           0        0.000000    0.000000    0.000000
      2          1           0       -2.750000    0.000000    0.000000
      3          9           0        1.300000    0.000000    0.000000
 ---------------------------------------------------------------------

 SCF Done:  E(UB3LYP) =  -100.901724284     a.u. after    7 cycles

 Alpha  occ. eigenvalues --  -24.64234  -1.11019  -0.46018  -0.36954  -0.36954
 Alpha  occ. eigenvalues --   -0.34924
 Alpha virt. eigenvalues --   -0.08492   0.23255   0.27626   0.93121   0.93121
 Alpha virt. eigenvalues --    1.02135   1.20927   1.22604   1.22604   1.25380
 Alpha virt. eigenvalues --    1.33957   1.33957   1.71614   2.13768   2.25479

  Beta  occ. eigenvalues --  -24.64195  -1.10920  -0.45880  -0.36919  -0.36919
  Beta virt. eigenvalues --   -0.11623  -0.05258   0.26356   0.36899   0.93115
  Beta virt. eigenvalues --    0.93115   1.02230   1.22658   1.33852   1.33852
  Beta virt. eigenvalues --    1.44402   1.44402   1.44529   1.71894   2.25310

 Mulliken charges and spin densities:
               1          2
     1  H    0.353003  -0.003139
     2  H    0.007673   0.991037
     3  F   -0.360676   0.012102
 Sum of Mulliken charges =  -0.00000   1.00000

 Dipole moment (field-independent basis, Debye):
    X=             -2.4982    Y=             -0.0000    Z=              0.0000  Tot=              2.4982
 Quadrupole moment (field-independent basis, Debye-Ang):
   XX=             -8.9474   YY=             -7.1993   ZZ=             -7.1993
   XY=             -0.0000   XZ=              0.0000   YZ=             -0.0000

  Exact polarizability:      13.870       0.000       2.292       0.000       0.000       2.292
 Approx polarizability:      19.749      -0.000       2.238      -0.000       0.000       2.238

 ******    2 imaginary frequencies (negative Signs) ******

                      1                      2                      3
                      A                      A                      A
 Frequencies --   -673.0730              -135.9980              1144.2114
 Red. masses --      1.0472                 1.0645                 1.0290
 Frc consts  --      0.2795                 0.0116                 0.7937
 IR Inten    --     97.3038                 0.0580               126.1257

                      4
                      A
 Frequencies --   1144.2114
 Red. masses --      1.0290
 Frc consts  --      0.7937
 IR Inten    --    126.1257

 - Thermochemistry -
 -------------------
 Temperature   298.150 Kelvin.  Pressure   1.00000 Atm.
 Atom     1 has atomic number  1 and mass   1.00783

 Molecular mass:    21.01405 amu.
 Principal axes and moments of inertia in atomic units:
                           1         2         3
     Eigenvalues --     0.00000  60.17462  60.17462
           X            1.00000  -0.00000   0.00000
           Y            0.00000   1.00000   0.00000
           Z            0.00000   0.00000   1.00000
 This molecule is a prolate symmetric top.
 Rotational symmetry number  1.
 Rotational temperature (Kelvin)      1.43938
 Rotational constant (GHZ):          29.991734
    2 imaginary frequencies ignored.
 Zero-point vibrational energy      13687.8 (Joules/Mol)
                                    3.27146 (Kcal/Mol)
 Vibrational temperatures:   1646.27  1646.27
          (Kelvin)

 Zero-point correction=                           0.005213 (Hartree/Particle)
 Thermal correction to Energy=                    0.007616
 Thermal correction to Enthalpy=                  0.008560
 Thermal correction to Gibbs Free Energy=        -0.014786
 Sum of electronic and zero-point Energies=           -100.896511
 Sum of electronic and thermal Energies=              -100.894109
 Sum of electronic and thermal Enthalpies=            -100.893164
 Sum of electronic and thermal Free Energies=         -100.916510

                     E (Thermal)             CV                S
                      KCal/Mol        Cal/Mol-Kelvin    Cal/Mol-Kelvin
 Total                    4.779              5.457             49.135
 Electronic               0.000              0.000              1.377
 Translational            0.889              2.981             35.068
 Rotational               0.592              1.987             12.586
 Vibrational              3.298              0.489              0.104

 Normal termination of Gaussian 16 at Fri Aug 22 16:15:34 2025.
