 Gaussian 16, Revision C.01,
 Gaussian 16:  ES64L-G16RevC.01  3-Jul-2019

 -----------------------------------------
 # sp b3lyp/6-311g** Force nosymm scf=(qc)
 -----------------------------------------

 -------------------
 Title Card Required
 -------------------
 Symbolic Z-matrix:
 Charge =  0 Multiplicity = 2

                          Input orientation:
 ---------------------------------------------------------------------
 Center     Atomic      Atomic             Coordinates (Angstroms)
 Number     Number       Type             X           Y           Z
 ---------------------------------------------------------------------
      1          1           0        0.000000    0.000000    0.000000
      2          1           0       -3.400000    0.000000    0.000000
      3          9           0        0.600000    0.000000    0.000000
 ---------------------------------------------------------------------

 SCF Done:  E(UB3LYP) =  -100.687930308     a.u. after    6 cycles

 Alpha  occ. eigenvalues --  -24.62728  -1.34725  -0.61024  -0.42978  -0.42978
 Alpha  occ. eigenvalues --   -0.33400
 Alpha virt. eigenvalues --    0.07420   0.25147   0.58035   0.92125   0.92125
 Alpha virt. eigenvalues --    0.93149   1.23749   1.24113   1.24113   1.34631
 Alpha virt. eigenvalues --    1.50268   1.50268   1.95507   2.14896   3.36538

  Beta  occ. eigenvalues --  -24.62728  -1.34723  -0.61023  -0.42977  -0.42977
  Beta virt. eigenvalues --   -0.05356   0.07981   0.39454   0.58082   0.92124
  Beta virt. eigenvalues --    0.92124   0.93146   1.33651   1.50269   1.50269
  Beta virt. eigenvalues --    1.50484   1.50484   1.51291   1.95468   2.44960

 Mulliken charges and spin densities:
               1          2
     1  H    0.237729   0.000615
     2  H    0.000891   0.998910
     3  F   -0.238621   0.000475
 Sum of Mulliken charges =   0.00000   1.00000

 Dipole moment (field-independent basis, Debye):
    X=             -1.4432    Y=              0.0000    Z=             -0.0000  Tot=              1.4432
 Quadrupole moment (field-independent basis, Debye-Ang):
   XX=             -6.9556   YY=             -6.5520   ZZ=             -6.5520
   XY=              0.0000   XZ=              0.0000   YZ=              0.0000

  Exact polarizability:       3.527      -0.000       2.440       0.000      -0.000       2.440
 Approx polarizability:       3.745       0.000       2.419       0.000      -0.000       2.419

 ******    3 imaginary frequencies (negative Signs) ******

                      1                      2                      3
                      A                      A                      A
 Frequencies --  -5881.8152             -5881.8152               -34.6728
 Red. masses --      1.0435                 1.0435                 1.0532
 Frc consts  --     21.2704                21.2704                 0.0007
 IR Inten    --    239.6505               239.6505                 0.0321

                      4
                      A
 Frequencies --  13070.6492
 Red. masses --      1.0583
 Frc consts  --    106.5266
 IR Inten    --     98.3027

 - Thermochemistry -
 -------------------
 Temperature   298.150 Kelvin.  Pressure   1.00000 Atm.
 Atom     1 has atomic number  1 and mass   1.00783

 Molecular mass:    21.01405 amu.
 Principal axes and moments of inertia in atomic units:
                           1         2         3
     Eigenvalues --     0.00000  55.22742  55.22742
           X            1.00000  -0.00000   0.00000
           Y            0.00000   1.00000   0.00000
           Z            0.00000   0.00000   1.00000
 This molecule is a prolate symmetric top.
 Rotational symmetry number  1.
 Rotational temperature (Kelvin)      1.56831
 Rotational constant (GHZ):          32.678356
    3 imaginary frequencies ignored.
 Zero-point vibrational energy      78179.8 (Joules/Mol)
                                   18.68543 (Kcal/Mol)
 Vibrational temperatures:  18805.75
          (Kelvin)

 Zero-point correction=                           0.029777 (Hartree/Particle)
 Thermal correction to Energy=                    0.032138
 Thermal correction to Enthalpy=                  0.033082
 Thermal correction to Gibbs Free Energy=         0.009866
 Sum of electronic and zero-point Energies=           -100.658153
 Sum of electronic and thermal Energies=              -100.655793
 Sum of electronic and thermal Enthalpies=            -100.654849
 Sum of electronic and thermal Free Energies=         -100.678064

                     E (Thermal)             CV                S
                      KCal/Mol        Cal/Mol-Kelvin    Cal/Mol-Kelvin
 Total                   20.167              4.968             48.861
 Electronic               0.000              0.000              1.377
 Translational            0.889              2.981             35.068
 Rotational               0.592              1.987             12.415
 Vibrational             18.685              0.000              0.000

 Normal termination of Gaussian 16 at Fri Aug 22 15:42:37 2025.
