 Gaussian 16, Revision C.01,
 Gaussian 16:  ES64L-G16RevC.01  3-Jul-2019

 -----------------------------------------
 # sp b3lyp/6-311g** Force nosymm scf=(qc)
 -----------------------------------------

 -------------------
 Title Card Required
 -------------------
 Symbolic Z-matrix:
 Charge =  0 Multiplicity = 2

                          Input orientation:
 ---------------------------------------------------------------------
 Center     Atomic      Atomic             Coordinates (Angstroms)
 Number     Number       Type             X           Y           Z
 ---------------------------------------------------------------------
      1          1           0        0.000000    0.000000    0.000000
      2          1           0       -2.450000    0.000000    0.000000
      3          9           0        2.200000    0.000000    0.000000
 ---------------------------------------------------------------------

 SCF Done:  E(UB3LYP) =  -100.780669459     a.u. after   18 cycles

 Alpha  occ. eigenvalues --  -24.69702  -1.16002  -0.48758  -0.40988  -0.40988
 Alpha  occ. eigenvalues --   -0.34509
 Alpha virt. eigenvalues --   -0.13122   0.24385   0.32119   0.89034   0.94566
 Alpha virt. eigenvalues --    0.94566   1.06460   1.23164   1.23164   1.26597
 Alpha virt. eigenvalues --    1.36090   1.36090   1.50826   2.13884   2.30479

  Beta  occ. eigenvalues --  -24.67079  -1.08601  -0.38388  -0.38388  -0.36605
  Beta virt. eigenvalues --   -0.22018  -0.10023   0.25572   0.34404   0.92988
  Beta virt. eigenvalues --    0.95661   0.95661   1.08910   1.21894   1.21894
  Beta virt. eigenvalues --    1.40925   1.40925   1.41826   1.43494   2.13143

 Mulliken charges and spin densities:
               1          2
     1  H    0.126028  -0.792039
     2  H    0.016792   0.965841
     3  F   -0.142820   0.826198
 Sum of Mulliken charges =   0.00000   1.00000

 Dipole moment (field-independent basis, Debye):
    X=             -1.7724    Y=              0.0000    Z=              0.0000  Tot=              1.7724
 Quadrupole moment (field-independent basis, Debye-Ang):
   XX=             -9.1794   YY=             -7.5686   ZZ=             -7.5686
   XY=              0.0000   XZ=              0.0000   YZ=             -0.0000

  Exact polarizability:      41.717       0.000       2.032       0.000       0.000       2.032
 Approx polarizability:      47.912       0.000       1.929       0.000       0.000       1.929

 ******    2 imaginary frequencies (negative Signs) ******

                      1                      2                      3
                      A                      A                      A
 Frequencies --  -1016.9016              -401.6944               420.5587
 Red. masses --      1.0315                 1.0812                 1.0193
 Frc consts  --      0.6285                 0.1028                 0.1062
 IR Inten    --     75.8909                22.9588                12.8706

                      4
                      A
 Frequencies --    420.5587
 Red. masses --      1.0193
 Frc consts  --      0.1062
 IR Inten    --     12.8706

 - Thermochemistry -
 -------------------
 Temperature   298.150 Kelvin.  Pressure   1.00000 Atm.
 Atom     1 has atomic number  1 and mass   1.00783

 Molecular mass:    21.01405 amu.
 Principal axes and moments of inertia in atomic units:
                           1         2         3
     Eigenvalues --     0.00000  87.13962  87.13962
           X            1.00000  -0.00000   0.00000
           Y            0.00000   1.00000   0.00000
           Z            0.00000   0.00000   1.00000
 This molecule is a prolate symmetric top.
 Rotational symmetry number  1.
 Rotational temperature (Kelvin)      0.99397
 Rotational constant (GHZ):          20.710915
    2 imaginary frequencies ignored.
 Zero-point vibrational energy       5031.0 (Joules/Mol)
                                    1.20244 (Kcal/Mol)
 Warning -- explicit consideration of   2 degrees of freedom as
           vibrations may cause significant error
 Vibrational temperatures:    605.09   605.09
          (Kelvin)

 Zero-point correction=                           0.001916 (Hartree/Particle)
 Thermal correction to Energy=                    0.004856
 Thermal correction to Enthalpy=                  0.005801
 Thermal correction to Gibbs Free Energy=        -0.018691
 Sum of electronic and zero-point Energies=           -100.778753
 Sum of electronic and thermal Energies=              -100.775813
 Sum of electronic and thermal Enthalpies=            -100.774869
 Sum of electronic and thermal Free Energies=         -100.799361

                     E (Thermal)             CV                S
                      KCal/Mol        Cal/Mol-Kelvin    Cal/Mol-Kelvin
 Total                    3.047              7.819             51.547
 Electronic               0.000              0.000              1.377
 Translational            0.889              2.981             35.068
 Rotational               0.592              1.987             13.322
 Vibrational              1.566              2.851              1.780
 Vibration     1          0.783              1.426              0.890
 Vibration     2          0.783              1.426              0.890

 Normal termination of Gaussian 16 at Fri Aug 22 17:12:04 2025.
