 Gaussian 16, Revision C.01,
 Gaussian 16:  ES64L-G16RevC.01  3-Jul-2019

 -----------------------------------------
 # sp b3lyp/6-311g** Force nosymm scf=(qc)
 -----------------------------------------

 -------------------
 Title Card Required
 -------------------
 Symbolic Z-matrix:
 Charge =  0 Multiplicity = 2

                          Input orientation:
 ---------------------------------------------------------------------
 Center     Atomic      Atomic             Coordinates (Angstroms)
 Number     Number       Type             X           Y           Z
 ---------------------------------------------------------------------
      1          1           0        0.000000    0.000000    0.000000
      2          1           0       -3.850000    0.000000    0.000000
      3          9           0        3.000000    0.000000    0.000000
 ---------------------------------------------------------------------

 SCF Done:  E(UB3LYP) =  -100.760865758     a.u. after   20 cycles

 Alpha  occ. eigenvalues --  -24.74075  -1.20136  -0.53195  -0.44666  -0.44666
 Alpha  occ. eigenvalues --   -0.32473
 Alpha virt. eigenvalues --   -0.07823   0.23881   0.36237   0.89345   0.92282
 Alpha virt. eigenvalues --    0.92282   1.03874   1.25026   1.25026   1.25062
 Alpha virt. eigenvalues --    1.44315   1.44315   1.44871   2.14438   2.40676

  Beta  occ. eigenvalues --  -24.71048  -1.11463  -0.41637  -0.41637  -0.33724
  Beta virt. eigenvalues --   -0.24768  -0.06064   0.23772   0.38120   0.93743
  Beta virt. eigenvalues --    0.93743   0.98022   1.07582   1.23600   1.23600
  Beta virt. eigenvalues --    1.23991   1.46449   1.46613   1.46613   2.14498

 Mulliken charges and spin densities:
               1          2
     1  H    0.037135  -0.958230
     2  H    0.000180   0.999126
     3  F   -0.037316   0.959104
 Sum of Mulliken charges =  -0.00000   1.00000

 Dipole moment (field-independent basis, Debye):
    X=             -0.5781    Y=             -0.0000    Z=             -0.0000  Tot=              0.5781
 Quadrupole moment (field-independent basis, Debye-Ang):
   XX=             -8.3407   YY=             -7.6056   ZZ=             -7.6056
   XY=             -0.0000   XZ=             -0.0000   YZ=             -0.0000

  Exact polarizability:      30.996       0.000       2.027       0.000      -0.000       2.027
 Approx polarizability:      31.870       0.000       1.927       0.000       0.000       1.927

 ******    2 imaginary frequencies (negative Signs) ******

                      1                      2                      3
                      A                      A                      A
 Frequencies --   -366.2293               -81.0409               127.6093
 Red. masses --      1.0529                 1.0586                 1.0212
 Frc consts  --      0.0832                 0.0041                 0.0098
 IR Inten    --     39.5959                 0.1319                 1.3208

                      4
                      A
 Frequencies --    127.6093
 Red. masses --      1.0212
 Frc consts  --      0.0098
 IR Inten    --      1.3208

 - Thermochemistry -
 -------------------
 Temperature   298.150 Kelvin.  Pressure   1.00000 Atm.
 Atom     1 has atomic number  1 and mass   1.00783

 Molecular mass:    21.01405 amu.
 Principal axes and moments of inertia in atomic units:
                           1         2         3
     Eigenvalues --     0.00000 184.51880 184.51880
           X            1.00000  -0.00000   0.00000
           Y            0.00000   1.00000   0.00000
           Z            0.00000   0.00000   1.00000
 This molecule is a prolate symmetric top.
 Rotational symmetry number  1.
 Rotational temperature (Kelvin)      0.46940
 Rotational constant (GHZ):           9.780798
    2 imaginary frequencies ignored.
 Zero-point vibrational energy       1526.5 (Joules/Mol)
                                    0.36485 (Kcal/Mol)
 Warning -- explicit consideration of   2 degrees of freedom as
           vibrations may cause significant error
 Vibrational temperatures:    183.60   183.60
          (Kelvin)

 Zero-point correction=                           0.000581 (Hartree/Particle)
 Thermal correction to Energy=                    0.004308
 Thermal correction to Enthalpy=                  0.005252
 Thermal correction to Gibbs Free Energy=        -0.021935
 Sum of electronic and zero-point Energies=           -100.760284
 Sum of electronic and thermal Energies=              -100.756558
 Sum of electronic and thermal Enthalpies=            -100.755613
 Sum of electronic and thermal Free Energies=         -100.782801

                     E (Thermal)             CV                S
                      KCal/Mol        Cal/Mol-Kelvin    Cal/Mol-Kelvin
 Total                    2.703              8.819             57.221
 Electronic               0.000              0.000              1.377
 Translational            0.889              2.981             35.068
 Rotational               0.592              1.987             14.812
 Vibrational              1.222              3.851              5.964
 Vibration     1          0.611              1.926              2.982
 Vibration     2          0.611              1.926              2.982

 Normal termination of Gaussian 16 at Fri Aug 22 19:33:30 2025.
