 Gaussian 16, Revision C.01,
 Gaussian 16:  ES64L-G16RevC.01  3-Jul-2019

 -----------------------------------------
 # sp b3lyp/6-311g** Force nosymm scf=(qc)
 -----------------------------------------

 -------------------
 Title Card Required
 -------------------
 Symbolic Z-matrix:
 Charge =  0 Multiplicity = 2

                          Input orientation:
 ---------------------------------------------------------------------
 Center     Atomic      Atomic             Coordinates (Angstroms)
 Number     Number       Type             X           Y           Z
 ---------------------------------------------------------------------
      1          1           0        0.000000    0.000000    0.000000
      2          1           0       -2.950000    0.000000    0.000000
      3          9           0        2.200000    0.000000    0.000000
 ---------------------------------------------------------------------

 SCF Done:  E(UB3LYP) =  -100.775734788     a.u. after   19 cycles

 Alpha  occ. eigenvalues --  -24.66840  -1.08431  -0.38206  -0.38206  -0.37015
 Alpha  occ. eigenvalues --   -0.33266
 Alpha virt. eigenvalues --   -0.21777   0.21594   0.27618   0.92047   0.95776
 Alpha virt. eigenvalues --    0.95776   1.08574   1.21516   1.21516   1.23905
 Alpha virt. eigenvalues --    1.23905   1.24589   1.42274   2.12715   2.14711

  Beta  occ. eigenvalues --  -24.69443  -1.15772  -0.48495  -0.40786  -0.40786
  Beta virt. eigenvalues --   -0.12995  -0.04707   0.32219   0.39408   0.89037
  Beta virt. eigenvalues --    0.94705   0.94705   1.06645   1.37537   1.37537
  Beta virt. eigenvalues --    1.47361   1.47361   1.47783   1.52374   2.33279

 Mulliken charges and spin densities:
               1          2
     1  H    0.144897   0.824650
     2  H    0.004904   0.995204
     3  F   -0.149800  -0.819854
 Sum of Mulliken charges =   0.00000   1.00000

 Dipole moment (field-independent basis, Debye):
    X=             -1.7205    Y=             -0.0000    Z=              0.0000  Tot=              1.7205
 Quadrupole moment (field-independent basis, Debye-Ang):
   XX=             -9.8541   YY=             -7.5116   ZZ=             -7.5116
   XY=             -0.0000   XZ=              0.0000   YZ=              0.0000

  Exact polarizability:      34.190      -0.000       2.040       0.000      -0.000       2.040
 Approx polarizability:      46.309      -0.000       1.931       0.000      -0.000       1.931

 ******    1 imaginary frequencies (negative Signs) ******

                      1                      2                      3
                      A                      A                      A
 Frequencies --   -837.9657               150.6757               348.3703
 Red. masses --      1.0628                 1.0488                 1.0219
 Frc consts  --      0.4397                 0.0140                 0.0731
 IR Inten    --     75.4476                 2.6565                18.9287

                      4
                      A
 Frequencies --    348.3703
 Red. masses --      1.0219
 Frc consts  --      0.0731
 IR Inten    --     18.9287

 - Thermochemistry -
 -------------------
 Temperature   298.150 Kelvin.  Pressure   1.00000 Atm.
 Atom     1 has atomic number  1 and mass   1.00783

 Molecular mass:    21.01405 amu.
 Principal axes and moments of inertia in atomic units:
                           1         2         3
     Eigenvalues --     0.00000 103.54925 103.54925
           X            1.00000  -0.00000   0.00000
           Y            0.00000   1.00000   0.00000
           Z            0.00000   0.00000   1.00000
 This molecule is a prolate symmetric top.
 Rotational symmetry number  1.
 Rotational temperature (Kelvin)      0.83645
 Rotational constant (GHZ):          17.428820
    1 imaginary frequencies ignored.
 Zero-point vibrational energy       5068.7 (Joules/Mol)
                                    1.21144 (Kcal/Mol)
 Warning -- explicit consideration of   3 degrees of freedom as
           vibrations may cause significant error
 Vibrational temperatures:    216.79   501.23   501.23
          (Kelvin)

 Zero-point correction=                           0.001931 (Hartree/Particle)
 Thermal correction to Energy=                    0.005659
 Thermal correction to Enthalpy=                  0.006604
 Thermal correction to Gibbs Free Energy=        -0.019586
 Sum of electronic and zero-point Energies=           -100.773804
 Sum of electronic and thermal Energies=              -100.770075
 Sum of electronic and thermal Enthalpies=            -100.769131
 Sum of electronic and thermal Free Energies=         -100.795321

                     E (Thermal)             CV                S
                      KCal/Mol        Cal/Mol-Kelvin    Cal/Mol-Kelvin
 Total                    3.551             10.027             55.121
 Electronic               0.000              0.000              1.377
 Translational            0.889              2.981             35.068
 Rotational               0.592              1.987             13.664
 Vibrational              2.070              5.059              5.011
 Vibration     1          0.618              1.902              2.664
 Vibration     2          0.726              1.579              1.174
 Vibration     3          0.726              1.579              1.174

 Normal termination of Gaussian 16 at Fri Aug 22 17:12:34 2025.
