 Gaussian 16, Revision C.01,
 Gaussian 16:  ES64L-G16RevC.01  3-Jul-2019

 -----------------------------------------
 # sp b3lyp/6-311g** Force nosymm scf=(qc)
 -----------------------------------------

 -------------------
 Title Card Required
 -------------------
 Symbolic Z-matrix:
 Charge =  0 Multiplicity = 2

                          Input orientation:
 ---------------------------------------------------------------------
 Center     Atomic      Atomic             Coordinates (Angstroms)
 Number     Number       Type             X           Y           Z
 ---------------------------------------------------------------------
      1          1           0        0.000000    0.000000    0.000000
      2          1           0       -2.100000    0.000000    0.000000
      3          9           0        2.300000    0.000000    0.000000
 ---------------------------------------------------------------------

 SCF Done:  E(UB3LYP) =  -100.783620965     a.u. after   17 cycles

 Alpha  occ. eigenvalues --  -24.70469  -1.16737  -0.49556  -0.41625  -0.41625
 Alpha  occ. eigenvalues --   -0.35150
 Alpha virt. eigenvalues --   -0.13149   0.24588   0.32036   0.89092   0.94268
 Alpha virt. eigenvalues --    0.94268   1.05936   1.22743   1.22743   1.25980
 Alpha virt. eigenvalues --    1.34920   1.34920   1.48626   2.11317   2.32354

  Beta  occ. eigenvalues --  -24.67752  -1.09042  -0.38925  -0.38925  -0.35967
  Beta virt. eigenvalues --   -0.22692  -0.11421   0.26479   0.32513   0.94273
  Beta virt. eigenvalues --    0.95505   0.95505   1.08799   1.22422   1.22422
  Beta virt. eigenvalues --    1.32996   1.37642   1.37642   1.46994   2.11681

 Mulliken charges and spin densities:
               1          2
     1  H    0.089401  -0.763049
     2  H    0.030453   0.906330
     3  F   -0.119855   0.856719
 Sum of Mulliken charges =  -0.00000   1.00000

 Dipole moment (field-independent basis, Debye):
    X=             -1.6987    Y=              0.0000    Z=              0.0000  Tot=              1.6987
 Quadrupole moment (field-independent basis, Debye-Ang):
   XX=             -8.5936   YY=             -7.6163   ZZ=             -7.6163
   XY=             -0.0000   XZ=             -0.0000   YZ=             -0.0000

  Exact polarizability:      53.468      -0.000       2.020      -0.000       0.000       2.020
 Approx polarizability:      58.836       0.000       1.930       0.000       0.000       1.930

 ******    2 imaginary frequencies (negative Signs) ******

                      1                      2                      3
                      A                      A                      A
 Frequencies --  -1280.5744              -459.1354               519.6419
 Red. masses --      1.0129                 1.1024                 1.0169
 Frc consts  --      0.9787                 0.1369                 0.1618
 IR Inten    --     70.6111                48.1291                 5.1546

                      4
                      A
 Frequencies --    519.6419
 Red. masses --      1.0169
 Frc consts  --      0.1618
 IR Inten    --      5.1546

 - Thermochemistry -
 -------------------
 Temperature   298.150 Kelvin.  Pressure   1.00000 Atm.
 Atom     1 has atomic number  1 and mass   1.00783

 Molecular mass:    21.01405 amu.
 Principal axes and moments of inertia in atomic units:
                           1         2         3
     Eigenvalues --     0.00000  80.96724  80.96724
           X            1.00000  -0.00000   0.00000
           Y            0.00000   1.00000   0.00000
           Z            0.00000   0.00000   1.00000
 This molecule is a prolate symmetric top.
 Rotational symmetry number  1.
 Rotational temperature (Kelvin)      1.06974
 Rotational constant (GHZ):          22.289772
    2 imaginary frequencies ignored.
 Zero-point vibrational energy       6216.3 (Joules/Mol)
                                    1.48573 (Kcal/Mol)
 Warning -- explicit consideration of   2 degrees of freedom as
           vibrations may cause significant error
 Vibrational temperatures:    747.65   747.65
          (Kelvin)

 Zero-point correction=                           0.002368 (Hartree/Particle)
 Thermal correction to Energy=                    0.005148
 Thermal correction to Enthalpy=                  0.006092
 Thermal correction to Gibbs Free Energy=        -0.018065
 Sum of electronic and zero-point Energies=           -100.781253
 Sum of electronic and thermal Energies=              -100.778473
 Sum of electronic and thermal Enthalpies=            -100.777529
 Sum of electronic and thermal Free Energies=         -100.801686

                     E (Thermal)             CV                S
                      KCal/Mol        Cal/Mol-Kelvin    Cal/Mol-Kelvin
 Total                    3.230              7.381             50.843
 Electronic               0.000              0.000              1.377
 Translational            0.889              2.981             35.068
 Rotational               0.592              1.987             13.176
 Vibrational              1.749              2.413              1.222
 Vibration     1          0.875              1.206              0.611
 Vibration     2          0.875              1.206              0.611

 Normal termination of Gaussian 16 at Fri Aug 22 17:21:59 2025.
