 Gaussian 16, Revision C.01,
 Gaussian 16:  ES64L-G16RevC.01  3-Jul-2019

 -----------------------------------------
 # sp b3lyp/6-311g** Force nosymm scf=(qc)
 -----------------------------------------

 -------------------
 Title Card Required
 -------------------
 Symbolic Z-matrix:
 Charge =  0 Multiplicity = 2

                          Input orientation:
 ---------------------------------------------------------------------
 Center     Atomic      Atomic             Coordinates (Angstroms)
 Number     Number       Type             X           Y           Z
 ---------------------------------------------------------------------
      1          1           0        0.000000    0.000000    0.000000
      2          1           0       -0.950000    0.000000    0.000000
      3          9           0        3.800000    0.000000    0.000000
 ---------------------------------------------------------------------

 SCF Done:  E(UB3LYP) =  -100.914768784     a.u. after   72 cycles

 Alpha  occ. eigenvalues --  -24.76237  -1.22127  -0.55330  -0.46509  -0.46485
 Alpha  occ. eigenvalues --   -0.39618
 Alpha virt. eigenvalues --    0.01492   0.21093   0.40098   0.86048   0.90925
 Alpha virt. eigenvalues --    0.91757   1.01103   1.08705   1.08707   1.41553
 Alpha virt. eigenvalues --    1.69023   1.69026   2.20758   2.36768   2.64701

  Beta  occ. eigenvalues --  -24.73081  -1.13052  -0.43346  -0.43321  -0.39616
  Beta virt. eigenvalues --   -0.25977   0.01497   0.21098   0.40121   0.92426
  Beta virt. eigenvalues --    0.93249   0.95514   1.05238   1.08705   1.08707
  Beta virt. eigenvalues --    1.41555   1.69023   1.69026   2.20763   2.36769

 Mulliken charges and spin densities:
               1          2
     1  H    0.000415  -0.000146
     2  H   -0.002082  -0.000037
     3  F    0.001667   1.000183
 Sum of Mulliken charges =   0.00000   1.00000

 Dipole moment (field-independent basis, Debye):
    X=              0.0274    Y=             -0.0000    Z=              0.0000  Tot=              0.0274
 Quadrupole moment (field-independent basis, Debye-Ang):
   XX=             -6.3129   YY=             -7.0789   ZZ=             -6.4813
   XY=             -0.0000   XZ=              0.0000   YZ=             -0.3124

  Exact polarizability:      11.131      -0.000       2.115       0.000      -0.168       2.437
 Approx polarizability:      14.274      -0.000       2.190       0.000      -0.210       2.592

 ******    1 imaginary frequencies (negative Signs) ******

                      1                      2                      3
                      A                      A                      A
 Frequencies --    -60.3766              1515.7311              1517.7498
 Red. masses --      1.1085                 1.0091                 1.0091
 Frc consts  --      0.0024                 1.3659                 1.3695
 IR Inten    --      0.0666                 0.0009                 0.0003

                      4
                      A
 Frequencies --   2200.0751
 Red. masses --      1.0078
 Frc consts  --      2.8742
 IR Inten    --      0.0627

 - Thermochemistry -
 -------------------
 Temperature   298.150 Kelvin.  Pressure   1.00000 Atm.
 Atom     1 has atomic number  1 and mass   1.00783

 Molecular mass:    21.01405 amu.
 Principal axes and moments of inertia in atomic units:
                           1         2         3
     Eigenvalues --     0.00000 120.55432 120.55432
           X            1.00000  -0.00000   0.00000
           Y            0.00000   1.00000   0.00000
           Z            0.00000   0.00000   1.00000
 This molecule is a prolate symmetric top.
 Rotational symmetry number  1.
 Rotational temperature (Kelvin)      0.71846
 Rotational constant (GHZ):          14.970357
    1 imaginary frequencies ignored.
 Zero-point vibrational energy      31303.6 (Joules/Mol)
                                    7.48174 (Kcal/Mol)
 Vibrational temperatures:   2180.80  2183.70  3165.42
          (Kelvin)

 Zero-point correction=                           0.011923 (Hartree/Particle)
 Thermal correction to Energy=                    0.014293
 Thermal correction to Enthalpy=                  0.015237
 Thermal correction to Gibbs Free Energy=        -0.008726
 Sum of electronic and zero-point Energies=           -100.902846
 Sum of electronic and thermal Energies=              -100.900476
 Sum of electronic and thermal Enthalpies=            -100.899532
 Sum of electronic and thermal Free Energies=         -100.923495

                     E (Thermal)             CV                S
                      KCal/Mol        Cal/Mol-Kelvin    Cal/Mol-Kelvin
 Total                    8.969              5.115             50.434
 Electronic               0.000              0.000              1.377
 Translational            0.889              2.981             35.068
 Rotational               0.592              1.987             13.967
 Vibrational              7.488              0.147              0.022

 Normal termination of Gaussian 16 at Sat Aug 23 00:31:44 2025.
