 Gaussian 16, Revision C.01,
 Gaussian 16:  ES64L-G16RevC.01  3-Jul-2019

 -----------------------------------------
 # sp b3lyp/6-311g** Force nosymm scf=(qc)
 -----------------------------------------

 -------------------
 Title Card Required
 -------------------
 Symbolic Z-matrix:
 Charge =  0 Multiplicity = 2

                          Input orientation:
 ---------------------------------------------------------------------
 Center     Atomic      Atomic             Coordinates (Angstroms)
 Number     Number       Type             X           Y           Z
 ---------------------------------------------------------------------
      1          1           0        0.000000    0.000000    0.000000
      2          1           0       -0.950000    0.000000    0.000000
      3          9           0        2.400000    0.000000    0.000000
 ---------------------------------------------------------------------

 SCF Done:  E(UB3LYP) =  -100.915478677     a.u. after    7 cycles

 Alpha  occ. eigenvalues --  -24.75550  -1.21506  -0.54816  -0.45922  -0.45922
 Alpha  occ. eigenvalues --   -0.40657
 Alpha virt. eigenvalues --    0.01540   0.21090   0.40728   0.89489   0.91179
 Alpha virt. eigenvalues --    0.91179   1.07646   1.07646   1.11201   1.42103
 Alpha virt. eigenvalues --    1.67966   1.67966   2.21222   2.36897   2.63925

  Beta  occ. eigenvalues --  -24.72463  -1.12655  -0.42833  -0.42833  -0.40549
  Beta virt. eigenvalues --   -0.26024   0.02112   0.21428   0.41102   0.92633
  Beta virt. eigenvalues --    0.92633   0.97811   1.07929   1.07929   1.15242
  Beta virt. eigenvalues --    1.42738   1.68166   1.68166   2.21602   2.37160

 Mulliken charges and spin densities:
               1          2
     1  H   -0.008398  -0.019135
     2  H    0.023159   0.044198
     3  F   -0.014761   0.974937
 Sum of Mulliken charges =   0.00000   1.00000

 Dipole moment (field-independent basis, Debye):
    X=             -0.2842    Y=              0.0000    Z=              0.0000  Tot=              0.2842
 Quadrupole moment (field-independent basis, Debye-Ang):
   XX=             -5.8468   YY=             -7.1952   ZZ=             -7.1952
   XY=              0.0000   XZ=              0.0000   YZ=             -0.0000

  Exact polarizability:      21.779       0.000       2.069      -0.000      -0.000       2.069
 Approx polarizability:      24.805       0.000       2.131       0.000      -0.000       2.131

 ******    1 imaginary frequencies (negative Signs) ******

                      1                      2                      3
                      A                      A                      A
 Frequencies --   -206.2891              1495.0491              1495.0491
 Red. masses --      1.1084                 1.0105                 1.0105
 Frc consts  --      0.0278                 1.3308                 1.3308
 IR Inten    --     15.0687                 0.3644                 0.3644

                      4
                      A
 Frequencies --   2131.7816
 Red. masses --      1.0079
 Frc consts  --      2.6987
 IR Inten    --    131.7560

 - Thermochemistry -
 -------------------
 Temperature   298.150 Kelvin.  Pressure   1.00000 Atm.
 Atom     1 has atomic number  1 and mass   1.00783

 Molecular mass:    21.01405 amu.
 Principal axes and moments of inertia in atomic units:
                           1         2         3
     Eigenvalues --     0.00000  55.41335  55.41335
           X            1.00000  -0.00000   0.00000
           Y            0.00000   1.00000   0.00000
           Z            0.00000   0.00000   1.00000
 This molecule is a prolate symmetric top.
 Rotational symmetry number  1.
 Rotational temperature (Kelvin)      1.56305
 Rotational constant (GHZ):          32.568710
    1 imaginary frequencies ignored.
 Zero-point vibrational energy      30635.6 (Joules/Mol)
                                    7.32209 (Kcal/Mol)
 Vibrational temperatures:   2151.04  2151.04  3067.16
          (Kelvin)

 Zero-point correction=                           0.011669 (Hartree/Particle)
 Thermal correction to Energy=                    0.014039
 Thermal correction to Enthalpy=                  0.014984
 Thermal correction to Gibbs Free Energy=        -0.008247
 Sum of electronic and zero-point Energies=           -100.903810
 Sum of electronic and thermal Energies=              -100.901439
 Sum of electronic and thermal Enthalpies=            -100.900495
 Sum of electronic and thermal Free Energies=         -100.923725

                     E (Thermal)             CV                S
                      KCal/Mol        Cal/Mol-Kelvin    Cal/Mol-Kelvin
 Total                    8.810              5.128             48.892
 Electronic               0.000              0.000              1.377
 Translational            0.889              2.981             35.068
 Rotational               0.592              1.987             12.422
 Vibrational              7.329              0.160              0.025

 Normal termination of Gaussian 16 at Fri Aug 22 17:30:33 2025.
