 Gaussian 16, Revision C.01,
 Gaussian 16:  ES64L-G16RevC.01  3-Jul-2019

 -----------------------------------------
 # sp b3lyp/6-311g** Force nosymm scf=(qc)
 -----------------------------------------

 -------------------
 Title Card Required
 -------------------
 Symbolic Z-matrix:
 Charge =  0 Multiplicity = 2

                          Input orientation:
 ---------------------------------------------------------------------
 Center     Atomic      Atomic             Coordinates (Angstroms)
 Number     Number       Type             X           Y           Z
 ---------------------------------------------------------------------
      1          1           0        0.000000    0.000000    0.000000
      2          1           0       -1.050000    0.000000    0.000000
      3          9           0        2.050000    0.000000    0.000000
 ---------------------------------------------------------------------

 SCF Done:  E(UB3LYP) =  -100.902194001     a.u. after   11 cycles

 Alpha  occ. eigenvalues --  -24.73611  -1.19778  -0.53287  -0.44352  -0.44352
 Alpha  occ. eigenvalues --   -0.40347
 Alpha virt. eigenvalues --   -0.00675   0.21382   0.36965   0.89679   0.91556
 Alpha virt. eigenvalues --    0.91556   1.07956   1.07956   1.09389   1.44510
 Alpha virt. eigenvalues --    1.60767   1.60767   2.18965   2.32927   2.56523

  Beta  occ. eigenvalues --  -24.70688  -1.11470  -0.41442  -0.41442  -0.40203
  Beta virt. eigenvalues --   -0.25299   0.00536   0.22062   0.37463   0.92878
  Beta virt. eigenvalues --    0.92878   0.97194   1.08880   1.08880   1.12378
  Beta virt. eigenvalues --    1.46854   1.61405   1.61405   2.20194   2.33902

 Mulliken charges and spin densities:
               1          2
     1  H    0.021532  -0.060290
     2  H    0.041030   0.142682
     3  F   -0.062562   0.917608
 Sum of Mulliken charges =   0.00000   1.00000

 Dipole moment (field-independent basis, Debye):
    X=             -0.8284    Y=              0.0000    Z=              0.0000  Tot=              0.8284
 Quadrupole moment (field-independent basis, Debye-Ang):
   XX=             -6.5013   YY=             -7.2590   ZZ=             -7.2590
   XY=              0.0000   XZ=             -0.0000   YZ=              0.0000

  Exact polarizability:      32.693       0.000       2.163      -0.000      -0.000       2.163
 Approx polarizability:      42.481       0.000       2.182      -0.000      -0.000       2.182

 ******    1 imaginary frequencies (negative Signs) ******

                      1                      2                      3
                      A                      A                      A
 Frequencies --   -519.4304              1080.8046              1457.5260
 Red. masses --      1.0986                 1.0161                 1.0119
 Frc consts  --      0.1746                 0.6993                 1.2665
 IR Inten    --    215.7675               438.0781                 0.0099

                      4
                      A
 Frequencies --   1457.5260
 Red. masses --      1.0119
 Frc consts  --      1.2665
 IR Inten    --      0.0099

 - Thermochemistry -
 -------------------
 Temperature   298.150 Kelvin.  Pressure   1.00000 Atm.
 Atom     1 has atomic number  1 and mass   1.00783

 Molecular mass:    21.01405 amu.
 Principal axes and moments of inertia in atomic units:
                           1         2         3
     Eigenvalues --     0.00000  45.13334  45.13334
           X            1.00000  -0.00000   0.00000
           Y            0.00000   1.00000   0.00000
           Z            0.00000   0.00000   1.00000
 This molecule is a prolate symmetric top.
 Rotational symmetry number  1.
 Rotational temperature (Kelvin)      1.91907
 Rotational constant (GHZ):          39.986876
    1 imaginary frequencies ignored.
 Zero-point vibrational energy      23900.5 (Joules/Mol)
                                    5.71236 (Kcal/Mol)
 Vibrational temperatures:   1555.04  2097.05  2097.05
          (Kelvin)

 Zero-point correction=                           0.009103 (Hartree/Particle)
 Thermal correction to Energy=                    0.011502
 Thermal correction to Enthalpy=                  0.012446
 Thermal correction to Gibbs Free Energy=        -0.010624
 Sum of electronic and zero-point Energies=           -100.893091
 Sum of electronic and thermal Energies=              -100.890692
 Sum of electronic and thermal Enthalpies=            -100.889748
 Sum of electronic and thermal Free Energies=         -100.912818

                     E (Thermal)             CV                S
                      KCal/Mol        Cal/Mol-Kelvin    Cal/Mol-Kelvin
 Total                    7.218              5.438             48.555
 Electronic               0.000              0.000              1.377
 Translational            0.889              2.981             35.068
 Rotational               0.592              1.987             12.014
 Vibrational              5.737              0.470              0.096

 Normal termination of Gaussian 16 at Fri Aug 22 16:59:14 2025.
