 Gaussian 16, Revision C.01,
 Gaussian 16:  ES64L-G16RevC.01  3-Jul-2019

 -----------------------------------------
 # sp b3lyp/6-311g** Force nosymm scf=(qc)
 -----------------------------------------

 -------------------
 Title Card Required
 -------------------
 Symbolic Z-matrix:
 Charge =  0 Multiplicity = 2

                          Input orientation:
 ---------------------------------------------------------------------
 Center     Atomic      Atomic             Coordinates (Angstroms)
 Number     Number       Type             X           Y           Z
 ---------------------------------------------------------------------
      1          1           0        0.000000    0.000000    0.000000
      2          1           0       -3.650000    0.000000    0.000000
      3          9           0        3.500000    0.000000    0.000000
 ---------------------------------------------------------------------

 SCF Done:  E(UB3LYP) =  -100.759021661     a.u. after   27 cycles

 Alpha  occ. eigenvalues --  -24.75381  -1.21345  -0.54504  -0.45762  -0.45762
 Alpha  occ. eigenvalues --   -0.32322
 Alpha virt. eigenvalues --   -0.06765   0.24185   0.37127   0.87595   0.91484
 Alpha virt. eigenvalues --    0.91484   1.01815   1.25179   1.25179   1.25266
 Alpha virt. eigenvalues --    1.45555   1.45555   1.45689   2.14828   2.41645

  Beta  occ. eigenvalues --  -24.72267  -1.12398  -0.42641  -0.42641  -0.32820
  Beta virt. eigenvalues --   -0.25480  -0.06246   0.23942   0.38076   0.92973
  Beta virt. eigenvalues --    0.92973   0.96729   1.05822   1.24609   1.24609
  Beta virt. eigenvalues --    1.24679   1.46176   1.46381   1.46381   2.15009

 Mulliken charges and spin densities:
               1          2
     1  H    0.011483  -0.985791
     2  H    0.000122   0.998540
     3  F   -0.011605   0.987251
 Sum of Mulliken charges =  -0.00000   1.00000

 Dipole moment (field-independent basis, Debye):
    X=             -0.2111    Y=              0.0000    Z=              0.0000  Tot=              0.2111
 Quadrupole moment (field-independent basis, Debye-Ang):
   XX=             -7.4109   YY=             -7.6197   ZZ=             -7.6197
   XY=             -0.0000   XZ=             -0.0000   YZ=             -0.0000

  Exact polarizability:      23.280      -0.000       2.035      -0.000      -0.000       2.035
 Approx polarizability:      18.470      -0.000       1.934      -0.000       0.000       1.934

 ******    2 imaginary frequencies (negative Signs) ******

                      1                      2                      3
                      A                      A                      A
 Frequencies --   -231.3476               -92.3147                68.5737
 Red. masses --      1.0341                 1.0784                 1.0185
 Frc consts  --      0.0326                 0.0054                 0.0028
 IR Inten    --     10.8583                 0.7333                 0.1176

                      4
                      A
 Frequencies --     68.5737
 Red. masses --      1.0185
 Frc consts  --      0.0028
 IR Inten    --      0.1176

 - Thermochemistry -
 -------------------
 Temperature   298.150 Kelvin.  Pressure   1.00000 Atm.
 Atom     1 has atomic number  1 and mass   1.00783

 Molecular mass:    21.01405 amu.
 Principal axes and moments of inertia in atomic units:
                           1         2         3
     Eigenvalues --     0.00000 208.50066 208.50066
           X            1.00000  -0.00000   0.00000
           Y            0.00000   1.00000   0.00000
           Z            0.00000   0.00000   1.00000
 This molecule is a prolate symmetric top.
 Rotational symmetry number  1.
 Rotational temperature (Kelvin)      0.41541
 Rotational constant (GHZ):           8.655806
    2 imaginary frequencies ignored.
 Zero-point vibrational energy        820.3 (Joules/Mol)
                                    0.19606 (Kcal/Mol)
 Warning -- explicit consideration of   2 degrees of freedom as
           vibrations may cause significant error
 Vibrational temperatures:     98.66    98.66
          (Kelvin)

 Zero-point correction=                           0.000312 (Hartree/Particle)
 Thermal correction to Energy=                    0.004266
 Thermal correction to Enthalpy=                  0.005210
 Thermal correction to Gibbs Free Energy=        -0.023245
 Sum of electronic and zero-point Energies=           -100.758709
 Sum of electronic and thermal Energies=              -100.754756
 Sum of electronic and thermal Enthalpies=            -100.753811
 Sum of electronic and thermal Free Energies=         -100.782266

                     E (Thermal)             CV                S
                      KCal/Mol        Cal/Mol-Kelvin    Cal/Mol-Kelvin
 Total                    2.677              8.906             59.888
 Electronic               0.000              0.000              1.377
 Translational            0.889              2.981             35.068
 Rotational               0.592              1.987             15.055
 Vibrational              1.196              3.938              8.388
 Vibration     1          0.598              1.969              4.194
 Vibration     2          0.598              1.969              4.194

 Normal termination of Gaussian 16 at Fri Aug 22 22:11:32 2025.
