 Gaussian 16, Revision C.01,
 Gaussian 16:  ES64L-G16RevC.01  3-Jul-2019

 -----------------------------------------
 # sp b3lyp/6-311g** Force nosymm scf=(qc)
 -----------------------------------------

 -------------------
 Title Card Required
 -------------------
 Symbolic Z-matrix:
 Charge =  0 Multiplicity = 2

                          Input orientation:
 ---------------------------------------------------------------------
 Center     Atomic      Atomic             Coordinates (Angstroms)
 Number     Number       Type             X           Y           Z
 ---------------------------------------------------------------------
      1          1           0        0.000000    0.000000    0.000000
      2          1           0       -2.100000    0.000000    0.000000
      3          9           0        1.600000    0.000000    0.000000
 ---------------------------------------------------------------------

 SCF Done:  E(UB3LYP) =  -100.840425640     a.u. after   12 cycles

 Alpha  occ. eigenvalues --  -24.64528  -1.10544  -0.43926  -0.37011  -0.36577
 Alpha  occ. eigenvalues --   -0.36577
 Alpha virt. eigenvalues --   -0.13068   0.23380   0.27861   0.94579   0.94579
 Alpha virt. eigenvalues --    0.99180   1.06011   1.20494   1.20494   1.29382
 Alpha virt. eigenvalues --    1.33411   1.33411   1.73951   2.10247   2.25483

  Beta  occ. eigenvalues --  -24.63386  -1.07473  -0.40613  -0.35480  -0.35480
  Beta virt. eigenvalues --   -0.18751  -0.09146   0.25362   0.32728   0.94328
  Beta virt. eigenvalues --    0.94328   1.01371   1.07980   1.28172   1.28172
  Beta virt. eigenvalues --    1.37863   1.37863   1.43356   1.72488   2.13800

 Mulliken charges and spin densities:
               1          2
     1  H    0.282318  -0.294641
     2  H    0.042274   0.935882
     3  F   -0.324593   0.358759
 Sum of Mulliken charges =   0.00000   1.00000

 Dipole moment (field-independent basis, Debye):
    X=             -2.9647    Y=              0.0000    Z=              0.0000  Tot=              2.9647
 Quadrupole moment (field-independent basis, Debye-Ang):
   XX=             -9.0247   YY=             -7.3729   ZZ=             -7.3729
   XY=              0.0000   XZ=              0.0000   YZ=             -0.0000

  Exact polarizability:      33.357       0.000       2.177       0.000       0.000       2.177
 Approx polarizability:      45.472      -0.000       2.095      -0.000       0.000       2.095

 ******    2 imaginary frequencies (negative Signs) ******

                      1                      2                      3
                      A                      A                      A
 Frequencies --  -1993.7241              -459.6047               888.6305
 Red. masses --      1.0409                 1.0710                 1.0216
 Frc consts  --      2.4378                 0.1333                 0.4753
 IR Inten    --     19.8295                 7.4858                59.2329

                      4
                      A
 Frequencies --    888.6305
 Red. masses --      1.0216
 Frc consts  --      0.4753
 IR Inten    --     59.2329

 - Thermochemistry -
 -------------------
 Temperature   298.150 Kelvin.  Pressure   1.00000 Atm.
 Atom     1 has atomic number  1 and mass   1.00783

 Molecular mass:    21.01405 amu.
 Principal axes and moments of inertia in atomic units:
                           1         2         3
     Eigenvalues --     0.00000  53.63536  53.63536
           X            1.00000  -0.00000   0.00000
           Y            0.00000   1.00000   0.00000
           Z            0.00000   0.00000   1.00000
 This molecule is a prolate symmetric top.
 Rotational symmetry number  1.
 Rotational temperature (Kelvin)      1.61487
 Rotational constant (GHZ):          33.648347
    2 imaginary frequencies ignored.
 Zero-point vibrational energy      10630.4 (Joules/Mol)
                                    2.54072 (Kcal/Mol)
 Vibrational temperatures:   1278.54  1278.54
          (Kelvin)

 Zero-point correction=                           0.004049 (Hartree/Particle)
 Thermal correction to Energy=                    0.006522
 Thermal correction to Enthalpy=                  0.007466
 Thermal correction to Gibbs Free Energy=        -0.015860
 Sum of electronic and zero-point Energies=           -100.836377
 Sum of electronic and thermal Energies=              -100.833904
 Sum of electronic and thermal Enthalpies=            -100.832959
 Sum of electronic and thermal Free Energies=         -100.856286

                     E (Thermal)             CV                S
                      KCal/Mol        Cal/Mol-Kelvin    Cal/Mol-Kelvin
 Total                    4.093              6.000             49.095
 Electronic               0.000              0.000              1.377
 Translational            0.889              2.981             35.068
 Rotational               0.592              1.987             12.357
 Vibrational              2.611              1.032              0.292

 Normal termination of Gaussian 16 at Fri Aug 22 16:31:15 2025.
