 Gaussian 16, Revision C.01,
 Gaussian 16:  ES64L-G16RevC.01  3-Jul-2019

 -----------------------------------------
 # sp b3lyp/6-311g** Force nosymm scf=(qc)
 -----------------------------------------

 -------------------
 Title Card Required
 -------------------
 Symbolic Z-matrix:
 Charge =  0 Multiplicity = 2

                          Input orientation:
 ---------------------------------------------------------------------
 Center     Atomic      Atomic             Coordinates (Angstroms)
 Number     Number       Type             X           Y           Z
 ---------------------------------------------------------------------
      1          1           0        0.000000    0.000000    0.000000
      2          1           0       -3.400000    0.000000    0.000000
      3          9           0        1.350000    0.000000    0.000000
 ---------------------------------------------------------------------

 SCF Done:  E(UB3LYP) =  -100.889203545     a.u. after    7 cycles

 Alpha  occ. eigenvalues --  -24.64361  -1.10653  -0.45282  -0.36868  -0.36868
 Alpha  occ. eigenvalues --   -0.34029
 Alpha virt. eigenvalues --   -0.10411   0.21196   0.28201   0.93033   0.93033
 Alpha virt. eigenvalues --    1.02654   1.18551   1.23488   1.23488   1.23575
 Alpha virt. eigenvalues --    1.33267   1.33267   1.70927   2.13707   2.22922

  Beta  occ. eigenvalues --  -24.64350  -1.10626  -0.45252  -0.36858  -0.36858
  Beta virt. eigenvalues --   -0.11072  -0.06201   0.24599   0.38248   0.93030
  Beta virt. eigenvalues --    0.93030   1.02684   1.18620   1.33232   1.33232
  Beta virt. eigenvalues --    1.45901   1.46390   1.46390   1.70960   2.22627

 Mulliken charges and spin densities:
               1          2
     1  H    0.357342  -0.001315
     2  H    0.001946   0.997886
     3  F   -0.359288   0.003429
 Sum of Mulliken charges =  -0.00000   1.00000

 Dipole moment (field-independent basis, Debye):
    X=             -2.4731    Y=             -0.0000    Z=             -0.0000  Tot=              2.4731
 Quadrupole moment (field-independent basis, Debye-Ang):
   XX=             -9.3414   YY=             -7.2329   ZZ=             -7.2329
   XY=             -0.0000   XZ=             -0.0000   YZ=             -0.0000

  Exact polarizability:      12.554       0.000       2.257      -0.000      -0.000       2.257
 Approx polarizability:      20.078      -0.000       2.196       0.000       0.000       2.196

 ******    2 imaginary frequencies (negative Signs) ******

                      1                      2                      3
                      A                      A                      A
 Frequencies --   -878.1710               -76.9759              1126.1606
 Red. masses --      1.0569                 1.0546                 1.0318
 Frc consts  --      0.4802                 0.0037                 0.7710
 IR Inten    --     57.6295                 0.1369               130.2523

                      4
                      A
 Frequencies --   1126.1606
 Red. masses --      1.0318
 Frc consts  --      0.7710
 IR Inten    --    130.2523

 - Thermochemistry -
 -------------------
 Temperature   298.150 Kelvin.  Pressure   1.00000 Atm.
 Atom     1 has atomic number  1 and mass   1.00783

 Molecular mass:    21.01405 amu.
 Principal axes and moments of inertia in atomic units:
                           1         2         3
     Eigenvalues --     0.00000  81.33912  81.33912
           X            1.00000  -0.00000   0.00000
           Y            0.00000   1.00000   0.00000
           Z            0.00000   0.00000   1.00000
 This molecule is a prolate symmetric top.
 Rotational symmetry number  1.
 Rotational temperature (Kelvin)      1.06485
 Rotational constant (GHZ):          22.187862
    2 imaginary frequencies ignored.
 Zero-point vibrational energy      13471.9 (Joules/Mol)
                                    3.21985 (Kcal/Mol)
 Vibrational temperatures:   1620.29  1620.29
          (Kelvin)

 Zero-point correction=                           0.005131 (Hartree/Particle)
 Thermal correction to Energy=                    0.007537
 Thermal correction to Enthalpy=                  0.008481
 Thermal correction to Gibbs Free Energy=        -0.015153
 Sum of electronic and zero-point Energies=           -100.884072
 Sum of electronic and thermal Energies=              -100.881667
 Sum of electronic and thermal Enthalpies=            -100.880723
 Sum of electronic and thermal Free Energies=         -100.904357

                     E (Thermal)             CV                S
                      KCal/Mol        Cal/Mol-Kelvin    Cal/Mol-Kelvin
 Total                    4.729              5.485             49.742
 Electronic               0.000              0.000              1.377
 Translational            0.889              2.981             35.068
 Rotational               0.592              1.987             13.185
 Vibrational              3.248              0.517              0.112

 Normal termination of Gaussian 16 at Fri Aug 22 16:18:33 2025.
