 Gaussian 16, Revision C.01,
 Gaussian 16:  ES64L-G16RevC.01  3-Jul-2019

 -----------------------------------------
 # sp b3lyp/6-311g** Force nosymm scf=(qc)
 -----------------------------------------

 -------------------
 Title Card Required
 -------------------
 Symbolic Z-matrix:
 Charge =  0 Multiplicity = 2

                          Input orientation:
 ---------------------------------------------------------------------
 Center     Atomic      Atomic             Coordinates (Angstroms)
 Number     Number       Type             X           Y           Z
 ---------------------------------------------------------------------
      1          1           0        0.000000    0.000000    0.000000
      2          1           0       -0.800000    0.000000    0.000000
      3          9           0        3.900000    0.000000    0.000000
 ---------------------------------------------------------------------

 SCF Done:  E(UB3LYP) =  -100.931816815     a.u. after  295 cycles

 Alpha  occ. eigenvalues --  -24.76196  -1.22089  -0.55293  -0.46468  -0.46449
 Alpha  occ. eigenvalues --   -0.42206
 Alpha virt. eigenvalues --    0.04723   0.20105   0.44909   0.86081   0.90958
 Alpha virt. eigenvalues --    0.91713   1.01082   1.08268   1.08270   1.52129
 Alpha virt. eigenvalues --    1.78931   1.78933   2.03779   2.37852   3.05355

  Beta  occ. eigenvalues --  -24.73040  -1.13014  -0.43311  -0.43285  -0.42199
  Beta virt. eigenvalues --   -0.25941   0.04727   0.20109   0.44931   0.92458
  Beta virt. eigenvalues --    0.93204   0.95547   1.05218   1.08268   1.08270
  Beta virt. eigenvalues --    1.52131   1.78930   1.78933   2.03785   2.37853

 Mulliken charges and spin densities:
               1          2
     1  H    0.000310  -0.000155
     2  H   -0.001752  -0.000001
     3  F    0.001441   1.000155
 Sum of Mulliken charges =   0.00000   1.00000

 Dipole moment (field-independent basis, Debye):
    X=              0.0228    Y=             -0.0000    Z=             -0.0000  Tot=              0.0228
 Quadrupole moment (field-independent basis, Debye-Ang):
   XX=             -6.3058   YY=             -6.8613   ZZ=             -6.3113
   XY=             -0.0000   XZ=             -0.0000   YZ=              0.3335

  Exact polarizability:       8.753      -0.000       2.068      -0.000       0.180       2.365
 Approx polarizability:      10.384      -0.000       2.160      -0.000       0.225       2.531

 ******    1 imaginary frequencies (negative Signs) ******

                      1                      2                      3
                      A                      A                      A
 Frequencies --    -54.4855              1068.1942              1070.8787
 Red. masses --      1.1085                 1.0087                 1.0087
 Frc consts  --      0.0019                 0.6781                 0.6815
 IR Inten    --      0.0503                 0.0004                 0.0001

                      4
                      A
 Frequencies --   3694.5640
 Red. masses --      1.0078
 Frc consts  --      8.1052
 IR Inten    --      0.0296

 - Thermochemistry -
 -------------------
 Temperature   298.150 Kelvin.  Pressure   1.00000 Atm.
 Atom     1 has atomic number  1 and mass   1.00783

 Molecular mass:    21.01405 amu.
 Principal axes and moments of inertia in atomic units:
                           1         2         3
     Eigenvalues --     0.00000 121.47701 121.47701
           X            1.00000  -0.00000   0.00000
           Y            0.00000   1.00000   0.00000
           Z            0.00000   0.00000   1.00000
 This molecule is a prolate symmetric top.
 Rotational symmetry number  1.
 Rotational temperature (Kelvin)      0.71301
 Rotational constant (GHZ):          14.856648
    1 imaginary frequencies ignored.
 Zero-point vibrational energy      34892.9 (Joules/Mol)
                                    8.33960 (Kcal/Mol)
 Vibrational temperatures:   1536.89  1540.76  5315.65
          (Kelvin)

 Zero-point correction=                           0.013290 (Hartree/Particle)
 Thermal correction to Energy=                    0.015707
 Thermal correction to Enthalpy=                  0.016651
 Thermal correction to Gibbs Free Energy=        -0.007376
 Sum of electronic and zero-point Energies=           -100.918527
 Sum of electronic and thermal Energies=              -100.916110
 Sum of electronic and thermal Enthalpies=            -100.915166
 Sum of electronic and thermal Free Energies=         -100.939193

                     E (Thermal)             CV                S
                      KCal/Mol        Cal/Mol-Kelvin    Cal/Mol-Kelvin
 Total                    9.856              5.582             50.568
 Electronic               0.000              0.000              1.377
 Translational            0.889              2.981             35.068
 Rotational               0.592              1.987             13.982
 Vibrational              8.375              0.614              0.141

 Normal termination of Gaussian 16 at Sat Aug 23 01:14:05 2025.
