 Gaussian 16, Revision C.01,
 Gaussian 16:  ES64L-G16RevC.01  3-Jul-2019

 -----------------------------------------
 # sp b3lyp/6-311g** Force nosymm scf=(qc)
 -----------------------------------------

 -------------------
 Title Card Required
 -------------------
 Symbolic Z-matrix:
 Charge =  0 Multiplicity = 2

                          Input orientation:
 ---------------------------------------------------------------------
 Center     Atomic      Atomic             Coordinates (Angstroms)
 Number     Number       Type             X           Y           Z
 ---------------------------------------------------------------------
      1          1           0        0.000000    0.000000    0.000000
      2          1           0       -3.450000    0.000000    0.000000
      3          9           0        1.150000    0.000000    0.000000
 ---------------------------------------------------------------------

 SCF Done:  E(UB3LYP) =  -100.937372007     a.u. after    6 cycles

 Alpha  occ. eigenvalues --  -24.64322  -1.12999  -0.48651  -0.37794  -0.37794
 Alpha  occ. eigenvalues --   -0.33857
 Alpha virt. eigenvalues --   -0.04078   0.22793   0.30215   0.93358   0.93358
 Alpha virt. eigenvalues --    1.00190   1.23603   1.23659   1.23659   1.27876
 Alpha virt. eigenvalues --    1.34937   1.34937   1.75667   2.13955   2.30293

  Beta  occ. eigenvalues --  -24.64318  -1.12990  -0.48640  -0.37790  -0.37790
  Beta virt. eigenvalues --   -0.07152  -0.02939   0.28126   0.38793   0.93357
  Beta virt. eigenvalues --    0.93357   1.00200   1.27801   1.34930   1.34930
  Beta virt. eigenvalues --    1.48123   1.48123   1.48515   1.75700   2.30024

 Mulliken charges and spin densities:
               1          2
     1  H    0.347442   0.000274
     2  H    0.001321   0.998504
     3  F   -0.348764   0.001222
 Sum of Mulliken charges =   0.00000   1.00000

 Dipole moment (field-independent basis, Debye):
    X=             -2.2380    Y=              0.0000    Z=              0.0000  Tot=              2.2380
 Quadrupole moment (field-independent basis, Debye-Ang):
   XX=             -8.6921   YY=             -7.0891   ZZ=             -7.0891
   XY=              0.0000   XZ=              0.0000   YZ=             -0.0000

  Exact polarizability:       8.863       0.000       2.345      -0.000      -0.000       2.345
 Approx polarizability:      11.990       0.000       2.305       0.000       0.000       2.305

 ******    1 imaginary frequencies (negative Signs) ******

                      1                      2                      3
                      A                      A                      A
 Frequencies --    -59.0141              1205.9959              1205.9959
 Red. masses --      1.0530                 1.0346                 1.0346
 Frc consts  --      0.0022                 0.8866                 0.8866
 IR Inten    --      0.1097               151.1778               151.1778

                      4
                      A
 Frequencies --   1465.6837
 Red. masses --      1.0586
 Frc consts  --      1.3398
 IR Inten    --     74.0673

 - Thermochemistry -
 -------------------
 Temperature   298.150 Kelvin.  Pressure   1.00000 Atm.
 Atom     1 has atomic number  1 and mass   1.00783

 Molecular mass:    21.01405 amu.
 Principal axes and moments of inertia in atomic units:
                           1         2         3
     Eigenvalues --     0.00000  75.20789  75.20789
           X            1.00000  -0.00000   0.00000
           Y            0.00000   1.00000   0.00000
           Z            0.00000   0.00000   1.00000
 This molecule is a prolate symmetric top.
 Rotational symmetry number  1.
 Rotational temperature (Kelvin)      1.15166
 Rotational constant (GHZ):          23.996699
    1 imaginary frequencies ignored.
 Zero-point vibrational energy      23193.6 (Joules/Mol)
                                    5.54342 (Kcal/Mol)
 Vibrational temperatures:   1735.16  1735.16  2108.79
          (Kelvin)

 Zero-point correction=                           0.008834 (Hartree/Particle)
 Thermal correction to Energy=                    0.011233
 Thermal correction to Enthalpy=                  0.012177
 Thermal correction to Gibbs Free Energy=        -0.011375
 Sum of electronic and zero-point Energies=           -100.928538
 Sum of electronic and thermal Energies=              -100.926139
 Sum of electronic and thermal Enthalpies=            -100.925195
 Sum of electronic and thermal Free Energies=         -100.948747

                     E (Thermal)             CV                S
                      KCal/Mol        Cal/Mol-Kelvin    Cal/Mol-Kelvin
 Total                    7.049              5.454             49.569
 Electronic               0.000              0.000              1.377
 Translational            0.889              2.981             35.068
 Rotational               0.592              1.987             13.029
 Vibrational              5.568              0.486              0.094

 Normal termination of Gaussian 16 at Fri Aug 22 16:08:41 2025.
