 Gaussian 16, Revision C.01,
 Gaussian 16:  ES64L-G16RevC.01  3-Jul-2019

 -----------------------------------------
 # sp b3lyp/6-311g** Force nosymm scf=(qc)
 -----------------------------------------

 -------------------
 Title Card Required
 -------------------
 Symbolic Z-matrix:
 Charge =  0 Multiplicity = 2

                          Input orientation:
 ---------------------------------------------------------------------
 Center     Atomic      Atomic             Coordinates (Angstroms)
 Number     Number       Type             X           Y           Z
 ---------------------------------------------------------------------
      1          1           0        0.000000    0.000000    0.000000
      2          1           0       -2.950000    0.000000    0.000000
      3          9           0        0.500000    0.000000    0.000000
 ---------------------------------------------------------------------

 SCF Done:  E(UB3LYP) =  -100.269036190     a.u. after    6 cycles

 Alpha  occ. eigenvalues --  -24.63023  -1.42338  -0.63502  -0.44323  -0.44323
 Alpha  occ. eigenvalues --   -0.33669
 Alpha virt. eigenvalues --    0.08482   0.25649   0.62503   0.89012   0.90167
 Alpha virt. eigenvalues --    0.90167   1.22281   1.23857   1.23857   1.41346
 Alpha virt. eigenvalues --    1.58527   1.58527   2.00449   2.15118   3.76644

  Beta  occ. eigenvalues --  -24.63021  -1.42333  -0.63500  -0.44322  -0.44322
  Beta virt. eigenvalues --   -0.06125   0.09442   0.39198   0.62431   0.89030
  Beta virt. eigenvalues --    0.90160   0.90160   1.35830   1.49575   1.49575
  Beta virt. eigenvalues --    1.53049   1.58531   1.58531   2.00094   2.45138

 Mulliken charges and spin densities:
               1          2
     1  H    0.123316   0.001216
     2  H    0.002119   0.997496
     3  F   -0.125434   0.001288
 Sum of Mulliken charges =   0.00000   1.00000

 Dipole moment (field-independent basis, Debye):
    X=             -1.3192    Y=             -0.0000    Z=              0.0000  Tot=              1.3192
 Quadrupole moment (field-independent basis, Debye-Ang):
   XX=             -6.5770   YY=             -6.4379   ZZ=             -6.4379
   XY=             -0.0000   XZ=              0.0000   YZ=              0.0000

  Exact polarizability:       3.624      -0.000       2.422      -0.000      -0.000       2.422
 Approx polarizability:       3.703       0.000       2.401      -0.000      -0.000       2.401

 ******    2 imaginary frequencies (negative Signs) ******

                      1                      2                      3
                      A                      A                      A
 Frequencies --  -9572.9057             -9572.9057                33.9290
 Red. masses --      1.0440                 1.0440                 1.0532
 Frc consts  --     56.3691                56.3691                 0.0007
 IR Inten    --    276.9547               276.9547                 0.0781

                      4
                      A
 Frequencies --  19159.1801
 Red. masses --      1.0583
 Frc consts  --    228.8850
 IR Inten    --     80.1489

 - Thermochemistry -
 -------------------
 Temperature   298.150 Kelvin.  Pressure   1.00000 Atm.
 Atom     1 has atomic number  1 and mass   1.00783

 Molecular mass:    21.01405 amu.
 Principal axes and moments of inertia in atomic units:
                           1         2         3
     Eigenvalues --     0.00000  41.04385  41.04385
           X            1.00000  -0.00000   0.00000
           Y            0.00000   1.00000   0.00000
           Z            0.00000   0.00000   1.00000
 This molecule is a prolate symmetric top.
 Rotational symmetry number  1.
 Rotational temperature (Kelvin)      2.11028
 Rotational constant (GHZ):          43.971049
    2 imaginary frequencies ignored.
 Zero-point vibrational energy     114800.3 (Joules/Mol)
                                   27.43793 (Kcal/Mol)
 Warning -- explicit consideration of   1 degrees of freedom as
           vibrations may cause significant error
 Vibrational temperatures:     48.82 27565.79
          (Kelvin)

 Zero-point correction=                           0.043725 (Hartree/Particle)
 Thermal correction to Energy=                    0.046955
 Thermal correction to Enthalpy=                  0.047899
 Thermal correction to Gibbs Free Energy=         0.022310
 Sum of electronic and zero-point Energies=           -100.225311
 Sum of electronic and thermal Energies=              -100.222082
 Sum of electronic and thermal Enthalpies=            -100.221137
 Sum of electronic and thermal Free Energies=         -100.246726

                     E (Thermal)             CV                S
                      KCal/Mol        Cal/Mol-Kelvin    Cal/Mol-Kelvin
 Total                   29.464              6.951             53.856
 Electronic               0.000              0.000              1.377
 Translational            0.889              2.981             35.068
 Rotational               0.592              1.987             11.825
 Vibrational             27.983              1.983              5.585
 Vibration     1          0.594              1.983              5.585

 Normal termination of Gaussian 16 at Fri Aug 22 15:37:34 2025.
