 Gaussian 16, Revision C.01,
 Gaussian 16:  ES64L-G16RevC.01  3-Jul-2019

 -----------------------------------------
 # sp b3lyp/6-311g** Force nosymm scf=(qc)
 -----------------------------------------

 -------------------
 Title Card Required
 -------------------
 Symbolic Z-matrix:
 Charge =  0 Multiplicity = 2

                          Input orientation:
 ---------------------------------------------------------------------
 Center     Atomic      Atomic             Coordinates (Angstroms)
 Number     Number       Type             X           Y           Z
 ---------------------------------------------------------------------
      1          1           0        0.000000    0.000000    0.000000
      2          1           0       -1.850000    0.000000    0.000000
      3          9           0        2.300000    0.000000    0.000000
 ---------------------------------------------------------------------

 SCF Done:  E(UB3LYP) =  -100.794256581     a.u. after   17 cycles

 Alpha  occ. eigenvalues --  -24.70753  -1.17012  -0.49876  -0.41869  -0.41869
 Alpha  occ. eigenvalues --   -0.35815
 Alpha virt. eigenvalues --   -0.12925   0.24212   0.31504   0.88007   0.94089
 Alpha virt. eigenvalues --    0.94089   1.04121   1.21486   1.21912   1.21912
 Alpha virt. eigenvalues --    1.34415   1.34415   1.57162   2.11763   2.36102

  Beta  occ. eigenvalues --  -24.68015  -1.09249  -0.39146  -0.39146  -0.35881
  Beta virt. eigenvalues --   -0.23117  -0.11871   0.26509   0.31014   0.92931
  Beta virt. eigenvalues --    0.95346   0.95346   1.07486   1.22472   1.22472
  Beta virt. eigenvalues --    1.26227   1.35739   1.35739   1.57356   2.12493

 Mulliken charges and spin densities:
               1          2
     1  H    0.071246  -0.663849
     2  H    0.042116   0.800189
     3  F   -0.113362   0.863660
 Sum of Mulliken charges =   0.00000   1.00000

 Dipole moment (field-independent basis, Debye):
    X=             -1.6916    Y=             -0.0000    Z=             -0.0000  Tot=              1.6916
 Quadrupole moment (field-independent basis, Debye-Ang):
   XX=             -8.1420   YY=             -7.6373   ZZ=             -7.6373
   XY=              0.0000   XZ=              0.0000   YZ=             -0.0000

  Exact polarizability:      59.128      -0.000       2.025      -0.000       0.000       2.025
 Approx polarizability:      71.100       0.000       1.952       0.000      -0.000       1.952

 ******    2 imaginary frequencies (negative Signs) ******

                      1                      2                      3
                      A                      A                      A
 Frequencies --  -1681.7103              -460.5183               707.4969
 Red. masses --      1.0098                 1.1061                 1.0155
 Frc consts  --      1.6826                 0.1382                 0.2995
 IR Inten    --    159.9595                51.3664                 2.3113

                      4
                      A
 Frequencies --    707.4969
 Red. masses --      1.0155
 Frc consts  --      0.2995
 IR Inten    --      2.3113

 - Thermochemistry -
 -------------------
 Temperature   298.150 Kelvin.  Pressure   1.00000 Atm.
 Atom     1 has atomic number  1 and mass   1.00783

 Molecular mass:    21.01405 amu.
 Principal axes and moments of inertia in atomic units:
                           1         2         3
     Eigenvalues --     0.00000  73.84180  73.84180
           X            1.00000  -0.00000   0.00000
           Y            0.00000   1.00000   0.00000
           Z            0.00000   0.00000   1.00000
 This molecule is a prolate symmetric top.
 Rotational symmetry number  1.
 Rotational temperature (Kelvin)      1.17297
 Rotational constant (GHZ):          24.440645
    2 imaginary frequencies ignored.
 Zero-point vibrational energy       8463.5 (Joules/Mol)
                                    2.02284 (Kcal/Mol)
 Vibrational temperatures:   1017.93  1017.93
          (Kelvin)

 Zero-point correction=                           0.003224 (Hartree/Particle)
 Thermal correction to Energy=                    0.005803
 Thermal correction to Enthalpy=                  0.006748
 Thermal correction to Gibbs Free Energy=        -0.017024
 Sum of electronic and zero-point Energies=           -100.791033
 Sum of electronic and thermal Energies=              -100.788453
 Sum of electronic and thermal Enthalpies=            -100.787509
 Sum of electronic and thermal Free Energies=         -100.811281

                     E (Thermal)             CV                S
                      KCal/Mol        Cal/Mol-Kelvin    Cal/Mol-Kelvin
 Total                    3.642              6.598             50.033
 Electronic               0.000              0.000              1.377
 Translational            0.889              2.981             35.068
 Rotational               0.592              1.987             12.992
 Vibrational              2.160              1.630              0.595

 Normal termination of Gaussian 16 at Fri Aug 22 17:21:44 2025.
