 Gaussian 16, Revision C.01,
 Gaussian 16:  ES64L-G16RevC.01  3-Jul-2019

 -----------------------------------------
 # sp b3lyp/6-311g** Force nosymm scf=(qc)
 -----------------------------------------

 -------------------
 Title Card Required
 -------------------
 Symbolic Z-matrix:
 Charge =  0 Multiplicity = 2

                          Input orientation:
 ---------------------------------------------------------------------
 Center     Atomic      Atomic             Coordinates (Angstroms)
 Number     Number       Type             X           Y           Z
 ---------------------------------------------------------------------
      1          1           0        0.000000    0.000000    0.000000
      2          1           0       -1.500000    0.000000    0.000000
      3          9           0        1.350000    0.000000    0.000000
 ---------------------------------------------------------------------

 SCF Done:  E(UB3LYP) =  -100.902722352     a.u. after   11 cycles

 Alpha  occ. eigenvalues --  -24.63888  -1.11127  -0.48069  -0.38050  -0.36659
 Alpha  occ. eigenvalues --   -0.36659
 Alpha virt. eigenvalues --   -0.03544   0.20675   0.28855   0.93370   0.93370
 Alpha virt. eigenvalues --    1.01570   1.03434   1.14930   1.14930   1.40716
 Alpha virt. eigenvalues --    1.40716   1.52575   1.84501   2.19732   2.40758

  Beta  occ. eigenvalues --  -24.62974  -1.08744  -0.43682  -0.35801  -0.35801
  Beta virt. eigenvalues --   -0.20480   0.00083   0.24416   0.31080   0.93474
  Beta virt. eigenvalues --    0.93474   1.04428   1.08795   1.23371   1.23371
  Beta virt. eigenvalues --    1.43652   1.43652   1.56417   1.90298   2.25651

 Mulliken charges and spin densities:
               1          2
     1  H    0.285687  -0.111418
     2  H    0.065593   0.833012
     3  F   -0.351280   0.278406
 Sum of Mulliken charges =   0.00000   1.00000

 Dipole moment (field-independent basis, Debye):
    X=             -2.8744    Y=              0.0000    Z=              0.0000  Tot=              2.8744
 Quadrupole moment (field-independent basis, Debye-Ang):
   XX=             -8.1491   YY=             -7.1112   ZZ=             -7.1112
   XY=              0.0000   XZ=              0.0000   YZ=              0.0000

  Exact polarizability:      26.924       0.000       2.371       0.000       0.000       2.371
 Approx polarizability:      36.742       0.000       2.329       0.000      -0.000       2.329

 ******    1 imaginary frequencies (negative Signs) ******

                      1                      2                      3
                      A                      A                      A
 Frequencies --  -2324.2772                88.5560              1099.7515
 Red. masses --      1.0233                 1.0903                 1.0193
 Frc consts  --      3.2572                 0.0050                 0.7263
 IR Inten    --      8.8358                17.7924                47.7749

                      4
                      A
 Frequencies --   1099.7515
 Red. masses --      1.0193
 Frc consts  --      0.7263
 IR Inten    --     47.7749

 - Thermochemistry -
 -------------------
 Temperature   298.150 Kelvin.  Pressure   1.00000 Atm.
 Atom     1 has atomic number  1 and mass   1.00783

 Molecular mass:    21.01405 amu.
 Principal axes and moments of inertia in atomic units:
                           1         2         3
     Eigenvalues --     0.00000  32.74735  32.74735
           X            1.00000  -0.00000   0.00000
           Y            0.00000   1.00000   0.00000
           Z            0.00000   0.00000   1.00000
 This molecule is a prolate symmetric top.
 Rotational symmetry number  1.
 Rotational temperature (Kelvin)      2.64491
 Rotational constant (GHZ):          55.111054
    1 imaginary frequencies ignored.
 Zero-point vibrational energy      13685.6 (Joules/Mol)
                                    3.27094 (Kcal/Mol)
 Warning -- explicit consideration of   1 degrees of freedom as
           vibrations may cause significant error
 Vibrational temperatures:    127.41  1582.30  1582.30
          (Kelvin)

 Zero-point correction=                           0.005213 (Hartree/Particle)
 Thermal correction to Energy=                    0.008380
 Thermal correction to Enthalpy=                  0.009324
 Thermal correction to Gibbs Free Energy=        -0.015211
 Sum of electronic and zero-point Energies=           -100.897510
 Sum of electronic and thermal Energies=              -100.894343
 Sum of electronic and thermal Enthalpies=            -100.893398
 Sum of electronic and thermal Free Energies=         -100.917934

                     E (Thermal)             CV                S
                      KCal/Mol        Cal/Mol-Kelvin    Cal/Mol-Kelvin
 Total                    5.258              7.486             51.639
 Electronic               0.000              0.000              1.377
 Translational            0.889              2.981             35.068
 Rotational               0.592              1.987             11.377
 Vibrational              3.777              2.518              3.817
 Vibration     1          0.601              1.957              3.692

 Normal termination of Gaussian 16 at Fri Aug 22 16:17:13 2025.
