 Gaussian 16, Revision C.01,
 Gaussian 16:  ES64L-G16RevC.01  3-Jul-2019

 -----------------------------------------
 # sp b3lyp/6-311g** Force nosymm scf=(qc)
 -----------------------------------------

 -------------------
 Title Card Required
 -------------------
 Symbolic Z-matrix:
 Charge =  0 Multiplicity = 2

                          Input orientation:
 ---------------------------------------------------------------------
 Center     Atomic      Atomic             Coordinates (Angstroms)
 Number     Number       Type             X           Y           Z
 ---------------------------------------------------------------------
      1          1           0        0.000000    0.000000    0.000000
      2          1           0       -2.100000    0.000000    0.000000
      3          9           0        3.950000    0.000000    0.000000
 ---------------------------------------------------------------------

 SCF Done:  E(UB3LYP) =  -100.770418589     a.u. after  127 cycles

 Alpha  occ. eigenvalues --  -24.76108  -1.22015  -0.55221  -0.46387  -0.46378
 Alpha  occ. eigenvalues --   -0.32639
 Alpha virt. eigenvalues --   -0.10194   0.26153   0.33475   0.86138   0.91012
 Alpha virt. eigenvalues --    0.91312   1.00934   1.21083   1.25293   1.25293
 Alpha virt. eigenvalues --    1.39204   1.39207   1.48301   2.13788   2.35930

  Beta  occ. eigenvalues --  -24.72954  -1.12944  -0.43228  -0.43216  -0.32609
  Beta virt. eigenvalues --   -0.25875  -0.10259   0.26150   0.33467   0.92514
  Beta virt. eigenvalues --    0.92783   0.95606   1.05077   1.21069   1.25313
  Beta virt. eigenvalues --    1.25315   1.39158   1.39158   1.48284   2.14002

 Mulliken charges and spin densities:
               1          2
     1  H    0.000283  -0.894869
     2  H   -0.000838   0.894932
     3  F    0.000555   0.999937
 Sum of Mulliken charges =   0.00000   1.00000

 Dipole moment (field-independent basis, Debye):
    X=              0.0151    Y=              0.0000    Z=              0.0001  Tot=              0.0151
 Quadrupole moment (field-independent basis, Debye-Ang):
   XX=             -7.1062   YY=             -7.6480   ZZ=             -6.9267
   XY=              0.0233   XZ=              0.0796   YZ=              0.2312

  Exact polarizability:      19.745       0.015       2.050       0.035       0.125       2.440
 Approx polarizability:      20.562       0.015       1.982       0.051       0.156       2.468

 ******    2 imaginary frequencies (negative Signs) ******

                      1                      2                      3
                      A                      A                      A
 Frequencies --  -1175.2014               -45.4626               470.2422
 Red. masses --      1.0078                 1.1085                 1.0121
 Frc consts  --      0.8201                 0.0013                 0.1319
 IR Inten    --      0.0002                 0.0167                 0.0004

                      4
                      A
 Frequencies --    470.4386
 Red. masses --      1.0121
 Frc consts  --      0.1320
 IR Inten    --      0.0009

 - Thermochemistry -
 -------------------
 Temperature   298.150 Kelvin.  Pressure   1.00000 Atm.
 Atom     1 has atomic number  1 and mass   1.00783

 Molecular mass:    21.01405 amu.
 Principal axes and moments of inertia in atomic units:
                           1         2         3
     Eigenvalues --     0.00000 170.62555 170.62555
           X            1.00000  -0.00000   0.00000
           Y            0.00000   1.00000   0.00000
           Z            0.00000   0.00000   1.00000
 This molecule is a prolate symmetric top.
 Rotational symmetry number  1.
 Rotational temperature (Kelvin)      0.50763
 Rotational constant (GHZ):          10.577204
    2 imaginary frequencies ignored.
 Zero-point vibrational energy       5626.5 (Joules/Mol)
                                    1.34477 (Kcal/Mol)
 Warning -- explicit consideration of   2 degrees of freedom as
           vibrations may cause significant error
 Vibrational temperatures:    676.57   676.86
          (Kelvin)

 Zero-point correction=                           0.002143 (Hartree/Particle)
 Thermal correction to Energy=                    0.004997
 Thermal correction to Enthalpy=                  0.005942
 Thermal correction to Gibbs Free Energy=        -0.019039
 Sum of electronic and zero-point Energies=           -100.768276
 Sum of electronic and thermal Energies=              -100.765421
 Sum of electronic and thermal Enthalpies=            -100.764477
 Sum of electronic and thermal Free Energies=         -100.789457

                     E (Thermal)             CV                S
                      KCal/Mol        Cal/Mol-Kelvin    Cal/Mol-Kelvin
 Total                    3.136              7.600             52.575
 Electronic               0.000              0.000              1.377
 Translational            0.889              2.981             35.068
 Rotational               0.592              1.987             14.657
 Vibrational              1.655              2.632              1.473
 Vibration     1          0.827              1.316              0.737
 Vibration     2          0.827              1.316              0.736

 Normal termination of Gaussian 16 at Sat Aug 23 01:37:30 2025.
