 Gaussian 16, Revision C.01,
 Gaussian 16:  ES64L-G16RevC.01  3-Jul-2019

 -----------------------------------------
 # sp b3lyp/6-311g** Force nosymm scf=(qc)
 -----------------------------------------

 -------------------
 Title Card Required
 -------------------
 Symbolic Z-matrix:
 Charge =  0 Multiplicity = 2

                          Input orientation:
 ---------------------------------------------------------------------
 Center     Atomic      Atomic             Coordinates (Angstroms)
 Number     Number       Type             X           Y           Z
 ---------------------------------------------------------------------
      1          1           0        0.000000    0.000000    0.000000
      2          1           0       -3.500000    0.000000    0.000000
      3          9           0        1.250000    0.000000    0.000000
 ---------------------------------------------------------------------

 SCF Done:  E(UB3LYP) =  -100.913455353     a.u. after    6 cycles

 Alpha  occ. eigenvalues --  -24.64361  -1.11642  -0.46878  -0.37283  -0.37283
 Alpha  occ. eigenvalues --   -0.33875
 Alpha virt. eigenvalues --   -0.07348   0.21845   0.28863   0.93059   0.93059
 Alpha virt. eigenvalues --    1.01438   1.23485   1.23640   1.23640   1.24321
 Alpha virt. eigenvalues --    1.34253   1.34253   1.71155   2.13750   2.26619

  Beta  occ. eigenvalues --  -24.64356  -1.11629  -0.46863  -0.37278  -0.37278
  Beta virt. eigenvalues --   -0.08577  -0.05227   0.25885   0.38510   0.93058
  Beta virt. eigenvalues --    0.93058   1.01452   1.24183   1.34240   1.34240
  Beta virt. eigenvalues --    1.46756   1.46998   1.46998   1.71187   2.26245

 Mulliken charges and spin densities:
               1          2
     1  H    0.356350  -0.000177
     2  H    0.001345   0.998521
     3  F   -0.357694   0.001656
 Sum of Mulliken charges =   0.00000   1.00000

 Dipole moment (field-independent basis, Debye):
    X=             -2.3559    Y=             -0.0000    Z=             -0.0000  Tot=              2.3559
 Quadrupole moment (field-independent basis, Debye-Ang):
   XX=             -9.0283   YY=             -7.1646   ZZ=             -7.1646
   XY=             -0.0000   XZ=             -0.0000   YZ=             -0.0000

  Exact polarizability:      10.454       0.000       2.302      -0.000      -0.000       2.302
 Approx polarizability:      15.392      -0.000       2.251      -0.000      -0.000       2.251

 ******    1 imaginary frequencies (negative Signs) ******

                      1                      2                      3
                      A                      A                      A
 Frequencies --    -63.8102               442.9693              1187.2313
 Red. masses --      1.0501                 1.0616                 1.0335
 Frc consts  --      0.0025                 0.1227                 0.8583
 IR Inten    --      0.3469                63.4403               140.9846

                      4
                      A
 Frequencies --   1187.2313
 Red. masses --      1.0335
 Frc consts  --      0.8583
 IR Inten    --    140.9846

 - Thermochemistry -
 -------------------
 Temperature   298.150 Kelvin.  Pressure   1.00000 Atm.
 Atom     1 has atomic number  1 and mass   1.00783

 Molecular mass:    21.01405 amu.
 Principal axes and moments of inertia in atomic units:
                           1         2         3
     Eigenvalues --     0.00000  80.61223  80.61223
           X            1.00000  -0.00000   0.00000
           Y            0.00000   1.00000   0.00000
           Z            0.00000   0.00000   1.00000
 This molecule is a prolate symmetric top.
 Rotational symmetry number  1.
 Rotational temperature (Kelvin)      1.07445
 Rotational constant (GHZ):          22.387932
    1 imaginary frequencies ignored.
 Zero-point vibrational energy      16852.0 (Joules/Mol)
                                    4.02772 (Kcal/Mol)
 Warning -- explicit consideration of   1 degrees of freedom as
           vibrations may cause significant error
 Vibrational temperatures:    637.33  1708.16  1708.16
          (Kelvin)

 Zero-point correction=                           0.006419 (Hartree/Particle)
 Thermal correction to Energy=                    0.009084
 Thermal correction to Enthalpy=                  0.010028
 Thermal correction to Gibbs Free Energy=        -0.013974
 Sum of electronic and zero-point Energies=           -100.907037
 Sum of electronic and thermal Energies=              -100.904371
 Sum of electronic and thermal Enthalpies=            -100.903427
 Sum of electronic and thermal Free Energies=         -100.927429

                     E (Thermal)             CV                S
                      KCal/Mol        Cal/Mol-Kelvin    Cal/Mol-Kelvin
 Total                    5.700              6.771             50.517
 Electronic               0.000              0.000              1.377
 Translational            0.889              2.981             35.068
 Rotational               0.592              1.987             13.167
 Vibrational              4.219              1.803              0.904
 Vibration     1          0.803              1.376              0.817

 Normal termination of Gaussian 16 at Fri Aug 22 16:13:36 2025.
