 Gaussian 16, Revision C.01,
 Gaussian 16:  ES64L-G16RevC.01  3-Jul-2019

 -----------------------------------------
 # sp b3lyp/6-311g** Force nosymm scf=(qc)
 -----------------------------------------

 -------------------
 Title Card Required
 -------------------
 Symbolic Z-matrix:
 Charge =  0 Multiplicity = 2

                          Input orientation:
 ---------------------------------------------------------------------
 Center     Atomic      Atomic             Coordinates (Angstroms)
 Number     Number       Type             X           Y           Z
 ---------------------------------------------------------------------
      1          1           0        0.000000    0.000000    0.000000
      2          1           0       -0.700000    0.000000    0.000000
      3          9           0        2.050000    0.000000    0.000000
 ---------------------------------------------------------------------

 SCF Done:  E(UB3LYP) =  -100.932933282     a.u. after    6 cycles

 Alpha  occ. eigenvalues --  -24.75202  -1.21248  -0.55071  -0.45666  -0.45666
 Alpha  occ. eigenvalues --   -0.45305
 Alpha virt. eigenvalues --    0.08074   0.20150   0.46749   0.90694   0.90694
 Alpha virt. eigenvalues --    0.91585   1.07879   1.07879   1.15265   1.62513
 Alpha virt. eigenvalues --    1.84705   1.84705   1.88839   2.40636   3.56052

  Beta  occ. eigenvalues --  -24.72140  -1.12505  -0.45659  -0.42610  -0.42610
  Beta virt. eigenvalues --   -0.25742   0.08774   0.20685   0.47192   0.92088
  Beta virt. eigenvalues --    0.92088   0.99529   1.08399   1.08399   1.18980
  Beta virt. eigenvalues --    1.63596   1.84957   1.84957   1.89272   2.41226

 Mulliken charges and spin densities:
               1          2
     1  H   -0.001198  -0.020802
     2  H    0.026289   0.058936
     3  F   -0.025092   0.961866
 Sum of Mulliken charges =   0.00000   1.00000

 Dipole moment (field-independent basis, Debye):
    X=             -0.3292    Y=              0.0000    Z=              0.0000  Tot=              0.3292
 Quadrupole moment (field-independent basis, Debye-Ang):
   XX=             -5.9001   YY=             -6.8523   ZZ=             -6.8523
   XY=              0.0000   XZ=             -0.0000   YZ=             -0.0000

  Exact polarizability:      15.297      -0.000       2.050      -0.000      -0.000       2.050
 Approx polarizability:      16.535       0.000       2.118      -0.000       0.000       2.118

 ******    3 imaginary frequencies (negative Signs) ******

                      1                      2                      3
                      A                      A                      A
 Frequencies --  -1284.5998             -1284.5998              -125.3353
 Red. masses --      1.0099                 1.0099                 1.1085
 Frc consts  --      0.9819                 0.9819                 0.0103
 IR Inten    --      0.3138                 0.3138                18.4966

                      4
                      A
 Frequencies --   5034.7725
 Red. masses --      1.0078
 Frc consts  --     15.0521
 IR Inten    --    170.6362

 - Thermochemistry -
 -------------------
 Temperature   298.150 Kelvin.  Pressure   1.00000 Atm.
 Atom     1 has atomic number  1 and mass   1.00783

 Molecular mass:    21.01405 amu.
 Principal axes and moments of inertia in atomic units:
                           1         2         3
     Eigenvalues --     0.00000  38.36547  38.36547
           X            1.00000  -0.00000   0.00000
           Y            0.00000   1.00000   0.00000
           Z            0.00000   0.00000   1.00000
 This molecule is a prolate symmetric top.
 Rotational symmetry number  1.
 Rotational temperature (Kelvin)      2.25760
 Rotational constant (GHZ):          47.040766
    3 imaginary frequencies ignored.
 Zero-point vibrational energy      30114.6 (Joules/Mol)
                                    7.19757 (Kcal/Mol)
 Vibrational temperatures:   7243.91
          (Kelvin)

 Zero-point correction=                           0.011470 (Hartree/Particle)
 Thermal correction to Energy=                    0.013831
 Thermal correction to Enthalpy=                  0.014775
 Thermal correction to Gibbs Free Energy=        -0.008097
 Sum of electronic and zero-point Energies=           -100.921463
 Sum of electronic and thermal Energies=              -100.919103
 Sum of electronic and thermal Enthalpies=            -100.918159
 Sum of electronic and thermal Free Energies=         -100.941030

                     E (Thermal)             CV                S
                      KCal/Mol        Cal/Mol-Kelvin    Cal/Mol-Kelvin
 Total                    8.679              4.968             48.137
 Electronic               0.000              0.000              1.377
 Translational            0.889              2.981             35.068
 Rotational               0.592              1.987             11.691
 Vibrational              7.198              0.000              0.000

 Normal termination of Gaussian 16 at Fri Aug 22 16:58:58 2025.
