 Gaussian 16, Revision C.01,
 Gaussian 16:  ES64L-G16RevC.01  3-Jul-2019

 -----------------------------------------
 # sp b3lyp/6-311g** Force nosymm scf=(qc)
 -----------------------------------------

 -------------------
 Title Card Required
 -------------------
 Symbolic Z-matrix:
 Charge =  0 Multiplicity = 2

                          Input orientation:
 ---------------------------------------------------------------------
 Center     Atomic      Atomic             Coordinates (Angstroms)
 Number     Number       Type             X           Y           Z
 ---------------------------------------------------------------------
      1          1           0        0.000000    0.000000    0.000000
      2          1           0       -3.650000    0.000000    0.000000
      3          9           0        2.050000    0.000000    0.000000
 ---------------------------------------------------------------------

 SCF Done:  E(UB3LYP) =  -100.784031936     a.u. after   19 cycles

 Alpha  occ. eigenvalues --  -24.68641  -1.14965  -0.47646  -0.40112  -0.40112
 Alpha  occ. eigenvalues --   -0.33282
 Alpha virt. eigenvalues --   -0.13367   0.22478   0.32264   0.88507   0.94789
 Alpha virt. eigenvalues --    0.94789   1.05707   1.24228   1.24228   1.24277
 Alpha virt. eigenvalues --    1.35958   1.35958   1.58088   2.13883   2.30357

  Beta  occ. eigenvalues --  -24.66192  -1.08102  -0.37695  -0.37695  -0.37632
  Beta virt. eigenvalues --   -0.21075  -0.06702   0.22670   0.37994   0.90182
  Beta virt. eigenvalues --    0.95559   0.95559   1.08122   1.21737   1.21737
  Beta virt. eigenvalues --    1.45710   1.46148   1.46148   1.50485   2.11654

 Mulliken charges and spin densities:
               1          2
     1  H    0.179080  -0.768707
     2  H    0.001048   0.998419
     3  F   -0.180128   0.770287
 Sum of Mulliken charges =  -0.00000   1.00000

 Dipole moment (field-independent basis, Debye):
    X=             -1.8492    Y=             -0.0000    Z=              0.0000  Tot=              1.8492
 Quadrupole moment (field-independent basis, Debye-Ang):
   XX=            -10.0038   YY=             -7.4984   ZZ=             -7.4984
   XY=             -0.0000   XZ=              0.0000   YZ=              0.0000

  Exact polarizability:      26.046      -0.000       2.055       0.000      -0.000       2.055
 Approx polarizability:      37.349      -0.000       1.941       0.000       0.000       1.941

 ******    2 imaginary frequencies (negative Signs) ******

                      1                      2                      3
                      A                      A                      A
 Frequencies --  -1052.5737              -101.0354               446.3195
 Red. masses --      1.0573                 1.0543                 1.0262
 Frc consts  --      0.6902                 0.0063                 0.1204
 IR Inten    --    117.8918                 0.1366                30.3621

                      4
                      A
 Frequencies --    446.3195
 Red. masses --      1.0262
 Frc consts  --      0.1204
 IR Inten    --     30.3621

 - Thermochemistry -
 -------------------
 Temperature   298.150 Kelvin.  Pressure   1.00000 Atm.
 Atom     1 has atomic number  1 and mass   1.00783

 Molecular mass:    21.01405 amu.
 Principal axes and moments of inertia in atomic units:
                           1         2         3
     Eigenvalues --     0.00000 121.68942 121.68942
           X            1.00000  -0.00000   0.00000
           Y            0.00000   1.00000   0.00000
           Z            0.00000   0.00000   1.00000
 This molecule is a prolate symmetric top.
 Rotational symmetry number  1.
 Rotational temperature (Kelvin)      0.71176
 Rotational constant (GHZ):          14.830716
    2 imaginary frequencies ignored.
 Zero-point vibrational energy       5339.2 (Joules/Mol)
                                    1.27609 (Kcal/Mol)
 Warning -- explicit consideration of   2 degrees of freedom as
           vibrations may cause significant error
 Vibrational temperatures:    642.15   642.15
          (Kelvin)

 Zero-point correction=                           0.002034 (Hartree/Particle)
 Thermal correction to Energy=                    0.004928
 Thermal correction to Enthalpy=                  0.005872
 Thermal correction to Gibbs Free Energy=        -0.018856
 Sum of electronic and zero-point Energies=           -100.781998
 Sum of electronic and thermal Energies=              -100.779104
 Sum of electronic and thermal Enthalpies=            -100.778160
 Sum of electronic and thermal Free Energies=         -100.802888

                     E (Thermal)             CV                S
                      KCal/Mol        Cal/Mol-Kelvin    Cal/Mol-Kelvin
 Total                    3.092              7.706             52.045
 Electronic               0.000              0.000              1.377
 Translational            0.889              2.981             35.068
 Rotational               0.592              1.987             13.985
 Vibrational              1.611              2.738              1.614
 Vibration     1          0.806              1.369              0.807
 Vibration     2          0.806              1.369              0.807

 Normal termination of Gaussian 16 at Fri Aug 22 17:01:46 2025.
