 Gaussian 16, Revision C.01,
 Gaussian 16:  ES64L-G16RevC.01  3-Jul-2019

 -----------------------------------------
 # sp b3lyp/6-311g** Force nosymm scf=(qc)
 -----------------------------------------

 -------------------
 Title Card Required
 -------------------
 Symbolic Z-matrix:
 Charge =  0 Multiplicity = 2

                          Input orientation:
 ---------------------------------------------------------------------
 Center     Atomic      Atomic             Coordinates (Angstroms)
 Number     Number       Type             X           Y           Z
 ---------------------------------------------------------------------
      1          1           0        0.000000    0.000000    0.000000
      2          1           0       -3.500000    0.000000    0.000000
      3          9           0        3.300000    0.000000    0.000000
 ---------------------------------------------------------------------

 SCF Done:  E(UB3LYP) =  -100.759635520     a.u. after   25 cycles

 Alpha  occ. eigenvalues --  -24.74978  -1.20972  -0.54099  -0.45423  -0.45423
 Alpha  occ. eigenvalues --   -0.32405
 Alpha virt. eigenvalues --   -0.07347   0.24208   0.36619   0.88287   0.91733
 Alpha virt. eigenvalues --    0.91733   1.02455   1.25100   1.25100   1.25254
 Alpha virt. eigenvalues --    1.44841   1.44841   1.44994   2.14955   2.41057

  Beta  occ. eigenvalues --  -24.71890  -1.12107  -0.42330  -0.42330  -0.33115
  Beta virt. eigenvalues --   -0.25268  -0.06507   0.23990   0.37901   0.93214
  Beta virt. eigenvalues --    0.93214   0.97279   1.06376   1.24279   1.24279
  Beta virt. eigenvalues --    1.24433   1.45865   1.46108   1.46108   2.15255

 Mulliken charges and spin densities:
               1          2
     1  H    0.019034  -0.976738
     2  H    0.000268   0.997908
     3  F   -0.019302   0.978831
 Sum of Mulliken charges =  -0.00000   1.00000

 Dipole moment (field-independent basis, Debye):
    X=             -0.3319    Y=             -0.0000    Z=              0.0000  Tot=              0.3319
 Quadrupole moment (field-independent basis, Debye-Ang):
   XX=             -7.7244   YY=             -7.6188   ZZ=             -7.6188
   XY=             -0.0000   XZ=              0.0000   YZ=              0.0000

  Exact polarizability:      28.239      -0.000       2.030       0.000      -0.000       2.030
 Approx polarizability:      24.496      -0.000       1.931       0.000      -0.000       1.931

 ******    2 imaginary frequencies (negative Signs) ******

                      1                      2                      3
                      A                      A                      A
 Frequencies --   -290.2287              -111.5641                94.5377
 Red. masses --      1.0369                 1.0753                 1.0187
 Frc consts  --      0.0515                 0.0079                 0.0054
 IR Inten    --     20.0995                 1.0590                 0.3302

                      4
                      A
 Frequencies --     94.5377
 Red. masses --      1.0187
 Frc consts  --      0.0054
 IR Inten    --      0.3302

 - Thermochemistry -
 -------------------
 Temperature   298.150 Kelvin.  Pressure   1.00000 Atm.
 Atom     1 has atomic number  1 and mass   1.00783

 Molecular mass:    21.01405 amu.
 Principal axes and moments of inertia in atomic units:
                           1         2         3
     Eigenvalues --     0.00000 188.00373 188.00373
           X            1.00000  -0.00000   0.00000
           Y            0.00000   1.00000   0.00000
           Z            0.00000   0.00000   1.00000
 This molecule is a prolate symmetric top.
 Rotational symmetry number  1.
 Rotational temperature (Kelvin)      0.46070
 Rotational constant (GHZ):           9.599497
    2 imaginary frequencies ignored.
 Zero-point vibrational energy       1130.9 (Joules/Mol)
                                    0.27030 (Kcal/Mol)
 Warning -- explicit consideration of   2 degrees of freedom as
           vibrations may cause significant error
 Vibrational temperatures:    136.02   136.02
          (Kelvin)

 Zero-point correction=                           0.000431 (Hartree/Particle)
 Thermal correction to Energy=                    0.004281
 Thermal correction to Enthalpy=                  0.005226
 Thermal correction to Gibbs Free Energy=        -0.022533
 Sum of electronic and zero-point Energies=           -100.759205
 Sum of electronic and thermal Energies=              -100.755354
 Sum of electronic and thermal Enthalpies=            -100.754410
 Sum of electronic and thermal Free Energies=         -100.782168

                     E (Thermal)             CV                S
                      KCal/Mol        Cal/Mol-Kelvin    Cal/Mol-Kelvin
 Total                    2.687              8.874             58.423
 Electronic               0.000              0.000              1.377
 Translational            0.889              2.981             35.068
 Rotational               0.592              1.987             14.850
 Vibrational              1.205              3.906              7.128
 Vibration     1          0.603              1.953              3.564
 Vibration     2          0.603              1.953              3.564

 Normal termination of Gaussian 16 at Fri Aug 22 20:50:04 2025.
