 Gaussian 16, Revision C.01,
 Gaussian 16:  ES64L-G16RevC.01  3-Jul-2019

 -----------------------------------------
 # sp b3lyp/6-311g** Force nosymm scf=(qc)
 -----------------------------------------

 -------------------
 Title Card Required
 -------------------
 Symbolic Z-matrix:
 Charge =  0 Multiplicity = 2

                          Input orientation:
 ---------------------------------------------------------------------
 Center     Atomic      Atomic             Coordinates (Angstroms)
 Number     Number       Type             X           Y           Z
 ---------------------------------------------------------------------
      1          1           0        0.000000    0.000000    0.000000
      2          1           0       -3.100000    0.000000    0.000000
      3          9           0        1.200000    0.000000    0.000000
 ---------------------------------------------------------------------

 SCF Done:  E(UB3LYP) =  -100.925697864     a.u. after    6 cycles

 Alpha  occ. eigenvalues --  -24.64310  -1.12239  -0.47724  -0.37494  -0.37494
 Alpha  occ. eigenvalues --   -0.34280
 Alpha virt. eigenvalues --   -0.05581   0.23052   0.29155   0.93210   0.93210
 Alpha virt. eigenvalues --    1.00826   1.23138   1.23246   1.23246   1.27218
 Alpha virt. eigenvalues --    1.34665   1.34665   1.73200   2.14079   2.28780

  Beta  occ. eigenvalues --  -24.64300  -1.12212  -0.47689  -0.37484  -0.37484
  Beta virt. eigenvalues --   -0.08959  -0.03769   0.27384   0.37962   0.93209
  Beta virt. eigenvalues --    0.93209   1.00852   1.26822   1.34642   1.34642
  Beta virt. eigenvalues --    1.45965   1.46185   1.46185   1.73314   2.28744

 Mulliken charges and spin densities:
               1          2
     1  H    0.351524   0.000127
     2  H    0.003043   0.996464
     3  F   -0.354567   0.003409
 Sum of Mulliken charges =   0.00000   1.00000

 Dipole moment (field-independent basis, Debye):
    X=             -2.3237    Y=             -0.0000    Z=             -0.0000  Tot=              2.3237
 Quadrupole moment (field-independent basis, Debye-Ang):
   XX=             -8.7707   YY=             -7.1278   ZZ=             -7.1278
   XY=             -0.0000   XZ=             -0.0000   YZ=             -0.0000

  Exact polarizability:      10.432      -0.000       2.329       0.000       0.000       2.329
 Approx polarizability:      14.279      -0.000       2.285      -0.000      -0.000       2.285

 ******    1 imaginary frequencies (negative Signs) ******

                      1                      2                      3
                      A                      A                      A
 Frequencies --    -93.9287               993.9337              1197.0873
 Red. masses --      1.0517                 1.0599                 1.0322
 Frc consts  --      0.0055                 0.6169                 0.8715
 IR Inten    --      0.5686                78.5630               142.3819

                      4
                      A
 Frequencies --   1197.0873
 Red. masses --      1.0322
 Frc consts  --      0.8715
 IR Inten    --    142.3819

 - Thermochemistry -
 -------------------
 Temperature   298.150 Kelvin.  Pressure   1.00000 Atm.
 Atom     1 has atomic number  1 and mass   1.00783

 Molecular mass:    21.01405 amu.
 Principal axes and moments of inertia in atomic units:
                           1         2         3
     Eigenvalues --     0.00000  66.50688  66.50688
           X            1.00000  -0.00000   0.00000
           Y            0.00000   1.00000   0.00000
           Z            0.00000   0.00000   1.00000
 This molecule is a prolate symmetric top.
 Rotational symmetry number  1.
 Rotational temperature (Kelvin)      1.30233
 Rotational constant (GHZ):          27.136158
    1 imaginary frequencies ignored.
 Zero-point vibrational energy      20265.4 (Joules/Mol)
                                    4.84354 (Kcal/Mol)
 Vibrational temperatures:   1430.05  1722.34  1722.34
          (Kelvin)

 Zero-point correction=                           0.007719 (Hartree/Particle)
 Thermal correction to Energy=                    0.010151
 Thermal correction to Enthalpy=                  0.011095
 Thermal correction to Gibbs Free Energy=        -0.012381
 Sum of electronic and zero-point Energies=           -100.917979
 Sum of electronic and thermal Energies=              -100.915547
 Sum of electronic and thermal Enthalpies=            -100.914603
 Sum of electronic and thermal Free Energies=         -100.938079

                     E (Thermal)             CV                S
                      KCal/Mol        Cal/Mol-Kelvin    Cal/Mol-Kelvin
 Total                    6.370              5.765             49.410
 Electronic               0.000              0.000              1.377
 Translational            0.889              2.981             35.068
 Rotational               0.592              1.987             12.785
 Vibrational              4.888              0.797              0.180

 Normal termination of Gaussian 16 at Fri Aug 22 16:10:53 2025.
