 Gaussian 16, Revision C.01,
 Gaussian 16:  ES64L-G16RevC.01  3-Jul-2019

 -----------------------------------------
 # sp b3lyp/6-311g** Force nosymm scf=(qc)
 -----------------------------------------

 -------------------
 Title Card Required
 -------------------
 Symbolic Z-matrix:
 Charge =  0 Multiplicity = 2

                          Input orientation:
 ---------------------------------------------------------------------
 Center     Atomic      Atomic             Coordinates (Angstroms)
 Number     Number       Type             X           Y           Z
 ---------------------------------------------------------------------
      1          1           0        0.000000    0.000000    0.000000
      2          1           0       -2.150000    0.000000    0.000000
      3          9           0        1.750000    0.000000    0.000000
 ---------------------------------------------------------------------

 SCF Done:  E(UB3LYP) =  -100.818060483     a.u. after   16 cycles

 Alpha  occ. eigenvalues --  -24.65851  -1.12056  -0.44889  -0.37699  -0.37699
 Alpha  occ. eigenvalues --   -0.36632
 Alpha virt. eigenvalues --   -0.13820   0.23650   0.29019   0.94207   0.94957
 Alpha virt. eigenvalues --    0.94957   1.05819   1.21103   1.21103   1.27846
 Alpha virt. eigenvalues --    1.33701   1.33701   1.70874   2.10960   2.26872

  Beta  occ. eigenvalues --  -24.64064  -1.07158  -0.39203  -0.35961  -0.35961
  Beta virt. eigenvalues --   -0.19628  -0.10469   0.25182   0.32782   0.94927
  Beta virt. eigenvalues --    0.94927   0.95931   1.08431   1.25355   1.25355
  Beta virt. eigenvalues --    1.37848   1.37848   1.42216   1.67539   2.12676

 Mulliken charges and spin densities:
               1          2
     1  H    0.231875  -0.494219
     2  H    0.039342   0.932768
     3  F   -0.271217   0.561451
 Sum of Mulliken charges =  -0.00000   1.00000

 Dipole moment (field-independent basis, Debye):
    X=             -2.7250    Y=             -0.0000    Z=             -0.0000  Tot=              2.7250
 Quadrupole moment (field-independent basis, Debye-Ang):
   XX=             -9.0822   YY=             -7.4523   ZZ=             -7.4523
   XY=             -0.0000   XZ=             -0.0000   YZ=              0.0000

  Exact polarizability:      38.816      -0.000       2.121      -0.000      -0.000       2.121
 Approx polarizability:      49.554      -0.000       2.025      -0.000      -0.000       2.025

 ******    2 imaginary frequencies (negative Signs) ******

                      1                      2                      3
                      A                      A                      A
 Frequencies --  -1770.5078              -520.1628               742.6166
 Red. masses --      1.0392                 1.0729                 1.0206
 Frc consts  --      1.9192                 0.1710                 0.3316
 IR Inten    --     84.3397                16.2360                39.1858

                      4
                      A
 Frequencies --    742.6166
 Red. masses --      1.0206
 Frc consts  --      0.3316
 IR Inten    --     39.1858

 - Thermochemistry -
 -------------------
 Temperature   298.150 Kelvin.  Pressure   1.00000 Atm.
 Atom     1 has atomic number  1 and mass   1.00783

 Molecular mass:    21.01405 amu.
 Principal axes and moments of inertia in atomic units:
                           1         2         3
     Eigenvalues --     0.00000  60.25284  60.25284
           X            1.00000  -0.00000   0.00000
           Y            0.00000   1.00000   0.00000
           Z            0.00000   0.00000   1.00000
 This molecule is a prolate symmetric top.
 Rotational symmetry number  1.
 Rotational temperature (Kelvin)      1.43751
 Rotational constant (GHZ):          29.952799
    2 imaginary frequencies ignored.
 Zero-point vibrational energy       8883.7 (Joules/Mol)
                                    2.12325 (Kcal/Mol)
 Vibrational temperatures:   1068.46  1068.46
          (Kelvin)

 Zero-point correction=                           0.003384 (Hartree/Particle)
 Thermal correction to Energy=                    0.005937
 Thermal correction to Enthalpy=                  0.006882
 Thermal correction to Gibbs Free Energy=        -0.016662
 Sum of electronic and zero-point Energies=           -100.814677
 Sum of electronic and thermal Energies=              -100.812123
 Sum of electronic and thermal Enthalpies=            -100.811179
 Sum of electronic and thermal Free Energies=         -100.834723

                     E (Thermal)             CV                S
                      KCal/Mol        Cal/Mol-Kelvin    Cal/Mol-Kelvin
 Total                    3.726              6.468             49.553
 Electronic               0.000              0.000              1.377
 Translational            0.889              2.981             35.068
 Rotational               0.592              1.987             12.588
 Vibrational              2.245              1.500              0.519

 Normal termination of Gaussian 16 at Fri Aug 22 16:40:36 2025.
