 Gaussian 16, Revision C.01,
 Gaussian 16:  ES64L-G16RevC.01  3-Jul-2019

 -----------------------------------------
 # sp b3lyp/6-311g** Force nosymm scf=(qc)
 -----------------------------------------

 -------------------
 Title Card Required
 -------------------
 Symbolic Z-matrix:
 Charge =  0 Multiplicity = 2

                          Input orientation:
 ---------------------------------------------------------------------
 Center     Atomic      Atomic             Coordinates (Angstroms)
 Number     Number       Type             X           Y           Z
 ---------------------------------------------------------------------
      1          1           0        0.000000    0.000000    0.000000
      2          1           0       -2.650000    0.000000    0.000000
      3          9           0        1.600000    0.000000    0.000000
 ---------------------------------------------------------------------

 SCF Done:  E(UB3LYP) =  -100.835509800     a.u. after   11 cycles

 Alpha  occ. eigenvalues --  -24.64724  -1.10472  -0.43420  -0.36684  -0.36684
 Alpha  occ. eigenvalues --   -0.35360
 Alpha virt. eigenvalues --   -0.14690   0.22628   0.27619   0.94332   0.94332
 Alpha virt. eigenvalues --    1.00775   1.07688   1.22182   1.22182   1.23974
 Alpha virt. eigenvalues --    1.32467   1.32467   1.75048   2.13263   2.21769

  Beta  occ. eigenvalues --  -24.63808  -1.08012  -0.41148  -0.35805  -0.35805
  Beta virt. eigenvalues --   -0.17466  -0.08710   0.23942   0.35641   0.94033
  Beta virt. eigenvalues --    0.94033   1.02032   1.08015   1.27844   1.27844
  Beta virt. eigenvalues --    1.42573   1.42573   1.43075   1.73212   2.14978

 Mulliken charges and spin densities:
               1          2
     1  H    0.314387  -0.270510
     2  H    0.015345   0.981476
     3  F   -0.329732   0.289034
 Sum of Mulliken charges =  -0.00000   1.00000

 Dipole moment (field-independent basis, Debye):
    X=             -2.7703    Y=             -0.0000    Z=              0.0000  Tot=              2.7703
 Quadrupole moment (field-independent basis, Debye-Ang):
   XX=             -9.6359   YY=             -7.3796   ZZ=             -7.3796
   XY=              0.0000   XZ=              0.0000   YZ=             -0.0000

  Exact polarizability:      26.027      -0.000       2.157       0.000       0.000       2.157
 Approx polarizability:      39.060       0.000       2.071      -0.000       0.000       2.071

 ******    2 imaginary frequencies (negative Signs) ******

                      1                      2                      3
                      A                      A                      A
 Frequencies --  -1887.0334              -265.9516               890.5382
 Red. masses --      1.0533                 1.0583                 1.0250
 Frc consts  --      2.2098                 0.0441                 0.4790
 IR Inten    --     27.1138                 5.4309                86.4593

                      4
                      A
 Frequencies --    890.5382
 Red. masses --      1.0250
 Frc consts  --      0.4790
 IR Inten    --     86.4593

 - Thermochemistry -
 -------------------
 Temperature   298.150 Kelvin.  Pressure   1.00000 Atm.
 Atom     1 has atomic number  1 and mass   1.00783

 Molecular mass:    21.01405 amu.
 Principal axes and moments of inertia in atomic units:
                           1         2         3
     Eigenvalues --     0.00000  68.31351  68.31351
           X            1.00000  -0.00000   0.00000
           Y            0.00000   1.00000   0.00000
           Z            0.00000   0.00000   1.00000
 This molecule is a prolate symmetric top.
 Rotational symmetry number  1.
 Rotational temperature (Kelvin)      1.26789
 Rotational constant (GHZ):          26.418509
    2 imaginary frequencies ignored.
 Zero-point vibrational energy      10653.2 (Joules/Mol)
                                    2.54618 (Kcal/Mol)
 Vibrational temperatures:   1281.29  1281.29
          (Kelvin)

 Zero-point correction=                           0.004058 (Hartree/Particle)
 Thermal correction to Energy=                    0.006530
 Thermal correction to Enthalpy=                  0.007474
 Thermal correction to Gibbs Free Energy=        -0.016080
 Sum of electronic and zero-point Energies=           -100.831452
 Sum of electronic and thermal Energies=              -100.828980
 Sum of electronic and thermal Enthalpies=            -100.828036
 Sum of electronic and thermal Free Energies=         -100.851589

                     E (Thermal)             CV                S
                      KCal/Mol        Cal/Mol-Kelvin    Cal/Mol-Kelvin
 Total                    4.098              5.994             49.573
 Electronic               0.000              0.000              1.377
 Translational            0.889              2.981             35.068
 Rotational               0.592              1.987             12.838
 Vibrational              2.616              1.026              0.290

 Normal termination of Gaussian 16 at Fri Aug 22 16:31:46 2025.
