 Gaussian 16, Revision C.01,
 Gaussian 16:  ES64L-G16RevC.01  3-Jul-2019

 -----------------------------------------
 # sp b3lyp/6-311g** Force nosymm scf=(qc)
 -----------------------------------------

 -------------------
 Title Card Required
 -------------------
 Symbolic Z-matrix:
 Charge =  0 Multiplicity = 2

                          Input orientation:
 ---------------------------------------------------------------------
 Center     Atomic      Atomic             Coordinates (Angstroms)
 Number     Number       Type             X           Y           Z
 ---------------------------------------------------------------------
      1          1           0        0.000000    0.000000    0.000000
      2          1           0       -3.600000    0.000000    0.000000
      3          9           0        3.000000    0.000000    0.000000
 ---------------------------------------------------------------------

 SCF Done:  E(UB3LYP) =  -100.760999171     a.u. after   22 cycles

 Alpha  occ. eigenvalues --  -24.74080  -1.20141  -0.53200  -0.44670  -0.44670
 Alpha  occ. eigenvalues --   -0.32520
 Alpha virt. eigenvalues --   -0.08053   0.23954   0.36161   0.89369   0.92279
 Alpha virt. eigenvalues --    0.92279   1.03892   1.24983   1.24983   1.25092
 Alpha virt. eigenvalues --    1.44088   1.44088   1.44400   2.14689   2.40210

  Beta  occ. eigenvalues --  -24.71053  -1.11466  -0.41641  -0.41641  -0.33731
  Beta virt. eigenvalues --   -0.24771  -0.06412   0.23887   0.37983   0.93740
  Beta virt. eigenvalues --    0.93740   0.98052   1.07612   1.23599   1.23599
  Beta virt. eigenvalues --    1.24040   1.46015   1.46255   1.46255   2.14819

 Mulliken charges and spin densities:
               1          2
     1  H    0.036874  -0.957557
     2  H    0.000347   0.998387
     3  F   -0.037221   0.959170
 Sum of Mulliken charges =  -0.00000   1.00000

 Dipole moment (field-independent basis, Debye):
    X=             -0.5794    Y=              0.0000    Z=              0.0000  Tot=              0.5794
 Quadrupole moment (field-independent basis, Debye-Ang):
   XX=             -8.3175   YY=             -7.6081   ZZ=             -7.6081
   XY=             -0.0000   XZ=              0.0000   YZ=              0.0000

  Exact polarizability:      31.554      -0.000       2.026       0.000       0.000       2.026
 Approx polarizability:      32.212      -0.000       1.926       0.000      -0.000       1.926

 ******    2 imaginary frequencies (negative Signs) ******

                      1                      2                      3
                      A                      A                      A
 Frequencies --   -374.1959              -106.2923               131.3280
 Red. masses --      1.0488                 1.0629                 1.0203
 Frc consts  --      0.0865                 0.0071                 0.0104
 IR Inten    --     39.3953                 0.4187                 1.2819

                      4
                      A
 Frequencies --    131.3280
 Red. masses --      1.0203
 Frc consts  --      0.0104
 IR Inten    --      1.2819

 - Thermochemistry -
 -------------------
 Temperature   298.150 Kelvin.  Pressure   1.00000 Atm.
 Atom     1 has atomic number  1 and mass   1.00783

 Molecular mass:    21.01405 amu.
 Principal axes and moments of inertia in atomic units:
                           1         2         3
     Eigenvalues --     0.00000 173.25644 173.25644
           X            1.00000  -0.00000   0.00000
           Y            0.00000   1.00000   0.00000
           Z            0.00000   0.00000   1.00000
 This molecule is a prolate symmetric top.
 Rotational symmetry number  1.
 Rotational temperature (Kelvin)      0.49992
 Rotational constant (GHZ):          10.416590
    2 imaginary frequencies ignored.
 Zero-point vibrational energy       1571.0 (Joules/Mol)
                                    0.37549 (Kcal/Mol)
 Warning -- explicit consideration of   2 degrees of freedom as
           vibrations may cause significant error
 Vibrational temperatures:    188.95   188.95
          (Kelvin)

 Zero-point correction=                           0.000598 (Hartree/Particle)
 Thermal correction to Energy=                    0.004312
 Thermal correction to Enthalpy=                  0.005256
 Thermal correction to Gibbs Free Energy=        -0.021820
 Sum of electronic and zero-point Energies=           -100.760401
 Sum of electronic and thermal Energies=              -100.756688
 Sum of electronic and thermal Enthalpies=            -100.755743
 Sum of electronic and thermal Free Energies=         -100.782819

                     E (Thermal)             CV                S
                      KCal/Mol        Cal/Mol-Kelvin    Cal/Mol-Kelvin
 Total                    2.706              8.812             56.986
 Electronic               0.000              0.000              1.377
 Translational            0.889              2.981             35.068
 Rotational               0.592              1.987             14.687
 Vibrational              1.224              3.844              5.853
 Vibration     1          0.612              1.922              2.927
 Vibration     2          0.612              1.922              2.927

 Normal termination of Gaussian 16 at Fri Aug 22 19:33:15 2025.
