 Gaussian 16, Revision C.01,
 Gaussian 16:  ES64L-G16RevC.01  3-Jul-2019

 -----------------------------------------
 # sp b3lyp/6-311g** Force nosymm scf=(qc)
 -----------------------------------------

 -------------------
 Title Card Required
 -------------------
 Symbolic Z-matrix:
 Charge =  0 Multiplicity = 2

                          Input orientation:
 ---------------------------------------------------------------------
 Center     Atomic      Atomic             Coordinates (Angstroms)
 Number     Number       Type             X           Y           Z
 ---------------------------------------------------------------------
      1          1           0        0.000000    0.000000    0.000000
      2          1           0       -3.200000    0.000000    0.000000
      3          9           0        0.850000    0.000000    0.000000
 ---------------------------------------------------------------------

 SCF Done:  E(UB3LYP) =  -100.965548626     a.u. after    6 cycles

 Alpha  occ. eigenvalues --  -24.63846  -1.20895  -0.55006  -0.40126  -0.40126
 Alpha  occ. eigenvalues --   -0.33823
 Alpha virt. eigenvalues --    0.04330   0.25011   0.42485   0.94345   0.94345
 Alpha virt. eigenvalues --    0.97399   1.23152   1.23699   1.23699   1.31149
 Alpha virt. eigenvalues --    1.38367   1.38367   2.03288   2.14600   2.42926

  Beta  occ. eigenvalues --  -24.63844  -1.20889  -0.54999  -0.40125  -0.40125
  Beta virt. eigenvalues --   -0.06109   0.05197   0.39197   0.42460   0.94346
  Beta virt. eigenvalues --    0.94346   0.97387   1.29973   1.38366   1.38366
  Beta virt. eigenvalues --    1.50555   1.50581   1.50581   2.03351   2.42839

 Mulliken charges and spin densities:
               1          2
     1  H    0.283436   0.001043
     2  H    0.001515   0.998033
     3  F   -0.284951   0.000924
 Sum of Mulliken charges =   0.00000   1.00000

 Dipole moment (field-independent basis, Debye):
    X=             -1.8302    Y=              0.0000    Z=              0.0000  Tot=              1.8302
 Quadrupole moment (field-independent basis, Debye-Ang):
   XX=             -7.7078   YY=             -6.8194   ZZ=             -6.8194
   XY=              0.0000   XZ=              0.0000   YZ=              0.0000

  Exact polarizability:       5.476      -0.000       2.441       0.000       0.000       2.441
 Approx polarizability:       6.147       0.000       2.422      -0.000       0.000       2.422

 ******    3 imaginary frequencies (negative Signs) ******

                      1                      2                      3
                      A                      A                      A
 Frequencies --  -1322.1894             -1322.1894               -50.4640
 Red. masses --      1.0380                 1.0380                 1.0532
 Frc consts  --      1.0692                 1.0692                 0.0016
 IR Inten    --    185.8904               185.8904                 0.0880

                      4
                      A
 Frequencies --   5311.0970
 Red. masses --      1.0583
 Frc consts  --     17.5888
 IR Inten    --    107.4546

 - Thermochemistry -
 -------------------
 Temperature   298.150 Kelvin.  Pressure   1.00000 Atm.
 Atom     1 has atomic number  1 and mass   1.00783

 Molecular mass:    21.01405 amu.
 Principal axes and moments of inertia in atomic units:
                           1         2         3
     Eigenvalues --     0.00000  57.48873  57.48873
           X            1.00000  -0.00000   0.00000
           Y            0.00000   1.00000   0.00000
           Z            0.00000   0.00000   1.00000
 This molecule is a prolate symmetric top.
 Rotational symmetry number  1.
 Rotational temperature (Kelvin)      1.50662
 Rotational constant (GHZ):          31.392957
    3 imaginary frequencies ignored.
 Zero-point vibrational energy      31767.4 (Joules/Mol)
                                    7.59259 (Kcal/Mol)
 Vibrational temperatures:   7641.48
          (Kelvin)

 Zero-point correction=                           0.012100 (Hartree/Particle)
 Thermal correction to Energy=                    0.014460
 Thermal correction to Enthalpy=                  0.015404
 Thermal correction to Gibbs Free Energy=        -0.007849
 Sum of electronic and zero-point Energies=           -100.953449
 Sum of electronic and thermal Energies=              -100.951089
 Sum of electronic and thermal Enthalpies=            -100.950144
 Sum of electronic and thermal Free Energies=         -100.973398

                     E (Thermal)             CV                S
                      KCal/Mol        Cal/Mol-Kelvin    Cal/Mol-Kelvin
 Total                    9.074              4.968             48.940
 Electronic               0.000              0.000              1.377
 Translational            0.889              2.981             35.068
 Rotational               0.592              1.987             12.495
 Vibrational              7.593              0.000              0.000

 Normal termination of Gaussian 16 at Fri Aug 22 15:54:14 2025.
