 Gaussian 16, Revision C.01,
 Gaussian 16:  ES64L-G16RevC.01  3-Jul-2019

 -----------------------------------------
 # sp b3lyp/6-311g** Force nosymm scf=(qc)
 -----------------------------------------

 -------------------
 Title Card Required
 -------------------
 Symbolic Z-matrix:
 Charge =  0 Multiplicity = 2

                          Input orientation:
 ---------------------------------------------------------------------
 Center     Atomic      Atomic             Coordinates (Angstroms)
 Number     Number       Type             X           Y           Z
 ---------------------------------------------------------------------
      1          1           0        0.000000    0.000000    0.000000
      2          1           0       -2.500000    0.000000    0.000000
      3          9           0        2.500000    0.000000    0.000000
 ---------------------------------------------------------------------

 SCF Done:  E(UB3LYP) =  -100.771131665     a.u. after   16 cycles

 Alpha  occ. eigenvalues --  -24.71748  -1.17956  -0.50846  -0.42708  -0.42708
 Alpha  occ. eigenvalues --   -0.33794
 Alpha virt. eigenvalues --   -0.11933   0.24809   0.33145   0.90076   0.93626
 Alpha virt. eigenvalues --    0.93626   1.06583   1.23859   1.23859   1.26734
 Alpha virt. eigenvalues --    1.37902   1.37902   1.42988   2.14687   2.33464

  Beta  occ. eigenvalues --  -24.68906  -1.09865  -0.39875  -0.39875  -0.35306
  Beta virt. eigenvalues --   -0.23383  -0.09594   0.25802   0.34680   0.94991
  Beta virt. eigenvalues --    0.94991   0.96984   1.09423   1.22329   1.22329
  Beta virt. eigenvalues --    1.30268   1.41583   1.41583   1.43326   2.14366

 Mulliken charges and spin densities:
               1          2
     1  H    0.078059  -0.868756
     2  H    0.010964   0.970652
     3  F   -0.089023   0.898104
 Sum of Mulliken charges =  -0.00000   1.00000

 Dipole moment (field-independent basis, Debye):
    X=             -1.2632    Y=              0.0000    Z=             -0.0000  Tot=              1.2632
 Quadrupole moment (field-independent basis, Debye-Ang):
   XX=             -8.8264   YY=             -7.6112   ZZ=             -7.6112
   XY=              0.0000   XZ=             -0.0000   YZ=              0.0000

  Exact polarizability:      43.619       0.000       2.016      -0.000       0.000       2.016
 Approx polarizability:      47.036       0.000       1.918      -0.000      -0.000       1.918

 ******    2 imaginary frequencies (negative Signs) ******

                      1                      2                      3
                      A                      A                      A
 Frequencies --   -816.5079              -339.9969               323.4943
 Red. masses --      1.0206                 1.0934                 1.0179
 Frc consts  --      0.4009                 0.0745                 0.0628
 IR Inten    --     54.2162                24.5929                 4.9791

                      4
                      A
 Frequencies --    323.4943
 Red. masses --      1.0179
 Frc consts  --      0.0628
 IR Inten    --      4.9791

 - Thermochemistry -
 -------------------
 Temperature   298.150 Kelvin.  Pressure   1.00000 Atm.
 Atom     1 has atomic number  1 and mass   1.00783

 Molecular mass:    21.01405 amu.
 Principal axes and moments of inertia in atomic units:
                           1         2         3
     Eigenvalues --     0.00000 102.75988 102.75988
           X            1.00000  -0.00000   0.00000
           Y            0.00000   1.00000   0.00000
           Z            0.00000   0.00000   1.00000
 This molecule is a prolate symmetric top.
 Rotational symmetry number  1.
 Rotational temperature (Kelvin)      0.84288
 Rotational constant (GHZ):          17.562703
    2 imaginary frequencies ignored.
 Zero-point vibrational energy       3869.9 (Joules/Mol)
                                    0.92492 (Kcal/Mol)
 Warning -- explicit consideration of   2 degrees of freedom as
           vibrations may cause significant error
 Vibrational temperatures:    465.44   465.44
          (Kelvin)

 Zero-point correction=                           0.001474 (Hartree/Particle)
 Thermal correction to Energy=                    0.004618
 Thermal correction to Enthalpy=                  0.005562
 Thermal correction to Gibbs Free Energy=        -0.019468
 Sum of electronic and zero-point Energies=           -100.769658
 Sum of electronic and thermal Energies=              -100.766514
 Sum of electronic and thermal Enthalpies=            -100.765570
 Sum of electronic and thermal Free Energies=         -100.790600

                     E (Thermal)             CV                S
                      KCal/Mol        Cal/Mol-Kelvin    Cal/Mol-Kelvin
 Total                    2.898              8.225             52.679
 Electronic               0.000              0.000              1.377
 Translational            0.889              2.981             35.068
 Rotational               0.592              1.987             13.649
 Vibrational              1.416              3.257              2.585
 Vibration     1          0.708              1.628              1.292
 Vibration     2          0.708              1.628              1.292

 Normal termination of Gaussian 16 at Fri Aug 22 17:45:16 2025.
