 Gaussian 16, Revision C.01,
 Gaussian 16:  ES64L-G16RevC.01  3-Jul-2019

 -----------------------------------------
 # sp b3lyp/6-311g** Force nosymm scf=(qc)
 -----------------------------------------

 -------------------
 Title Card Required
 -------------------
 Symbolic Z-matrix:
 Charge =  0 Multiplicity = 2

                          Input orientation:
 ---------------------------------------------------------------------
 Center     Atomic      Atomic             Coordinates (Angstroms)
 Number     Number       Type             X           Y           Z
 ---------------------------------------------------------------------
      1          1           0        0.000000    0.000000    0.000000
      2          1           0       -3.650000    0.000000    0.000000
      3          9           0        2.150000    0.000000    0.000000
 ---------------------------------------------------------------------

 SCF Done:  E(UB3LYP) =  -100.778369683     a.u. after   18 cycles

 Alpha  occ. eigenvalues --  -24.66780  -1.08435  -0.38166  -0.38166  -0.37058
 Alpha  occ. eigenvalues --   -0.33104
 Alpha virt. eigenvalues --   -0.21645   0.20447   0.27691   0.90767   0.95637
 Alpha virt. eigenvalues --    0.95637   1.08170   1.21524   1.21524   1.24361
 Alpha virt. eigenvalues --    1.24361   1.24383   1.44722   2.10496   2.15608

  Beta  occ. eigenvalues --  -24.69349  -1.15669  -0.48390  -0.40710  -0.40710
  Beta virt. eigenvalues --   -0.12889  -0.04651   0.30449   0.40082   0.88335
  Beta virt. eigenvalues --    0.94645   0.94645   1.05919   1.37057   1.37057
  Beta virt. eigenvalues --    1.47785   1.47785   1.47985   1.53844   2.31462

 Mulliken charges and spin densities:
               1          2
     1  H    0.155763   0.809521
     2  H    0.000806   0.999213
     3  F   -0.156569  -0.808734
 Sum of Mulliken charges =   0.00000   1.00000

 Dipole moment (field-independent basis, Debye):
    X=             -1.6948    Y=              0.0000    Z=             -0.0000  Tot=              1.6948
 Quadrupole moment (field-independent basis, Debye-Ang):
   XX=             -9.9368   YY=             -7.5091   ZZ=             -7.5091
   XY=             -0.0000   XZ=             -0.0000   YZ=              0.0000

  Exact polarizability:      27.431      -0.000       2.045      -0.000      -0.000       2.045
 Approx polarizability:      38.723       0.000       1.933       0.000      -0.000       1.933

 ******    1 imaginary frequencies (negative Signs) ******

                      1                      2                      3
                      A                      A                      A
 Frequencies --   -912.7458                58.8907               384.2781
 Red. masses --      1.0590                 1.0526                 1.0254
 Frc consts  --      0.5198                 0.0022                 0.0892
 IR Inten    --    105.0564                 0.1032                23.1238

                      4
                      A
 Frequencies --    384.2781
 Red. masses --      1.0254
 Frc consts  --      0.0892
 IR Inten    --     23.1238

 - Thermochemistry -
 -------------------
 Temperature   298.150 Kelvin.  Pressure   1.00000 Atm.
 Atom     1 has atomic number  1 and mass   1.00783

 Molecular mass:    21.01405 amu.
 Principal axes and moments of inertia in atomic units:
                           1         2         3
     Eigenvalues --     0.00000 126.79788 126.79788
           X            1.00000  -0.00000   0.00000
           Y            0.00000   1.00000   0.00000
           Z            0.00000   0.00000   1.00000
 This molecule is a prolate symmetric top.
 Rotational symmetry number  1.
 Rotational temperature (Kelvin)      0.68309
 Rotational constant (GHZ):          14.233213
    1 imaginary frequencies ignored.
 Zero-point vibrational energy       4949.2 (Joules/Mol)
                                    1.18289 (Kcal/Mol)
 Warning -- explicit consideration of   3 degrees of freedom as
           vibrations may cause significant error
 Vibrational temperatures:     84.73   552.89   552.89
          (Kelvin)

 Zero-point correction=                           0.001885 (Hartree/Particle)
 Thermal correction to Energy=                    0.005712
 Thermal correction to Enthalpy=                  0.006656
 Thermal correction to Gibbs Free Energy=        -0.020451
 Sum of electronic and zero-point Energies=           -100.776485
 Sum of electronic and thermal Energies=              -100.772658
 Sum of electronic and thermal Enthalpies=            -100.771714
 Sum of electronic and thermal Free Energies=         -100.798820

                     E (Thermal)             CV                S
                      KCal/Mol        Cal/Mol-Kelvin    Cal/Mol-Kelvin
 Total                    3.584              9.949             57.051
 Electronic               0.000              0.000              1.377
 Translational            0.889              2.981             35.068
 Rotational               0.592              1.987             14.067
 Vibrational              2.103              4.981              6.539
 Vibration     1          0.596              1.974              4.494
 Vibration     2          0.753              1.504              1.022
 Vibration     3          0.753              1.504              1.022

 Normal termination of Gaussian 16 at Fri Aug 22 17:09:15 2025.
