 Gaussian 16, Revision C.01,
 Gaussian 16:  ES64L-G16RevC.01  3-Jul-2019

 -----------------------------------------
 # sp b3lyp/6-311g** Force nosymm scf=(qc)
 -----------------------------------------

 -------------------
 Title Card Required
 -------------------
 Symbolic Z-matrix:
 Charge =  0 Multiplicity = 2

                          Input orientation:
 ---------------------------------------------------------------------
 Center     Atomic      Atomic             Coordinates (Angstroms)
 Number     Number       Type             X           Y           Z
 ---------------------------------------------------------------------
      1          1           0        0.000000    0.000000    0.000000
      2          1           0       -1.800000    0.000000    0.000000
      3          9           0        2.150000    0.000000    0.000000
 ---------------------------------------------------------------------

 SCF Done:  E(UB3LYP) =  -100.802418330     a.u. after   13 cycles

 Alpha  occ. eigenvalues --  -24.69716  -1.16025  -0.48869  -0.41002  -0.41002
 Alpha  occ. eigenvalues --   -0.36493
 Alpha virt. eigenvalues --   -0.12882   0.23756   0.31206   0.86491   0.94455
 Alpha virt. eigenvalues --    0.94455   1.03561   1.21037   1.21037   1.24485
 Alpha virt. eigenvalues --    1.34305   1.34305   1.61921   2.12537   2.36244

  Beta  occ. eigenvalues --  -24.67100  -1.08646  -0.38409  -0.38409  -0.36535
  Beta virt. eigenvalues --   -0.22677  -0.11675   0.26243   0.30735   0.90293
  Beta virt. eigenvalues --    0.95547   0.95547   1.07400   1.22289   1.22289
  Beta virt. eigenvalues --    1.30130   1.35426   1.35426   1.61949   2.13308

 Mulliken charges and spin densities:
               1          2
     1  H    0.091573  -0.604331
     2  H    0.049901   0.780801
     3  F   -0.141474   0.823531
 Sum of Mulliken charges =   0.00000   1.00000

 Dipole moment (field-independent basis, Debye):
    X=             -1.9569    Y=              0.0000    Z=             -0.0000  Tot=              1.9569
 Quadrupole moment (field-independent basis, Debye-Ang):
   XX=             -8.2161   YY=             -7.6015   ZZ=             -7.6015
   XY=              0.0000   XZ=             -0.0000   YZ=              0.0000

  Exact polarizability:      56.611       0.000       2.046      -0.000      -0.000       2.046
 Approx polarizability:      72.012      -0.000       1.972       0.000      -0.000       1.972

 ******    2 imaginary frequencies (negative Signs) ******

                      1                      2                      3
                      A                      A                      A
 Frequencies --  -1796.6857              -518.1519               763.7500
 Red. masses --      1.0111                 1.1045                 1.0159
 Frc consts  --      1.9231                 0.1747                 0.3492
 IR Inten    --    217.8798                44.2875                 3.8248

                      4
                      A
 Frequencies --    763.7500
 Red. masses --      1.0159
 Frc consts  --      0.3492
 IR Inten    --      3.8248

 - Thermochemistry -
 -------------------
 Temperature   298.150 Kelvin.  Pressure   1.00000 Atm.
 Atom     1 has atomic number  1 and mass   1.00783

 Molecular mass:    21.01405 amu.
 Principal axes and moments of inertia in atomic units:
                           1         2         3
     Eigenvalues --     0.00000  66.36724  66.36724
           X            1.00000  -0.00000   0.00000
           Y            0.00000   1.00000   0.00000
           Z            0.00000   0.00000   1.00000
 This molecule is a prolate symmetric top.
 Rotational symmetry number  1.
 Rotational temperature (Kelvin)      1.30507
 Rotational constant (GHZ):          27.193252
    2 imaginary frequencies ignored.
 Zero-point vibrational energy       9136.5 (Joules/Mol)
                                    2.18367 (Kcal/Mol)
 Vibrational temperatures:   1098.87  1098.87
          (Kelvin)

 Zero-point correction=                           0.003480 (Hartree/Particle)
 Thermal correction to Energy=                    0.006019
 Thermal correction to Enthalpy=                  0.006964
 Thermal correction to Gibbs Free Energy=        -0.016652
 Sum of electronic and zero-point Energies=           -100.798938
 Sum of electronic and thermal Energies=              -100.796399
 Sum of electronic and thermal Enthalpies=            -100.795455
 Sum of electronic and thermal Free Energies=         -100.819071

                     E (Thermal)             CV                S
                      KCal/Mol        Cal/Mol-Kelvin    Cal/Mol-Kelvin
 Total                    3.777              6.393             49.704
 Electronic               0.000              0.000              1.377
 Translational            0.889              2.981             35.068
 Rotational               0.592              1.987             12.780
 Vibrational              2.296              1.425              0.478

 Normal termination of Gaussian 16 at Fri Aug 22 17:07:28 2025.
