 Gaussian 16, Revision C.01,
 Gaussian 16:  ES64L-G16RevC.01  3-Jul-2019

 -----------------------------------------
 # sp b3lyp/6-311g** Force nosymm scf=(qc)
 -----------------------------------------

 -------------------
 Title Card Required
 -------------------
 Symbolic Z-matrix:
 Charge =  0 Multiplicity = 2

                          Input orientation:
 ---------------------------------------------------------------------
 Center     Atomic      Atomic             Coordinates (Angstroms)
 Number     Number       Type             X           Y           Z
 ---------------------------------------------------------------------
      1          1           0        0.000000    0.000000    0.000000
      2          1           0       -1.500000    0.000000    0.000000
      3          9           0        2.150000    0.000000    0.000000
 ---------------------------------------------------------------------

 SCF Done:  E(UB3LYP) =  -100.830271986     a.u. after   12 cycles

 Alpha  occ. eigenvalues --  -24.71057  -1.17336  -0.50386  -0.42169  -0.42169
 Alpha  occ. eigenvalues --   -0.37290
 Alpha virt. eigenvalues --   -0.10637   0.22862   0.31416   0.85814   0.93558
 Alpha virt. eigenvalues --    0.93558   1.03004   1.16917   1.16917   1.24381
 Alpha virt. eigenvalues --    1.39086   1.39086   1.80898   2.19651   2.45001

  Beta  occ. eigenvalues --  -24.68329  -1.09614  -0.39459  -0.39459  -0.36735
  Beta virt. eigenvalues --   -0.23971  -0.09318   0.24609   0.31290   0.90553
  Beta virt. eigenvalues --    0.94764   0.94764   1.06827   1.18302   1.18302
  Beta virt. eigenvalues --    1.28476   1.39862   1.39862   1.82108   2.20728

 Mulliken charges and spin densities:
               1          2
     1  H    0.057984  -0.348823
     2  H    0.055480   0.490190
     3  F   -0.113464   0.858633
 Sum of Mulliken charges =  -0.00000   1.00000

 Dipole moment (field-independent basis, Debye):
    X=             -1.6170    Y=             -0.0000    Z=              0.0000  Tot=              1.6170
 Quadrupole moment (field-independent basis, Debye-Ang):
   XX=             -7.4631   YY=             -7.5782   ZZ=             -7.5782
   XY=              0.0000   XZ=             -0.0000   YZ=              0.0000

  Exact polarizability:      55.014       0.000       2.088      -0.000      -0.000       2.088
 Approx polarizability:      82.082      -0.000       2.049       0.000      -0.000       2.049

 ******    2 imaginary frequencies (negative Signs) ******

                      1                      2                      3
                      A                      A                      A
 Frequencies --  -2102.9885              -423.6394              1100.0929
 Red. masses --      1.0102                 1.1056                 1.0142
 Frc consts  --      2.6324                 0.1169                 0.7231
 IR Inten    --    769.9645                25.5657                 0.6367

                      4
                      A
 Frequencies --   1100.0929
 Red. masses --      1.0142
 Frc consts  --      0.7231
 IR Inten    --      0.6367

 - Thermochemistry -
 -------------------
 Temperature   298.150 Kelvin.  Pressure   1.00000 Atm.
 Atom     1 has atomic number  1 and mass   1.00783

 Molecular mass:    21.01405 amu.
 Principal axes and moments of inertia in atomic units:
                           1         2         3
     Eigenvalues --     0.00000  58.77771  58.77771
           X            1.00000  -0.00000   0.00000
           Y            0.00000   1.00000   0.00000
           Z            0.00000   0.00000   1.00000
 This molecule is a prolate symmetric top.
 Rotational symmetry number  1.
 Rotational temperature (Kelvin)      1.47358
 Rotational constant (GHZ):          30.704516
    2 imaginary frequencies ignored.
 Zero-point vibrational energy      13160.0 (Joules/Mol)
                                    3.14532 (Kcal/Mol)
 Vibrational temperatures:   1582.79  1582.79
          (Kelvin)

 Zero-point correction=                           0.005012 (Hartree/Particle)
 Thermal correction to Energy=                    0.007423
 Thermal correction to Enthalpy=                  0.008367
 Thermal correction to Gibbs Free Energy=        -0.014966
 Sum of electronic and zero-point Energies=           -100.825260
 Sum of electronic and thermal Energies=              -100.822849
 Sum of electronic and thermal Enthalpies=            -100.821905
 Sum of electronic and thermal Free Energies=         -100.845238

                     E (Thermal)             CV                S
                      KCal/Mol        Cal/Mol-Kelvin    Cal/Mol-Kelvin
 Total                    4.658              5.528             49.109
 Electronic               0.000              0.000              1.377
 Translational            0.889              2.981             35.068
 Rotational               0.592              1.987             12.539
 Vibrational              3.177              0.560              0.125

 Normal termination of Gaussian 16 at Fri Aug 22 17:07:12 2025.
