 Gaussian 16, Revision C.01,
 Gaussian 16:  ES64L-G16RevC.01  3-Jul-2019

 -----------------------------------------
 # sp b3lyp/6-311g** Force nosymm scf=(qc)
 -----------------------------------------

 -------------------
 Title Card Required
 -------------------
 Symbolic Z-matrix:
 Charge =  0 Multiplicity = 2

                          Input orientation:
 ---------------------------------------------------------------------
 Center     Atomic      Atomic             Coordinates (Angstroms)
 Number     Number       Type             X           Y           Z
 ---------------------------------------------------------------------
      1          1           0        0.000000    0.000000    0.000000
      2          1           0       -2.200000    0.000000    0.000000
      3          9           0        1.650000    0.000000    0.000000
 ---------------------------------------------------------------------

 SCF Done:  E(UB3LYP) =  -100.830790022     a.u. after   12 cycles

 Alpha  occ. eigenvalues --  -24.64966  -1.11011  -0.44045  -0.36930  -0.36930
 Alpha  occ. eigenvalues --   -0.36641
 Alpha virt. eigenvalues --   -0.13730   0.23529   0.28107   0.94711   0.94711
 Alpha virt. eigenvalues --    0.98112   1.06384   1.20977   1.20977   1.27406
 Alpha virt. eigenvalues --    1.33373   1.33373   1.73924   2.10869   2.24843

  Beta  occ. eigenvalues --  -24.63612  -1.07343  -0.40168  -0.35624  -0.35624
  Beta virt. eigenvalues --   -0.18793  -0.09737   0.25039   0.33262   0.94470
  Beta virt. eigenvalues --    0.94470   0.99850   1.08225   1.27048   1.27048
  Beta virt. eigenvalues --    1.38617   1.38617   1.42669   1.71497   2.13349

 Mulliken charges and spin densities:
               1          2
     1  H    0.272390  -0.371560
     2  H    0.036457   0.945585
     3  F   -0.308847   0.425975
 Sum of Mulliken charges =   0.00000   1.00000

 Dipole moment (field-independent basis, Debye):
    X=             -2.8710    Y=              0.0000    Z=              0.0000  Tot=              2.8710
 Quadrupole moment (field-independent basis, Debye-Ang):
   XX=             -9.1608   YY=             -7.4045   ZZ=             -7.4045
   XY=              0.0000   XZ=              0.0000   YZ=              0.0000

  Exact polarizability:      34.187      -0.000       2.153       0.000       0.000       2.153
 Approx polarizability:      45.870       0.000       2.064       0.000      -0.000       2.064

 ******    2 imaginary frequencies (negative Signs) ******

                      1                      2                      3
                      A                      A                      A
 Frequencies --  -1914.7051              -454.9529               832.3971
 Red. masses --      1.0439                 1.0679                 1.0218
 Frc consts  --      2.2548                 0.1302                 0.4171
 IR Inten    --     45.4449                11.4114                56.7307

                      4
                      A
 Frequencies --    832.3971
 Red. masses --      1.0218
 Frc consts  --      0.4171
 IR Inten    --     56.7307

 - Thermochemistry -
 -------------------
 Temperature   298.150 Kelvin.  Pressure   1.00000 Atm.
 Atom     1 has atomic number  1 and mass   1.00783

 Molecular mass:    21.01405 amu.
 Principal axes and moments of inertia in atomic units:
                           1         2         3
     Eigenvalues --     0.00000  57.92325  57.92325
           X            1.00000  -0.00000   0.00000
           Y            0.00000   1.00000   0.00000
           Z            0.00000   0.00000   1.00000
 This molecule is a prolate symmetric top.
 Rotational symmetry number  1.
 Rotational temperature (Kelvin)      1.49532
 Rotational constant (GHZ):          31.157460
    2 imaginary frequencies ignored.
 Zero-point vibrational energy       9957.7 (Joules/Mol)
                                    2.37994 (Kcal/Mol)
 Vibrational temperatures:   1197.63  1197.63
          (Kelvin)

 Zero-point correction=                           0.003793 (Hartree/Particle)
 Thermal correction to Energy=                    0.006292
 Thermal correction to Enthalpy=                  0.007236
 Thermal correction to Gibbs Free Energy=        -0.016197
 Sum of electronic and zero-point Energies=           -100.826997
 Sum of electronic and thermal Energies=              -100.824498
 Sum of electronic and thermal Enthalpies=            -100.823554
 Sum of electronic and thermal Free Energies=         -100.846987

                     E (Thermal)             CV                S
                      KCal/Mol        Cal/Mol-Kelvin    Cal/Mol-Kelvin
 Total                    3.948              6.166             49.320
 Electronic               0.000              0.000              1.377
 Translational            0.889              2.981             35.068
 Rotational               0.592              1.987             12.510
 Vibrational              2.467              1.198              0.365

 Normal termination of Gaussian 16 at Fri Aug 22 16:34:29 2025.
