 Gaussian 16, Revision C.01,
 Gaussian 16:  ES64L-G16RevC.01  3-Jul-2019

 -----------------------------------------
 # sp b3lyp/6-311g** Force nosymm scf=(qc)
 -----------------------------------------

 -------------------
 Title Card Required
 -------------------
 Symbolic Z-matrix:
 Charge =  0 Multiplicity = 2

                          Input orientation:
 ---------------------------------------------------------------------
 Center     Atomic      Atomic             Coordinates (Angstroms)
 Number     Number       Type             X           Y           Z
 ---------------------------------------------------------------------
      1          1           0        0.000000    0.000000    0.000000
      2          1           0       -1.850000    0.000000    0.000000
      3          9           0        1.050000    0.000000    0.000000
 ---------------------------------------------------------------------

 SCF Done:  E(UB3LYP) =  -100.959775205     a.u. after    6 cycles

 Alpha  occ. eigenvalues --  -24.63676  -1.14495  -0.50813  -0.37979  -0.37979
 Alpha  occ. eigenvalues --   -0.36635
 Alpha virt. eigenvalues --    0.03177   0.23258   0.31968   0.94203   0.94203
 Alpha virt. eigenvalues --    0.99231   1.12468   1.20147   1.20147   1.36663
 Alpha virt. eigenvalues --    1.36663   1.51102   1.83217   2.21306   2.34683

  Beta  occ. eigenvalues --  -24.63538  -1.14151  -0.49999  -0.37857  -0.37857
  Beta virt. eigenvalues --   -0.14012   0.05842   0.30574   0.34394   0.94227
  Beta virt. eigenvalues --    0.94227   0.99725   1.21795   1.33850   1.33850
  Beta virt. eigenvalues --    1.41343   1.41343   1.57122   1.88249   2.33812

 Mulliken charges and spin densities:
               1          2
     1  H    0.310924   0.001341
     2  H    0.024774   0.960339
     3  F   -0.335697   0.038320
 Sum of Mulliken charges =   0.00000   1.00000

 Dipole moment (field-independent basis, Debye):
    X=             -2.3505    Y=             -0.0000    Z=              0.0000  Tot=              2.3505
 Quadrupole moment (field-independent basis, Debye-Ang):
   XX=             -7.8297   YY=             -6.9445   ZZ=             -6.9445
   XY=             -0.0000   XZ=              0.0000   YZ=              0.0000

  Exact polarizability:      12.489       0.000       2.456      -0.000      -0.000       2.456
 Approx polarizability:      13.996      -0.000       2.436      -0.000      -0.000       2.436

 ******    1 imaginary frequencies (negative Signs) ******

                      1                      2                      3
                      A                      A                      A
 Frequencies --   -134.8925              1060.8013              1060.8013
 Red. masses --      1.0490                 1.0260                 1.0260
 Frc consts  --      0.0112                 0.6803                 0.6803
 IR Inten    --      6.0715               118.8185               118.8185

                      4
                      A
 Frequencies --   2335.1169
 Red. masses --      1.0627
 Frc consts  --      3.4140
 IR Inten    --    212.9497

 - Thermochemistry -
 -------------------
 Temperature   298.150 Kelvin.  Pressure   1.00000 Atm.
 Atom     1 has atomic number  1 and mass   1.00783

 Molecular mass:    21.01405 amu.
 Principal axes and moments of inertia in atomic units:
                           1         2         3
     Eigenvalues --     0.00000  31.54247  31.54247
           X            1.00000  -0.00000   0.00000
           Y            0.00000   1.00000   0.00000
           Z            0.00000   0.00000   1.00000
 This molecule is a prolate symmetric top.
 Rotational symmetry number  1.
 Rotational temperature (Kelvin)      2.74595
 Rotational constant (GHZ):          57.216231
    1 imaginary frequencies ignored.
 Zero-point vibrational energy      26657.1 (Joules/Mol)
                                    6.37120 (Kcal/Mol)
 Vibrational temperatures:   1526.26  1526.26  3359.71
          (Kelvin)

 Zero-point correction=                           0.010153 (Hartree/Particle)
 Thermal correction to Energy=                    0.012572
 Thermal correction to Enthalpy=                  0.013516
 Thermal correction to Gibbs Free Energy=        -0.009240
 Sum of electronic and zero-point Energies=           -100.949622
 Sum of electronic and thermal Energies=              -100.947203
 Sum of electronic and thermal Enthalpies=            -100.946259
 Sum of electronic and thermal Free Energies=         -100.969015

                     E (Thermal)             CV                S
                      KCal/Mol        Cal/Mol-Kelvin    Cal/Mol-Kelvin
 Total                    7.889              5.602             47.894
 Electronic               0.000              0.000              1.377
 Translational            0.889              2.981             35.068
 Rotational               0.592              1.987             11.302
 Vibrational              6.408              0.634              0.147

 Normal termination of Gaussian 16 at Fri Aug 22 16:02:49 2025.
