 Gaussian 16, Revision C.01,
 Gaussian 16:  ES64L-G16RevC.01  3-Jul-2019

 -----------------------------------------
 # sp b3lyp/6-311g** Force nosymm scf=(qc)
 -----------------------------------------

 -------------------
 Title Card Required
 -------------------
 Symbolic Z-matrix:
 Charge =  0 Multiplicity = 2

                          Input orientation:
 ---------------------------------------------------------------------
 Center     Atomic      Atomic             Coordinates (Angstroms)
 Number     Number       Type             X           Y           Z
 ---------------------------------------------------------------------
      1          1           0        0.000000    0.000000    0.000000
      2          1           0       -2.850000    0.000000    0.000000
      3          9           0        0.750000    0.000000    0.000000
 ---------------------------------------------------------------------

 SCF Done:  E(UB3LYP) =  -100.922076543     a.u. after    6 cycles

 Alpha  occ. eigenvalues --  -24.63429  -1.25447  -0.57369  -0.41166  -0.41166
 Alpha  occ. eigenvalues --   -0.34077
 Alpha virt. eigenvalues --    0.06401   0.25489   0.49181   0.93949   0.93949
 Alpha virt. eigenvalues --    0.96496   1.21419   1.23457   1.23457   1.35732
 Alpha virt. eigenvalues --    1.41735   1.41735   2.00826   2.14668   2.67727

  Beta  occ. eigenvalues --  -24.63425  -1.25436  -0.57357  -0.41164  -0.41164
  Beta virt. eigenvalues --   -0.06968   0.07593   0.38792   0.49419   0.93949
  Beta virt. eigenvalues --    0.93949   0.96503   1.30639   1.41734   1.41734
  Beta virt. eigenvalues --    1.49600   1.49600   1.51735   2.00778   2.43890

 Mulliken charges and spin densities:
               1          2
     1  H    0.265776   0.001837
     2  H    0.002620   0.996326
     3  F   -0.268395   0.001837
 Sum of Mulliken charges =   0.00000   1.00000

 Dipole moment (field-independent basis, Debye):
    X=             -1.6943    Y=             -0.0000    Z=              0.0000  Tot=              1.6943
 Quadrupole moment (field-independent basis, Debye-Ang):
   XX=             -7.3385   YY=             -6.7149   ZZ=             -6.7149
   XY=             -0.0000   XZ=              0.0000   YZ=              0.0000

  Exact polarizability:       5.184      -0.000       2.461      -0.000      -0.000       2.461
 Approx polarizability:       5.507       0.000       2.445      -0.000      -0.000       2.445

 ******    3 imaginary frequencies (negative Signs) ******

                      1                      2                      3
                      A                      A                      A
 Frequencies --  -2691.7169             -2691.7169               -17.3587
 Red. masses --      1.0382                 1.0382                 1.0532
 Frc consts  --      4.4318                 4.4318                 0.0002
 IR Inten    --    197.4398               197.4398                 0.1601

                      4
                      A
 Frequencies --   7586.1197
 Red. masses --      1.0583
 Frc consts  --     35.8845
 IR Inten    --    115.6333

 - Thermochemistry -
 -------------------
 Temperature   298.150 Kelvin.  Pressure   1.00000 Atm.
 Atom     1 has atomic number  1 and mass   1.00783

 Molecular mass:    21.01405 amu.
 Principal axes and moments of inertia in atomic units:
                           1         2         3
     Eigenvalues --     0.00000  45.40144  45.40144
           X            1.00000  -0.00000   0.00000
           Y            0.00000   1.00000   0.00000
           Z            0.00000   0.00000   1.00000
 This molecule is a prolate symmetric top.
 Rotational symmetry number  1.
 Rotational temperature (Kelvin)      1.90774
 Rotational constant (GHZ):          39.750749
    3 imaginary frequencies ignored.
 Zero-point vibrational energy      45375.1 (Joules/Mol)
                                   10.84490 (Kcal/Mol)
 Vibrational temperatures:  10914.73
          (Kelvin)

 Zero-point correction=                           0.017282 (Hartree/Particle)
 Thermal correction to Energy=                    0.019643
 Thermal correction to Enthalpy=                  0.020587
 Thermal correction to Gibbs Free Energy=        -0.002443
 Sum of electronic and zero-point Energies=           -100.904794
 Sum of electronic and thermal Energies=              -100.902434
 Sum of electronic and thermal Enthalpies=            -100.901489
 Sum of electronic and thermal Free Energies=         -100.924520

                     E (Thermal)             CV                S
                      KCal/Mol        Cal/Mol-Kelvin    Cal/Mol-Kelvin
 Total                   12.326              4.968             48.471
 Electronic               0.000              0.000              1.377
 Translational            0.889              2.981             35.068
 Rotational               0.592              1.987             12.026
 Vibrational             10.845              0.000              0.000

 Normal termination of Gaussian 16 at Fri Aug 22 15:49:18 2025.
