 Gaussian 16, Revision C.01,
 Gaussian 16:  ES64L-G16RevC.01  3-Jul-2019

 -----------------------------------------
 # sp b3lyp/6-311g** Force nosymm scf=(qc)
 -----------------------------------------

 -------------------
 Title Card Required
 -------------------
 Symbolic Z-matrix:
 Charge =  0 Multiplicity = 2

                          Input orientation:
 ---------------------------------------------------------------------
 Center     Atomic      Atomic             Coordinates (Angstroms)
 Number     Number       Type             X           Y           Z
 ---------------------------------------------------------------------
      1          1           0        0.000000    0.000000    0.000000
      2          1           0       -1.100000    0.000000    0.000000
      3          9           0        1.900000    0.000000    0.000000
 ---------------------------------------------------------------------

 SCF Done:  E(UB3LYP) =  -100.896663838     a.u. after   11 cycles

 Alpha  occ. eigenvalues --  -24.72138  -1.18468  -0.52232  -0.43167  -0.43167
 Alpha  occ. eigenvalues --   -0.40328
 Alpha virt. eigenvalues --   -0.01718   0.21249   0.34990   0.91142   0.91642
 Alpha virt. eigenvalues --    0.91642   1.08004   1.08438   1.08438   1.47478
 Alpha virt. eigenvalues --    1.57392   1.57392   2.16115   2.30491   2.55601

  Beta  occ. eigenvalues --  -24.69363  -1.10637  -0.40417  -0.40417  -0.40353
  Beta virt. eigenvalues --   -0.24770  -0.00037   0.22239   0.35616   0.92828
  Beta virt. eigenvalues --    0.92828   0.98067   1.09905   1.09905   1.10845
  Beta virt. eigenvalues --    1.50528   1.58345   1.58345   2.17903   2.32064

 Mulliken charges and spin densities:
               1          2
     1  H    0.051317  -0.095482
     2  H    0.050505   0.227954
     3  F   -0.101822   0.867529
 Sum of Mulliken charges =   0.00000   1.00000

 Dipole moment (field-independent basis, Debye):
    X=             -1.1999    Y=              0.0000    Z=             -0.0000  Tot=              1.1999
 Quadrupole moment (field-independent basis, Debye-Ang):
   XX=             -6.8708   YY=             -7.2662   ZZ=             -7.2662
   XY=              0.0000   XZ=             -0.0000   YZ=              0.0000

  Exact polarizability:      35.849       0.000       2.206      -0.000       0.000       2.206
 Approx polarizability:      50.469      -0.000       2.209       0.000      -0.000       2.209

 ******    1 imaginary frequencies (negative Signs) ******

                      1                      2                      3
                      A                      A                      A
 Frequencies --  -1084.5376               555.6677              1414.0061
 Red. masses --      1.0437                 1.0682                 1.0127
 Frc consts  --      0.7233                 0.1943                 1.1930
 IR Inten    --    853.5602               118.0016                 0.1228

                      4
                      A
 Frequencies --   1414.0061
 Red. masses --      1.0127
 Frc consts  --      1.1930
 IR Inten    --      0.1228

 - Thermochemistry -
 -------------------
 Temperature   298.150 Kelvin.  Pressure   1.00000 Atm.
 Atom     1 has atomic number  1 and mass   1.00783

 Molecular mass:    21.01405 amu.
 Principal axes and moments of inertia in atomic units:
                           1         2         3
     Eigenvalues --     0.00000  41.23921  41.23921
           X            1.00000  -0.00000   0.00000
           Y            0.00000   1.00000   0.00000
           Z            0.00000   0.00000   1.00000
 This molecule is a prolate symmetric top.
 Rotational symmetry number  1.
 Rotational temperature (Kelvin)      2.10028
 Rotational constant (GHZ):          43.762754
    1 imaginary frequencies ignored.
 Zero-point vibrational energy      20238.9 (Joules/Mol)
                                    4.83721 (Kcal/Mol)
 Warning -- explicit consideration of   1 degrees of freedom as
           vibrations may cause significant error
 Vibrational temperatures:    799.48  2034.44  2034.44
          (Kelvin)

 Zero-point correction=                           0.007709 (Hartree/Particle)
 Thermal correction to Energy=                    0.010269
 Thermal correction to Enthalpy=                  0.011213
 Thermal correction to Gibbs Free Energy=        -0.011995
 Sum of electronic and zero-point Energies=           -100.888955
 Sum of electronic and thermal Energies=              -100.886395
 Sum of electronic and thermal Enthalpies=            -100.885450
 Sum of electronic and thermal Free Energies=         -100.908659

                     E (Thermal)             CV                S
                      KCal/Mol        Cal/Mol-Kelvin    Cal/Mol-Kelvin
 Total                    6.444              6.297             48.847
 Electronic               0.000              0.000              1.377
 Translational            0.889              2.981             35.068
 Rotational               0.592              1.987             11.835
 Vibrational              4.963              1.329              0.566
 Vibration     1          0.911              1.127              0.533

 Normal termination of Gaussian 16 at Fri Aug 22 16:49:10 2025.
