 Gaussian 16, Revision C.01,
 Gaussian 16:  ES64L-G16RevC.01  3-Jul-2019

 -----------------------------------------
 # sp b3lyp/6-311g** Force nosymm scf=(qc)
 -----------------------------------------

 -------------------
 Title Card Required
 -------------------
 Symbolic Z-matrix:
 Charge =  0 Multiplicity = 2

                          Input orientation:
 ---------------------------------------------------------------------
 Center     Atomic      Atomic             Coordinates (Angstroms)
 Number     Number       Type             X           Y           Z
 ---------------------------------------------------------------------
      1          1           0        0.000000    0.000000    0.000000
      2          1           0       -3.350000    0.000000    0.000000
      3          9           0        0.550000    0.000000    0.000000
 ---------------------------------------------------------------------

 SCF Done:  E(UB3LYP) =  -100.519244783     a.u. after    6 cycles

 Alpha  occ. eigenvalues --  -24.62693  -1.38432  -0.62258  -0.43633  -0.43633
 Alpha  occ. eigenvalues --   -0.33390
 Alpha virt. eigenvalues --    0.07793   0.25244   0.60291   0.91194   0.91215
 Alpha virt. eigenvalues --    0.91215   1.23705   1.24123   1.24123   1.36440
 Alpha virt. eigenvalues --    1.54136   1.54136   1.96794   2.15090   3.65610

  Beta  occ. eigenvalues --  -24.62692  -1.38430  -0.62257  -0.43633  -0.43633
  Beta virt. eigenvalues --   -0.05352   0.08398   0.39490   0.60345   0.91192
  Beta virt. eigenvalues --    0.91213   0.91213   1.35162   1.50387   1.50387
  Beta virt. eigenvalues --    1.51545   1.54137   1.54137   1.96736   2.45113

 Mulliken charges and spin densities:
               1          2
     1  H    0.199712   0.000625
     2  H    0.000981   0.998823
     3  F   -0.200693   0.000552
 Sum of Mulliken charges =   0.00000   1.00000

 Dipole moment (field-independent basis, Debye):
    X=             -1.3728    Y=             -0.0000    Z=              0.0000  Tot=              1.3728
 Quadrupole moment (field-independent basis, Debye-Ang):
   XX=             -6.7899   YY=             -6.4956   ZZ=             -6.4956
   XY=             -0.0000   XZ=              0.0000   YZ=             -0.0000

  Exact polarizability:       3.352      -0.000       2.430      -0.000       0.000       2.430
 Approx polarizability:       3.524       0.000       2.408      -0.000       0.000       2.408

 ******    3 imaginary frequencies (negative Signs) ******

                      1                      2                      3
                      A                      A                      A
 Frequencies --  -7504.2457             -7504.2457               -29.6776
 Red. masses --      1.0444                 1.0444                 1.0532
 Frc consts  --     34.6515                34.6515                 0.0005
 IR Inten    --    257.6107               257.6107                 0.0344

                      4
                      A
 Frequencies --  15777.8710
 Red. masses --      1.0583
 Frc consts  --    155.2245
 IR Inten    --     89.6497

 - Thermochemistry -
 -------------------
 Temperature   298.150 Kelvin.  Pressure   1.00000 Atm.
 Atom     1 has atomic number  1 and mass   1.00783

 Molecular mass:    21.01405 amu.
 Principal axes and moments of inertia in atomic units:
                           1         2         3
     Eigenvalues --     0.00000  52.41157  52.41157
           X            1.00000  -0.00000   0.00000
           Y            0.00000   1.00000   0.00000
           Z            0.00000   0.00000   1.00000
 This molecule is a prolate symmetric top.
 Rotational symmetry number  1.
 Rotational temperature (Kelvin)      1.65257
 Rotational constant (GHZ):          34.434022
    3 imaginary frequencies ignored.
 Zero-point vibrational energy      94372.6 (Joules/Mol)
                                   22.55560 (Kcal/Mol)
 Vibrational temperatures:  22700.84
          (Kelvin)

 Zero-point correction=                           0.035945 (Hartree/Particle)
 Thermal correction to Energy=                    0.038305
 Thermal correction to Enthalpy=                  0.039249
 Thermal correction to Gibbs Free Energy=         0.016083
 Sum of electronic and zero-point Energies=           -100.483300
 Sum of electronic and thermal Energies=              -100.480940
 Sum of electronic and thermal Enthalpies=            -100.479996
 Sum of electronic and thermal Free Energies=         -100.503161

                     E (Thermal)             CV                S
                      KCal/Mol        Cal/Mol-Kelvin    Cal/Mol-Kelvin
 Total                   24.037              4.968             48.757
 Electronic               0.000              0.000              1.377
 Translational            0.889              2.981             35.068
 Rotational               0.592              1.987             12.311
 Vibrational             22.556              0.000              0.000

 Normal termination of Gaussian 16 at Fri Aug 22 15:40:12 2025.
