 Gaussian 16, Revision C.01,
 Gaussian 16:  ES64L-G16RevC.01  3-Jul-2019

 -----------------------------------------
 # sp b3lyp/6-311g** Force nosymm scf=(qc)
 -----------------------------------------

 -------------------
 Title Card Required
 -------------------
 Symbolic Z-matrix:
 Charge =  0 Multiplicity = 2

                          Input orientation:
 ---------------------------------------------------------------------
 Center     Atomic      Atomic             Coordinates (Angstroms)
 Number     Number       Type             X           Y           Z
 ---------------------------------------------------------------------
      1          1           0        0.000000    0.000000    0.000000
      2          1           0       -1.750000    0.000000    0.000000
      3          9           0        2.800000    0.000000    0.000000
 ---------------------------------------------------------------------

 SCF Done:  E(UB3LYP) =  -100.792970464     a.u. after   26 cycles

 Alpha  occ. eigenvalues --  -24.73894  -1.19965  -0.53021  -0.44517  -0.44517
 Alpha  occ. eigenvalues --   -0.34503
 Alpha virt. eigenvalues --   -0.11930   0.24909   0.30754   0.90102   0.92370
 Alpha virt. eigenvalues --    0.92370   1.04376   1.09406   1.22764   1.22764
 Alpha virt. eigenvalues --    1.36242   1.36242   1.62974   2.14315   2.40448

  Beta  occ. eigenvalues --  -24.70894  -1.11372  -0.41515  -0.41515  -0.34353
  Beta virt. eigenvalues --   -0.24854  -0.11467   0.25937   0.30739   0.93817
  Beta virt. eigenvalues --    0.93817   0.98212   1.06729   1.11715   1.22961
  Beta virt. eigenvalues --    1.22961   1.36780   1.36780   1.63532   2.15386

 Mulliken charges and spin densities:
               1          2
     1  H    0.017291  -0.644545
     2  H    0.025497   0.694246
     3  F   -0.042788   0.950299
 Sum of Mulliken charges =   0.00000   1.00000

 Dipole moment (field-independent basis, Debye):
    X=             -0.8252    Y=              0.0000    Z=              0.0000  Tot=              0.8252
 Quadrupole moment (field-independent basis, Debye-Ang):
   XX=             -7.1419   YY=             -7.7239   ZZ=             -7.7239
   XY=             -0.0000   XZ=             -0.0000   YZ=              0.0000

  Exact polarizability:      62.987      -0.000       2.012      -0.000       0.000       2.012
 Approx polarizability:      70.806      -0.000       1.961      -0.000       0.000       1.961

 ******    2 imaginary frequencies (negative Signs) ******

                      1                      2                      3
                      A                      A                      A
 Frequencies --  -1831.8291              -277.7139               819.9726
 Red. masses --      1.0080                 1.1083                 1.0133
 Frc consts  --      1.9929                 0.0504                 0.4014
 IR Inten    --    134.8137                37.0216                 0.0372

                      4
                      A
 Frequencies --    819.9726
 Red. masses --      1.0133
 Frc consts  --      0.4014
 IR Inten    --      0.0372

 - Thermochemistry -
 -------------------
 Temperature   298.150 Kelvin.  Pressure   1.00000 Atm.
 Atom     1 has atomic number  1 and mass   1.00783

 Molecular mass:    21.01405 amu.
 Principal axes and moments of inertia in atomic units:
                           1         2         3
     Eigenvalues --     0.00000  93.40004  93.40004
           X            1.00000  -0.00000   0.00000
           Y            0.00000   1.00000   0.00000
           Z            0.00000   0.00000   1.00000
 This molecule is a prolate symmetric top.
 Rotational symmetry number  1.
 Rotational temperature (Kelvin)      0.92734
 Rotational constant (GHZ):          19.322702
    2 imaginary frequencies ignored.
 Zero-point vibrational energy       9809.1 (Joules/Mol)
                                    2.34442 (Kcal/Mol)
 Vibrational temperatures:   1179.76  1179.76
          (Kelvin)

 Zero-point correction=                           0.003736 (Hartree/Particle)
 Thermal correction to Energy=                    0.006242
 Thermal correction to Enthalpy=                  0.007186
 Thermal correction to Gibbs Free Energy=        -0.016707
 Sum of electronic and zero-point Energies=           -100.789234
 Sum of electronic and thermal Energies=              -100.786728
 Sum of electronic and thermal Enthalpies=            -100.785784
 Sum of electronic and thermal Free Energies=         -100.809678

                     E (Thermal)             CV                S
                      KCal/Mol        Cal/Mol-Kelvin    Cal/Mol-Kelvin
 Total                    3.917              6.205             50.288
 Electronic               0.000              0.000              1.377
 Translational            0.889              2.981             35.068
 Rotational               0.592              1.987             13.459
 Vibrational              2.436              1.237              0.383

 Normal termination of Gaussian 16 at Fri Aug 22 18:42:42 2025.
