 Gaussian 16, Revision C.01,
 Gaussian 16:  ES64L-G16RevC.01  3-Jul-2019

 -----------------------------------------
 # sp b3lyp/6-311g** Force nosymm scf=(qc)
 -----------------------------------------

 -------------------
 Title Card Required
 -------------------
 Symbolic Z-matrix:
 Charge =  0 Multiplicity = 2

                          Input orientation:
 ---------------------------------------------------------------------
 Center     Atomic      Atomic             Coordinates (Angstroms)
 Number     Number       Type             X           Y           Z
 ---------------------------------------------------------------------
      1          1           0        0.000000    0.000000    0.000000
      2          1           0       -2.350000    0.000000    0.000000
      3          9           0        4.000000    0.000000    0.000000
 ---------------------------------------------------------------------

 SCF Done:  E(UB3LYP) =  -100.764492893     a.u. after   88 cycles

 Alpha  occ. eigenvalues --  -24.75924  -1.21849  -0.55050  -0.46223  -0.46223
 Alpha  occ. eigenvalues --   -0.32609
 Alpha virt. eigenvalues --   -0.09677   0.25940   0.34311   0.86537   0.91136
 Alpha virt. eigenvalues --    0.91136   1.01047   1.25123   1.25123   1.25963
 Alpha virt. eigenvalues --    1.40797   1.40797   1.43888   2.15267   2.35785

  Beta  occ. eigenvalues --  -24.72778  -1.12801  -0.43069  -0.43069  -0.32712
  Beta virt. eigenvalues --   -0.25769  -0.09511   0.25802   0.34531   0.92635
  Beta virt. eigenvalues --    0.92635   0.95929   1.05181   1.25012   1.25012
  Beta virt. eigenvalues --    1.25854   1.41025   1.41025   1.44095   2.15362

 Mulliken charges and spin densities:
               1          2
     1  H    0.000818  -0.950007
     2  H    0.001208   0.952352
     3  F   -0.002027   0.997655
 Sum of Mulliken charges =   0.00000   1.00000

 Dipole moment (field-independent basis, Debye):
    X=             -0.0551    Y=              0.0000    Z=              0.0000  Tot=              0.0551
 Quadrupole moment (field-independent basis, Debye-Ang):
   XX=             -6.5868   YY=             -7.6823   ZZ=             -7.6823
   XY=              0.0001   XZ=              0.0001   YZ=              0.0000

  Exact polarizability:      21.826       0.000       2.018       0.000      -0.000       2.018
 Approx polarizability:      17.569       0.000       1.931       0.000       0.000       1.931

 ******    2 imaginary frequencies (negative Signs) ******

                      1                      2                      3
                      A                      A                      A
 Frequencies --   -819.2992               -73.3584               310.8870
 Red. masses --      1.0078                 1.1085                 1.0128
 Frc consts  --      0.3986                 0.0035                 0.0577
 IR Inten    --      0.4643                 0.5936                 0.0001

                      4
                      A
 Frequencies --    310.8870
 Red. masses --      1.0128
 Frc consts  --      0.0577
 IR Inten    --      0.0001

 - Thermochemistry -
 -------------------
 Temperature   298.150 Kelvin.  Pressure   1.00000 Atm.
 Atom     1 has atomic number  1 and mass   1.00783

 Molecular mass:    21.01405 amu.
 Principal axes and moments of inertia in atomic units:
                           1         2         3
     Eigenvalues --     0.00000 184.21507 184.21507
           X            1.00000  -0.00000   0.00000
           Y            0.00000   1.00000   0.00000
           Z            0.00000   0.00000   1.00000
 This molecule is a prolate symmetric top.
 Rotational symmetry number  1.
 Rotational temperature (Kelvin)      0.47018
 Rotational constant (GHZ):           9.796925
    2 imaginary frequencies ignored.
 Zero-point vibrational energy       3719.0 (Joules/Mol)
                                    0.88887 (Kcal/Mol)
 Warning -- explicit consideration of   2 degrees of freedom as
           vibrations may cause significant error
 Vibrational temperatures:    447.30   447.30
          (Kelvin)

 Zero-point correction=                           0.001417 (Hartree/Particle)
 Thermal correction to Energy=                    0.004590
 Thermal correction to Enthalpy=                  0.005535
 Thermal correction to Gibbs Free Energy=        -0.020108
 Sum of electronic and zero-point Energies=           -100.763076
 Sum of electronic and thermal Energies=              -100.759902
 Sum of electronic and thermal Enthalpies=            -100.758958
 Sum of electronic and thermal Free Energies=         -100.784601

                     E (Thermal)             CV                S
                      KCal/Mol        Cal/Mol-Kelvin    Cal/Mol-Kelvin
 Total                    2.881              8.274             53.970
 Electronic               0.000              0.000              1.377
 Translational            0.889              2.981             35.068
 Rotational               0.592              1.987             14.809
 Vibrational              1.399              3.306              2.715
 Vibration     1          0.700              1.653              1.358
 Vibration     2          0.700              1.653              1.358

 Normal termination of Gaussian 16 at Sat Aug 23 01:54:54 2025.
