 Gaussian 16, Revision C.01,
 Gaussian 16:  ES64L-G16RevC.01  3-Jul-2019

 -----------------------------------------
 # sp b3lyp/6-311g** Force nosymm scf=(qc)
 -----------------------------------------

 -------------------
 Title Card Required
 -------------------
 Symbolic Z-matrix:
 Charge =  0 Multiplicity = 2

                          Input orientation:
 ---------------------------------------------------------------------
 Center     Atomic      Atomic             Coordinates (Angstroms)
 Number     Number       Type             X           Y           Z
 ---------------------------------------------------------------------
      1          1           0        0.000000    0.000000    0.000000
      2          1           0       -2.650000    0.000000    0.000000
      3          9           0        2.850000    0.000000    0.000000
 ---------------------------------------------------------------------

 SCF Done:  E(UB3LYP) =  -100.764748300     a.u. after   22 cycles

 Alpha  occ. eigenvalues --  -24.73542  -1.19638  -0.52657  -0.44216  -0.44216
 Alpha  occ. eigenvalues --   -0.33096
 Alpha virt. eigenvalues --   -0.10397   0.25058   0.33872   0.89972   0.92603
 Alpha virt. eigenvalues --    0.92603   1.04880   1.24506   1.24506   1.26338
 Alpha virt. eigenvalues --    1.40264   1.40264   1.41695   2.15501   2.36844

  Beta  occ. eigenvalues --  -24.70555  -1.11088  -0.41229  -0.41229  -0.34170
  Beta virt. eigenvalues --   -0.24472  -0.08785   0.25368   0.35387   0.94050
  Beta virt. eigenvalues --    0.94050   0.98479   1.08639   1.23260   1.23260
  Beta virt. eigenvalues --    1.25402   1.42836   1.42836   1.43725   2.16089

 Mulliken charges and spin densities:
               1          2
     1  H    0.043558  -0.926994
     2  H    0.004875   0.980915
     3  F   -0.048434   0.946079
 Sum of Mulliken charges =   0.00000   1.00000

 Dipole moment (field-independent basis, Debye):
    X=             -0.7694    Y=              0.0000    Z=              0.0000  Tot=              0.7694
 Quadrupole moment (field-independent basis, Debye-Ang):
   XX=             -8.3237   YY=             -7.6322   ZZ=             -7.6322
   XY=              0.0000   XZ=              0.0000   YZ=              0.0000

  Exact polarizability:      41.093       0.000       2.016       0.000       0.000       2.016
 Approx polarizability:      40.491       0.000       1.920       0.000       0.000       1.920

 ******    2 imaginary frequencies (negative Signs) ******

                      1                      2                      3
                      A                      A                      A
 Frequencies --   -621.0266              -252.3731               235.1297
 Red. masses --      1.0156                 1.0992                 1.0171
 Frc consts  --      0.2308                 0.0412                 0.0331
 IR Inten    --     35.2819                16.5648                 1.5871

                      4
                      A
 Frequencies --    235.1297
 Red. masses --      1.0171
 Frc consts  --      0.0331
 IR Inten    --      1.5871

 - Thermochemistry -
 -------------------
 Temperature   298.150 Kelvin.  Pressure   1.00000 Atm.
 Atom     1 has atomic number  1 and mass   1.00783

 Molecular mass:    21.01405 amu.
 Principal axes and moments of inertia in atomic units:
                           1         2         3
     Eigenvalues --     0.00000 126.06837 126.06837
           X            1.00000  -0.00000   0.00000
           Y            0.00000   1.00000   0.00000
           Z            0.00000   0.00000   1.00000
 This molecule is a prolate symmetric top.
 Rotational symmetry number  1.
 Rotational temperature (Kelvin)      0.68704
 Rotational constant (GHZ):          14.315575
    2 imaginary frequencies ignored.
 Zero-point vibrational energy       2812.8 (Joules/Mol)
                                    0.67227 (Kcal/Mol)
 Warning -- explicit consideration of   2 degrees of freedom as
           vibrations may cause significant error
 Vibrational temperatures:    338.30   338.30
          (Kelvin)

 Zero-point correction=                           0.001071 (Hartree/Particle)
 Thermal correction to Energy=                    0.004447
 Thermal correction to Enthalpy=                  0.005391
 Thermal correction to Gibbs Free Energy=        -0.020351
 Sum of electronic and zero-point Energies=           -100.763677
 Sum of electronic and thermal Energies=              -100.760301
 Sum of electronic and thermal Enthalpies=            -100.759357
 Sum of electronic and thermal Free Energies=         -100.785099

                     E (Thermal)             CV                S
                      KCal/Mol        Cal/Mol-Kelvin    Cal/Mol-Kelvin
 Total                    2.791              8.542             54.180
 Electronic               0.000              0.000              1.377
 Translational            0.889              2.981             35.068
 Rotational               0.592              1.987             14.055
 Vibrational              1.309              3.574              3.679
 Vibration     1          0.655              1.787              1.839
 Vibration     2          0.655              1.787              1.839

 Normal termination of Gaussian 16 at Fri Aug 22 18:54:03 2025.
