 Gaussian 16, Revision C.01,
 Gaussian 16:  ES64L-G16RevC.01  3-Jul-2019

 -----------------------------------------
 # sp b3lyp/6-311g** Force nosymm scf=(qc)
 -----------------------------------------

 -------------------
 Title Card Required
 -------------------
 Symbolic Z-matrix:
 Charge =  0 Multiplicity = 2

                          Input orientation:
 ---------------------------------------------------------------------
 Center     Atomic      Atomic             Coordinates (Angstroms)
 Number     Number       Type             X           Y           Z
 ---------------------------------------------------------------------
      1          1           0        0.000000    0.000000    0.000000
      2          1           0       -3.200000    0.000000    0.000000
      3          9           0        2.700000    0.000000    0.000000
 ---------------------------------------------------------------------

 SCF Done:  E(UB3LYP) =  -100.764415883     a.u. after   20 cycles

 Alpha  occ. eigenvalues --  -24.72820  -1.18968  -0.51933  -0.43615  -0.43615
 Alpha  occ. eigenvalues --   -0.32864
 Alpha virt. eigenvalues --   -0.09681   0.24062   0.35248   0.90035   0.93019
 Alpha virt. eigenvalues --    0.93019   1.05665   1.24660   1.24660   1.25147
 Alpha virt. eigenvalues --    1.41890   1.41890   1.43207   2.15028   2.37332

  Beta  occ. eigenvalues --  -24.69887  -1.10590  -0.40685  -0.40685  -0.34617
  Beta virt. eigenvalues --   -0.24028  -0.07268   0.24392   0.37288   0.94443
  Beta virt. eigenvalues --    0.94443   0.97907   1.08829   1.22733   1.22733
  Beta virt. eigenvalues --    1.25686   1.45075   1.45279   1.45279   2.14496

 Mulliken charges and spin densities:
               1          2
     1  H    0.063037  -0.923866
     2  H    0.001492   0.995607
     3  F   -0.064529   0.928259
 Sum of Mulliken charges =  -0.00000   1.00000

 Dipole moment (field-independent basis, Debye):
    X=             -0.9144    Y=              0.0000    Z=             -0.0000  Tot=              0.9144
 Quadrupole moment (field-independent basis, Debye-Ang):
   XX=             -8.8523   YY=             -7.5969   ZZ=             -7.5969
   XY=              0.0000   XZ=             -0.0000   YZ=              0.0000

  Exact polarizability:      33.656       0.000       2.022      -0.000       0.000       2.022
 Approx polarizability:      38.469       0.000       1.921      -0.000      -0.000       1.921

 ******    2 imaginary frequencies (negative Signs) ******

                      1                      2                      3
                      A                      A                      A
 Frequencies --   -524.9591              -167.4863               197.2106
 Red. masses --      1.0455                 1.0663                 1.0201
 Frc consts  --      0.1698                 0.0176                 0.0234
 IR Inten    --     61.4523                 1.6100                 3.6864

                      4
                      A
 Frequencies --    197.2106
 Red. masses --      1.0201
 Frc consts  --      0.0234
 IR Inten    --      3.6864

 - Thermochemistry -
 -------------------
 Temperature   298.150 Kelvin.  Pressure   1.00000 Atm.
 Atom     1 has atomic number  1 and mass   1.00783

 Molecular mass:    21.01405 amu.
 Principal axes and moments of inertia in atomic units:
                           1         2         3
     Eigenvalues --     0.00000 138.75225 138.75225
           X            1.00000  -0.00000   0.00000
           Y            0.00000   1.00000   0.00000
           Z            0.00000   0.00000   1.00000
 This molecule is a prolate symmetric top.
 Rotational symmetry number  1.
 Rotational temperature (Kelvin)      0.62423
 Rotational constant (GHZ):          13.006933
    2 imaginary frequencies ignored.
 Zero-point vibrational energy       2359.2 (Joules/Mol)
                                    0.56385 (Kcal/Mol)
 Warning -- explicit consideration of   2 degrees of freedom as
           vibrations may cause significant error
 Vibrational temperatures:    283.74   283.74
          (Kelvin)

 Zero-point correction=                           0.000899 (Hartree/Particle)
 Thermal correction to Energy=                    0.004389
 Thermal correction to Enthalpy=                  0.005333
 Thermal correction to Gibbs Free Energy=        -0.020803
 Sum of electronic and zero-point Energies=           -100.763517
 Sum of electronic and thermal Energies=              -100.760027
 Sum of electronic and thermal Enthalpies=            -100.759082
 Sum of electronic and thermal Free Energies=         -100.785219

                     E (Thermal)             CV                S
                      KCal/Mol        Cal/Mol-Kelvin    Cal/Mol-Kelvin
 Total                    2.754              8.656             55.009
 Electronic               0.000              0.000              1.377
 Translational            0.889              2.981             35.068
 Rotational               0.592              1.987             14.246
 Vibrational              1.273              3.688              4.318
 Vibration     1          0.637              1.844              2.159
 Vibration     2          0.637              1.844              2.159

 Normal termination of Gaussian 16 at Fri Aug 22 18:26:37 2025.
