 Gaussian 16, Revision C.01,
 Gaussian 16:  ES64L-G16RevC.01  3-Jul-2019

 -----------------------------------------
 # sp b3lyp/6-311g** Force nosymm scf=(qc)
 -----------------------------------------

 -------------------
 Title Card Required
 -------------------
 Symbolic Z-matrix:
 Charge =  0 Multiplicity = 2

                          Input orientation:
 ---------------------------------------------------------------------
 Center     Atomic      Atomic             Coordinates (Angstroms)
 Number     Number       Type             X           Y           Z
 ---------------------------------------------------------------------
      1          1           0        0.000000    0.000000    0.000000
      2          1           0       -3.450000    0.000000    0.000000
      3          9           0        3.500000    0.000000    0.000000
 ---------------------------------------------------------------------

 SCF Done:  E(UB3LYP) =  -100.759183944     a.u. after   34 cycles

 Alpha  occ. eigenvalues --  -24.75385  -1.21349  -0.54508  -0.45766  -0.45766
 Alpha  occ. eigenvalues --   -0.32348
 Alpha virt. eigenvalues --   -0.07097   0.24335   0.36933   0.87602   0.91481
 Alpha virt. eigenvalues --    0.91481   1.01816   1.25158   1.25158   1.25339
 Alpha virt. eigenvalues --    1.45077   1.45157   1.45157   2.15088   2.41054

  Beta  occ. eigenvalues --  -24.72271  -1.12401  -0.42645  -0.42645  -0.32831
  Beta virt. eigenvalues --   -0.25483  -0.06560   0.24103   0.37855   0.92971
  Beta virt. eigenvalues --    0.92971   0.96737   1.05825   1.24604   1.24604
  Beta virt. eigenvalues --    1.24765   1.45784   1.46023   1.46023   2.15298

 Mulliken charges and spin densities:
               1          2
     1  H    0.011337  -0.984908
     2  H    0.000207   0.997607
     3  F   -0.011544   0.987301
 Sum of Mulliken charges =  -0.00000   1.00000

 Dipole moment (field-independent basis, Debye):
    X=             -0.2113    Y=             -0.0000    Z=             -0.0000  Tot=              0.2113
 Quadrupole moment (field-independent basis, Debye-Ang):
   XX=             -7.3916   YY=             -7.6225   ZZ=             -7.6225
   XY=             -0.0000   XZ=             -0.0000   YZ=             -0.0000

  Exact polarizability:      23.814      -0.000       2.034      -0.000      -0.000       2.034
 Approx polarizability:      18.828      -0.000       1.933      -0.000       0.000       1.933

 ******    2 imaginary frequencies (negative Signs) ******

                      1                      2                      3
                      A                      A                      A
 Frequencies --   -251.9665              -106.8934                78.9881
 Red. masses --      1.0251                 1.0883                 1.0178
 Frc consts  --      0.0383                 0.0073                 0.0037
 IR Inten    --     10.1031                 1.5012                 0.1126

                      4
                      A
 Frequencies --     78.9881
 Red. masses --      1.0178
 Frc consts  --      0.0037
 IR Inten    --      0.1126

 - Thermochemistry -
 -------------------
 Temperature   298.150 Kelvin.  Pressure   1.00000 Atm.
 Atom     1 has atomic number  1 and mass   1.00783

 Molecular mass:    21.01405 amu.
 Principal axes and moments of inertia in atomic units:
                           1         2         3
     Eigenvalues --     0.00000 199.07986 199.07986
           X            1.00000  -0.00000   0.00000
           Y            0.00000   1.00000   0.00000
           Z            0.00000   0.00000   1.00000
 This molecule is a prolate symmetric top.
 Rotational symmetry number  1.
 Rotational temperature (Kelvin)      0.43507
 Rotational constant (GHZ):           9.065413
    2 imaginary frequencies ignored.
 Zero-point vibrational energy        944.9 (Joules/Mol)
                                    0.22584 (Kcal/Mol)
 Warning -- explicit consideration of   2 degrees of freedom as
           vibrations may cause significant error
 Vibrational temperatures:    113.65   113.65
          (Kelvin)

 Zero-point correction=                           0.000360 (Hartree/Particle)
 Thermal correction to Energy=                    0.004272
 Thermal correction to Enthalpy=                  0.005216
 Thermal correction to Gibbs Free Energy=        -0.022931
 Sum of electronic and zero-point Energies=           -100.758824
 Sum of electronic and thermal Energies=              -100.754912
 Sum of electronic and thermal Enthalpies=            -100.753968
 Sum of electronic and thermal Free Energies=         -100.782115

                     E (Thermal)             CV                S
                      KCal/Mol        Cal/Mol-Kelvin    Cal/Mol-Kelvin
 Total                    2.680              8.895             59.240
 Electronic               0.000              0.000              1.377
 Translational            0.889              2.981             35.068
 Rotational               0.592              1.987             14.963
 Vibrational              1.199              3.927              7.832
 Vibration     1          0.600              1.963              3.916
 Vibration     2          0.600              1.963              3.916

 Normal termination of Gaussian 16 at Fri Aug 22 22:11:15 2025.
