 Gaussian 16, Revision C.01,
 Gaussian 16:  ES64L-G16RevC.01  3-Jul-2019

 -----------------------------------------
 # sp b3lyp/6-311g** Force nosymm scf=(qc)
 -----------------------------------------

 -------------------
 Title Card Required
 -------------------
 Symbolic Z-matrix:
 Charge =  0 Multiplicity = 2

                          Input orientation:
 ---------------------------------------------------------------------
 Center     Atomic      Atomic             Coordinates (Angstroms)
 Number     Number       Type             X           Y           Z
 ---------------------------------------------------------------------
      1          1           0        0.000000    0.000000    0.000000
      2          1           0       -4.000000    0.000000    0.000000
      3          9           0        0.700000    0.000000    0.000000
 ---------------------------------------------------------------------

 SCF Done:  E(UB3LYP) =  -100.874739552     a.u. after    6 cycles

 Alpha  occ. eigenvalues --  -24.63202  -1.28237  -0.58592  -0.41768  -0.41768
 Alpha  occ. eigenvalues --   -0.33142
 Alpha virt. eigenvalues --    0.06477   0.24287   0.52538   0.93476   0.93476
 Alpha virt. eigenvalues --    0.95779   1.24288   1.24361   1.24361   1.30373
 Alpha virt. eigenvalues --    1.44053   1.44053   1.97587   2.14257   2.86551

  Beta  occ. eigenvalues --  -24.63202  -1.28237  -0.58592  -0.41768  -0.41768
  Beta virt. eigenvalues --   -0.04782   0.06581   0.38641   0.52514   0.93476
  Beta virt. eigenvalues --    0.93476   0.95775   1.30249   1.44053   1.44053
  Beta virt. eigenvalues --    1.49785   1.49913   1.49913   1.97663   2.45449

 Mulliken charges and spin densities:
               1          2
     1  H    0.262670   0.000249
     2  H    0.000282   0.999686
     3  F   -0.262953   0.000064
 Sum of Mulliken charges =   0.00000   1.00000

 Dipole moment (field-independent basis, Debye):
    X=             -1.5818    Y=              0.0000    Z=              0.0000  Tot=              1.5818
 Quadrupole moment (field-independent basis, Debye-Ang):
   XX=             -7.3274   YY=             -6.6631   ZZ=             -6.6631
   XY=              0.0000   XZ=              0.0000   YZ=             -0.0000

  Exact polarizability:       3.693      -0.000       2.443       0.000      -0.000       2.443
 Approx polarizability:       4.080      -0.000       2.423      -0.000       0.000       2.423

 ******    3 imaginary frequencies (negative Signs) ******

                      1                      2                      3
                      A                      A                      A
 Frequencies --  -3571.0591             -3571.0591               -25.5512
 Red. masses --      1.0436                 1.0436                 1.0532
 Frc consts  --      7.8413                 7.8413                 0.0004
 IR Inten    --    216.9236               216.9236                 0.0067

                      4
                      A
 Frequencies --   9073.2387
 Red. masses --      1.0583
 Frc consts  --     51.3320
 IR Inten    --    103.5188

 - Thermochemistry -
 -------------------
 Temperature   298.150 Kelvin.  Pressure   1.00000 Atm.
 Atom     1 has atomic number  1 and mass   1.00783

 Molecular mass:    21.01405 amu.
 Principal axes and moments of inertia in atomic units:
                           1         2         3
     Eigenvalues --     0.00000  76.23240  76.23240
           X            1.00000  -0.00000   0.00000
           Y            0.00000   1.00000   0.00000
           Z            0.00000   0.00000   1.00000
 This molecule is a prolate symmetric top.
 Rotational symmetry number  1.
 Rotational temperature (Kelvin)      1.13618
 Rotational constant (GHZ):          23.674203
    3 imaginary frequencies ignored.
 Zero-point vibrational energy      54270.0 (Joules/Mol)
                                   12.97085 (Kcal/Mol)
 Vibrational temperatures:  13054.37
          (Kelvin)

 Zero-point correction=                           0.020670 (Hartree/Particle)
 Thermal correction to Energy=                    0.023031
 Thermal correction to Enthalpy=                  0.023975
 Thermal correction to Gibbs Free Energy=         0.000455
 Sum of electronic and zero-point Energies=           -100.854069
 Sum of electronic and thermal Energies=              -100.851709
 Sum of electronic and thermal Enthalpies=            -100.850765
 Sum of electronic and thermal Free Energies=         -100.874284

                     E (Thermal)             CV                S
                      KCal/Mol        Cal/Mol-Kelvin    Cal/Mol-Kelvin
 Total                   14.452              4.968             49.501
 Electronic               0.000              0.000              1.377
 Translational            0.889              2.981             35.068
 Rotational               0.592              1.987             13.056
 Vibrational             12.971              0.000              0.000

 Normal termination of Gaussian 16 at Fri Aug 22 15:47:40 2025.
