 Gaussian 16, Revision C.01,
 Gaussian 16:  ES64L-G16RevC.01  3-Jul-2019

 -----------------------------------------
 # sp b3lyp/6-311g** Force nosymm scf=(qc)
 -----------------------------------------

 -------------------
 Title Card Required
 -------------------
 Symbolic Z-matrix:
 Charge =  0 Multiplicity = 2

                          Input orientation:
 ---------------------------------------------------------------------
 Center     Atomic      Atomic             Coordinates (Angstroms)
 Number     Number       Type             X           Y           Z
 ---------------------------------------------------------------------
      1          1           0        0.000000    0.000000    0.000000
      2          1           0       -3.000000    0.000000    0.000000
      3          9           0        1.850000    0.000000    0.000000
 ---------------------------------------------------------------------

 SCF Done:  E(UB3LYP) =  -100.798949456     a.u. after   23 cycles

 Alpha  occ. eigenvalues --  -24.64720  -1.07394  -0.39029  -0.36498  -0.36498
 Alpha  occ. eigenvalues --   -0.33984
 Alpha virt. eigenvalues --   -0.19502   0.20466   0.27237   0.92620   0.95156
 Alpha virt. eigenvalues --    0.95156   1.08257   1.23188   1.23188   1.23372
 Alpha virt. eigenvalues --    1.23372   1.23926   1.62387   2.12688   2.14156

  Beta  occ. eigenvalues --  -24.66741  -1.12980  -0.45563  -0.38475  -0.38475
  Beta virt. eigenvalues --   -0.15315  -0.05713   0.28156   0.38501   0.91958
  Beta virt. eigenvalues --    0.95006   0.95006   1.06227   1.34043   1.34043
  Beta virt. eigenvalues --    1.46248   1.46248   1.46530   1.67920   2.27178

 Mulliken charges and spin densities:
               1          2
     1  H    0.239334   0.640719
     2  H    0.005597   0.994604
     3  F   -0.244931  -0.635322
 Sum of Mulliken charges =   0.00000   1.00000

 Dipole moment (field-independent basis, Debye):
    X=             -2.2999    Y=             -0.0000    Z=             -0.0000  Tot=              2.2999
 Quadrupole moment (field-independent basis, Debye-Ang):
   XX=            -10.1146   YY=             -7.4419   ZZ=             -7.4419
   XY=             -0.0000   XZ=             -0.0000   YZ=              0.0000

  Exact polarizability:      28.012       0.000       2.087       0.000      -0.000       2.087
 Approx polarizability:      41.301       0.000       1.978      -0.000      -0.000       1.978

 ******    1 imaginary frequencies (negative Signs) ******

                      1                      2                      3
                      A                      A                      A
 Frequencies --  -1397.0001                82.4377               599.3906
 Red. masses --      1.0597                 1.0519                 1.0247
 Frc consts  --      1.2185                 0.0042                 0.2169
 IR Inten    --    104.9723                 3.0507                51.4208

                      4
                      A
 Frequencies --    599.3906
 Red. masses --      1.0247
 Frc consts  --      0.2169
 IR Inten    --     51.4208

 - Thermochemistry -
 -------------------
 Temperature   298.150 Kelvin.  Pressure   1.00000 Atm.
 Atom     1 has atomic number  1 and mass   1.00783

 Molecular mass:    21.01405 amu.
 Principal axes and moments of inertia in atomic units:
                           1         2         3
     Eigenvalues --     0.00000  89.22696  89.22696
           X            1.00000  -0.00000   0.00000
           Y            0.00000   1.00000   0.00000
           Z            0.00000   0.00000   1.00000
 This molecule is a prolate symmetric top.
 Rotational symmetry number  1.
 Rotational temperature (Kelvin)      0.97071
 Rotational constant (GHZ):          20.226411
    1 imaginary frequencies ignored.
 Zero-point vibrational energy       7663.4 (Joules/Mol)
                                    1.83159 (Kcal/Mol)
 Warning -- explicit consideration of   3 degrees of freedom as
           vibrations may cause significant error
 Vibrational temperatures:    118.61   862.39   862.39
          (Kelvin)

 Zero-point correction=                           0.002919 (Hartree/Particle)
 Thermal correction to Energy=                    0.006369
 Thermal correction to Enthalpy=                  0.007313
 Thermal correction to Gibbs Free Energy=        -0.018604
 Sum of electronic and zero-point Energies=           -100.796031
 Sum of electronic and thermal Energies=              -100.792581
 Sum of electronic and thermal Enthalpies=            -100.791637
 Sum of electronic and thermal Free Energies=         -100.817554

                     E (Thermal)             CV                S
                      KCal/Mol        Cal/Mol-Kelvin    Cal/Mol-Kelvin
 Total                    3.996              8.995             54.547
 Electronic               0.000              0.000              1.377
 Translational            0.889              2.981             35.068
 Rotational               0.592              1.987             13.369
 Vibrational              2.515              4.027              4.733
 Vibration     1          0.600              1.961              3.832
 Vibration     2          0.957              1.033              0.451
 Vibration     3          0.957              1.033              0.451

 Normal termination of Gaussian 16 at Fri Aug 22 16:47:43 2025.
