 Gaussian 16, Revision C.01,
 Gaussian 16:  ES64L-G16RevC.01  3-Jul-2019

 -----------------------------------------
 # sp b3lyp/6-311g** Force nosymm scf=(qc)
 -----------------------------------------

 -------------------
 Title Card Required
 -------------------
 Symbolic Z-matrix:
 Charge =  0 Multiplicity = 2

                          Input orientation:
 ---------------------------------------------------------------------
 Center     Atomic      Atomic             Coordinates (Angstroms)
 Number     Number       Type             X           Y           Z
 ---------------------------------------------------------------------
      1          1           0        0.000000    0.000000    0.000000
      2          1           0       -2.900000    0.000000    0.000000
      3          9           0        3.500000    0.000000    0.000000
 ---------------------------------------------------------------------

 SCF Done:  E(UB3LYP) =  -100.760328486     a.u. after   32 cycles

 Alpha  occ. eigenvalues --  -24.75409  -1.21370  -0.54532  -0.45786  -0.45786
 Alpha  occ. eigenvalues --   -0.32479
 Alpha virt. eigenvalues --   -0.08318   0.25118   0.35603   0.87611   0.91466
 Alpha virt. eigenvalues --    0.91466   1.01806   1.25070   1.25070   1.25993
 Alpha virt. eigenvalues --    1.43446   1.43446   1.43578   2.15836   2.39121

  Beta  occ. eigenvalues --  -24.72294  -1.12420  -0.42664  -0.42664  -0.32890
  Beta virt. eigenvalues --   -0.25500  -0.07776   0.24900   0.36430   0.92955
  Beta virt. eigenvalues --    0.92955   0.96764   1.05831   1.24593   1.24593
  Beta virt. eigenvalues --    1.25466   1.44305   1.44305   1.44422   2.16186

 Mulliken charges and spin densities:
               1          2
     1  H    0.010341  -0.977757
     2  H    0.000855   0.990168
     3  F   -0.011196   0.987589
 Sum of Mulliken charges =   0.00000   1.00000

 Dipole moment (field-independent basis, Debye):
    X=             -0.2133    Y=              0.0000    Z=             -0.0000  Tot=              0.2133
 Quadrupole moment (field-independent basis, Debye-Ang):
   XX=             -7.2852   YY=             -7.6386   ZZ=             -7.6386
   XY=             -0.0000   XZ=              0.0000   YZ=              0.0000

  Exact polarizability:      27.170      -0.000       2.030       0.000      -0.000       2.030
 Approx polarizability:      20.975      -0.000       1.931       0.000      -0.000       1.931

 ******    2 imaginary frequencies (negative Signs) ******

                      1                      2                      3
                      A                      A                      A
 Frequencies --   -401.7341              -133.7241               140.3972
 Red. masses --      1.0097                 1.1062                 1.0158
 Frc consts  --      0.0960                 0.0117                 0.0118
 IR Inten    --      7.0826                 4.6354                 0.0859

                      4
                      A
 Frequencies --    140.3972
 Red. masses --      1.0158
 Frc consts  --      0.0118
 IR Inten    --      0.0859

 - Thermochemistry -
 -------------------
 Temperature   298.150 Kelvin.  Pressure   1.00000 Atm.
 Atom     1 has atomic number  1 and mass   1.00783

 Molecular mass:    21.01405 amu.
 Principal axes and moments of inertia in atomic units:
                           1         2         3
     Eigenvalues --     0.00000 174.58604 174.58604
           X            1.00000  -0.00000   0.00000
           Y            0.00000   1.00000   0.00000
           Z            0.00000   0.00000   1.00000
 This molecule is a prolate symmetric top.
 Rotational symmetry number  1.
 Rotational temperature (Kelvin)      0.49611
 Rotational constant (GHZ):          10.337259
    2 imaginary frequencies ignored.
 Zero-point vibrational energy       1679.5 (Joules/Mol)
                                    0.40142 (Kcal/Mol)
 Warning -- explicit consideration of   2 degrees of freedom as
           vibrations may cause significant error
 Vibrational temperatures:    202.00   202.00
          (Kelvin)

 Zero-point correction=                           0.000640 (Hartree/Particle)
 Thermal correction to Energy=                    0.004321
 Thermal correction to Enthalpy=                  0.005265
 Thermal correction to Gibbs Free Energy=        -0.021697
 Sum of electronic and zero-point Energies=           -100.759689
 Sum of electronic and thermal Energies=              -100.756008
 Sum of electronic and thermal Enthalpies=            -100.755064
 Sum of electronic and thermal Free Energies=         -100.782025

                     E (Thermal)             CV                S
                      KCal/Mol        Cal/Mol-Kelvin    Cal/Mol-Kelvin
 Total                    2.711              8.794             56.745
 Electronic               0.000              0.000              1.377
 Translational            0.889              2.981             35.068
 Rotational               0.592              1.987             14.702
 Vibrational              1.230              3.826              5.597
 Vibration     1          0.615              1.913              2.798
 Vibration     2          0.615              1.913              2.798

 Normal termination of Gaussian 16 at Fri Aug 22 22:10:25 2025.
