 Gaussian 16, Revision C.01,
 Gaussian 16:  ES64L-G16RevC.01  3-Jul-2019

 -----------------------------------------
 # sp b3lyp/6-311g** Force nosymm scf=(qc)
 -----------------------------------------

 -------------------
 Title Card Required
 -------------------
 Symbolic Z-matrix:
 Charge =  0 Multiplicity = 2

                          Input orientation:
 ---------------------------------------------------------------------
 Center     Atomic      Atomic             Coordinates (Angstroms)
 Number     Number       Type             X           Y           Z
 ---------------------------------------------------------------------
      1          1           0        0.000000    0.000000    0.000000
      2          1           0       -2.350000    0.000000    0.000000
      3          9           0        2.600000    0.000000    0.000000
 ---------------------------------------------------------------------

 SCF Done:  E(UB3LYP) =  -100.771141356     a.u. after   19 cycles

 Alpha  occ. eigenvalues --  -24.72339  -1.18510  -0.51444  -0.43202  -0.43202
 Alpha  occ. eigenvalues --   -0.33868
 Alpha virt. eigenvalues --   -0.11968   0.25045   0.32933   0.90308   0.93306
 Alpha virt. eigenvalues --    0.93306   1.06279   1.23860   1.23860   1.26473
 Alpha virt. eigenvalues --    1.37455   1.37455   1.42111   2.13992   2.33820

  Beta  occ. eigenvalues --  -24.69446  -1.10258  -0.40315  -0.40315  -0.34915
  Beta virt. eigenvalues --   -0.23771  -0.10147   0.26060   0.34038   0.94707
  Beta virt. eigenvalues --    0.94707   0.97957   1.09573   1.22728   1.22728
  Beta virt. eigenvalues --    1.27656   1.40417   1.40417   1.43492   2.14356

 Mulliken charges and spin densities:
               1          2
     1  H    0.061007  -0.869616
     2  H    0.013697   0.954565
     3  F   -0.074705   0.915051
 Sum of Mulliken charges =  -0.00000   1.00000

 Dipole moment (field-independent basis, Debye):
    X=             -1.1450    Y=             -0.0000    Z=              0.0000  Tot=              1.1450
 Quadrupole moment (field-independent basis, Debye-Ang):
   XX=             -8.5077   YY=             -7.6357   ZZ=             -7.6357
   XY=             -0.0000   XZ=              0.0000   YZ=              0.0000

  Exact polarizability:      48.832      -0.000       2.011       0.000      -0.000       2.011
 Approx polarizability:      49.666      -0.000       1.918       0.000      -0.000       1.918

 ******    2 imaginary frequencies (negative Signs) ******

                      1                      2                      3
                      A                      A                      A
 Frequencies --   -907.7588              -341.2846               354.2918
 Red. masses --      1.0126                 1.1028                 1.0168
 Frc consts  --      0.4916                 0.0757                 0.0752
 IR Inten    --     41.0035                34.1436                 2.7963

                      4
                      A
 Frequencies --    354.2918
 Red. masses --      1.0168
 Frc consts  --      0.0752
 IR Inten    --      2.7963

 - Thermochemistry -
 -------------------
 Temperature   298.150 Kelvin.  Pressure   1.00000 Atm.
 Atom     1 has atomic number  1 and mass   1.00783

 Molecular mass:    21.01405 amu.
 Principal axes and moments of inertia in atomic units:
                           1         2         3
     Eigenvalues --     0.00000 102.67498 102.67498
           X            1.00000  -0.00000   0.00000
           Y            0.00000   1.00000   0.00000
           Z            0.00000   0.00000   1.00000
 This molecule is a prolate symmetric top.
 Rotational symmetry number  1.
 Rotational temperature (Kelvin)      0.84357
 Rotational constant (GHZ):          17.577225
    2 imaginary frequencies ignored.
 Zero-point vibrational energy       4238.3 (Joules/Mol)
                                    1.01297 (Kcal/Mol)
 Warning -- explicit consideration of   2 degrees of freedom as
           vibrations may cause significant error
 Vibrational temperatures:    509.75   509.75
          (Kelvin)

 Zero-point correction=                           0.001614 (Hartree/Particle)
 Thermal correction to Energy=                    0.004688
 Thermal correction to Enthalpy=                  0.005632
 Thermal correction to Gibbs Free Energy=        -0.019259
 Sum of electronic and zero-point Energies=           -100.769527
 Sum of electronic and thermal Energies=              -100.766453
 Sum of electronic and thermal Enthalpies=            -100.765509
 Sum of electronic and thermal Free Energies=         -100.790400

                     E (Thermal)             CV                S
                      KCal/Mol        Cal/Mol-Kelvin    Cal/Mol-Kelvin
 Total                    2.942              8.101             52.387
 Electronic               0.000              0.000              1.377
 Translational            0.889              2.981             35.068
 Rotational               0.592              1.987             13.648
 Vibrational              1.460              3.133              2.294
 Vibration     1          0.730              1.566              1.147
 Vibration     2          0.730              1.566              1.147

 Normal termination of Gaussian 16 at Fri Aug 22 18:04:05 2025.
