 Gaussian 16, Revision C.01,
 Gaussian 16:  ES64L-G16RevC.01  3-Jul-2019

 -----------------------------------------
 # sp b3lyp/6-311g** Force nosymm scf=(qc)
 -----------------------------------------

 -------------------
 Title Card Required
 -------------------
 Symbolic Z-matrix:
 Charge =  0 Multiplicity = 2

                          Input orientation:
 ---------------------------------------------------------------------
 Center     Atomic      Atomic             Coordinates (Angstroms)
 Number     Number       Type             X           Y           Z
 ---------------------------------------------------------------------
      1          1           0        0.000000    0.000000    0.000000
      2          1           0       -3.100000    0.000000    0.000000
      3          9           0        2.100000    0.000000    0.000000
 ---------------------------------------------------------------------

 SCF Done:  E(UB3LYP) =  -100.780644718     a.u. after   17 cycles

 Alpha  occ. eigenvalues --  -24.66306  -1.08122  -0.37780  -0.37780  -0.37440
 Alpha  occ. eigenvalues --   -0.33411
 Alpha virt. eigenvalues --   -0.21259   0.20910   0.27749   0.90828   0.95734
 Alpha virt. eigenvalues --    0.95734   1.08391   1.21614   1.21614   1.23914
 Alpha virt. eigenvalues --    1.23914   1.24309   1.47666   2.12389   2.14536

  Beta  occ. eigenvalues --  -24.68805  -1.15141  -0.47825  -0.40250  -0.40250
  Beta virt. eigenvalues --   -0.13542  -0.04896   0.30829   0.39529   0.88800
  Beta virt. eigenvalues --    0.94853   0.94853   1.06243   1.36503   1.36503
  Beta virt. eigenvalues --    1.47244   1.47244   1.47556   1.56189   2.31508

 Mulliken charges and spin densities:
               1          2
     1  H    0.167617   0.789743
     2  H    0.003590   0.996505
     3  F   -0.171207  -0.786249
 Sum of Mulliken charges =   0.00000   1.00000

 Dipole moment (field-independent basis, Debye):
    X=             -1.8431    Y=             -0.0000    Z=             -0.0000  Tot=              1.8431
 Quadrupole moment (field-independent basis, Debye-Ang):
   XX=             -9.9617   YY=             -7.4963   ZZ=             -7.4963
   XY=             -0.0000   XZ=             -0.0000   YZ=              0.0000

  Exact polarizability:      30.682      -0.000       2.049      -0.000      -0.000       2.049
 Approx polarizability:      42.688      -0.000       1.938      -0.000       0.000       1.938

 ******    1 imaginary frequencies (negative Signs) ******

                      1                      2                      3
                      A                      A                      A
 Frequencies --   -966.8324               113.1347               406.9138
 Red. masses --      1.0606                 1.0510                 1.0233
 Frc consts  --      0.5841                 0.0079                 0.0998
 IR Inten    --     91.5511                 1.5207                25.6828

                      4
                      A
 Frequencies --    406.9138
 Red. masses --      1.0233
 Frc consts  --      0.0998
 IR Inten    --     25.6828

 - Thermochemistry -
 -------------------
 Temperature   298.150 Kelvin.  Pressure   1.00000 Atm.
 Atom     1 has atomic number  1 and mass   1.00783

 Molecular mass:    21.01405 amu.
 Principal axes and moments of inertia in atomic units:
                           1         2         3
     Eigenvalues --     0.00000 103.99060 103.99060
           X            1.00000  -0.00000   0.00000
           Y            0.00000   1.00000   0.00000
           Z            0.00000   0.00000   1.00000
 This molecule is a prolate symmetric top.
 Rotational symmetry number  1.
 Rotational temperature (Kelvin)      0.83290
 Rotational constant (GHZ):          17.354850
    1 imaginary frequencies ignored.
 Zero-point vibrational energy       5544.5 (Joules/Mol)
                                    1.32516 (Kcal/Mol)
 Warning -- explicit consideration of   3 degrees of freedom as
           vibrations may cause significant error
 Vibrational temperatures:    162.78   585.46   585.46
          (Kelvin)

 Zero-point correction=                           0.002112 (Hartree/Particle)
 Thermal correction to Energy=                    0.005787
 Thermal correction to Enthalpy=                  0.006732
 Thermal correction to Gibbs Free Energy=        -0.019499
 Sum of electronic and zero-point Energies=           -100.778533
 Sum of electronic and thermal Energies=              -100.774857
 Sum of electronic and thermal Enthalpies=            -100.773913
 Sum of electronic and thermal Free Energies=         -100.800144

                     E (Thermal)             CV                S
                      KCal/Mol        Cal/Mol-Kelvin    Cal/Mol-Kelvin
 Total                    3.632              9.817             55.208
 Electronic               0.000              0.000              1.377
 Translational            0.889              2.981             35.068
 Rotational               0.592              1.987             13.673
 Vibrational              2.150              4.849              5.090
 Vibration     1          0.607              1.939              3.214
 Vibration     2          0.772              1.455              0.938
 Vibration     3          0.772              1.455              0.938

 Normal termination of Gaussian 16 at Fri Aug 22 17:04:55 2025.
