 Gaussian 16, Revision C.01,
 Gaussian 16:  ES64L-G16RevC.01  3-Jul-2019

 -----------------------------------------
 # sp b3lyp/6-311g** Force nosymm scf=(qc)
 -----------------------------------------

 -------------------
 Title Card Required
 -------------------
 Symbolic Z-matrix:
 Charge =  0 Multiplicity = 2

                          Input orientation:
 ---------------------------------------------------------------------
 Center     Atomic      Atomic             Coordinates (Angstroms)
 Number     Number       Type             X           Y           Z
 ---------------------------------------------------------------------
      1          1           0        0.000000    0.000000    0.000000
      2          1           0       -1.650000    0.000000    0.000000
      3          9           0        2.050000    0.000000    0.000000
 ---------------------------------------------------------------------

 SCF Done:  E(UB3LYP) =  -100.817942404     a.u. after   12 cycles

 Alpha  occ. eigenvalues --  -24.69399  -1.15739  -0.48688  -0.40757  -0.40757
 Alpha  occ. eigenvalues --   -0.37303
 Alpha virt. eigenvalues --   -0.12002   0.23029   0.30922   0.85150   0.94324
 Alpha virt. eigenvalues --    0.94324   1.02915   1.19094   1.19094   1.26649
 Alpha virt. eigenvalues --    1.35697   1.35697   1.72194   2.15812   2.39562

  Beta  occ. eigenvalues --  -24.66845  -1.08557  -0.38231  -0.38231  -0.37062
  Beta virt. eigenvalues --   -0.22930  -0.10624   0.25456   0.30485   0.88750
  Beta virt. eigenvalues --    0.95310   0.95310   1.07075   1.21047   1.21047
  Beta virt. eigenvalues --    1.31700   1.36431   1.36431   1.73118   2.16609

 Mulliken charges and spin densities:
               1          2
     1  H    0.094993  -0.483896
     2  H    0.058883   0.681227
     3  F   -0.153876   0.802669
 Sum of Mulliken charges =  -0.00000   1.00000

 Dipole moment (field-independent basis, Debye):
    X=             -2.0383    Y=              0.0000    Z=              0.0000  Tot=              2.0383
 Quadrupole moment (field-independent basis, Debye-Ang):
   XX=             -7.9963   YY=             -7.5660   ZZ=             -7.5660
   XY=             -0.0000   XZ=             -0.0000   YZ=             -0.0000

  Exact polarizability:      54.752      -0.000       2.080      -0.000      -0.000       2.080
 Approx polarizability:      77.076       0.000       2.017       0.000       0.000       2.017

 ******    2 imaginary frequencies (negative Signs) ******

                      1                      2                      3
                      A                      A                      A
 Frequencies --  -2046.1604              -526.0306               917.7411
 Red. masses --      1.0115                 1.1041                 1.0155
 Frc consts  --      2.4952                 0.1800                 0.5039
 IR Inten    --    424.1508                30.6959                 3.2937

                      4
                      A
 Frequencies --    917.7411
 Red. masses --      1.0155
 Frc consts  --      0.5039
 IR Inten    --      3.2937

 - Thermochemistry -
 -------------------
 Temperature   298.150 Kelvin.  Pressure   1.00000 Atm.
 Atom     1 has atomic number  1 and mass   1.00783

 Molecular mass:    21.01405 amu.
 Principal axes and moments of inertia in atomic units:
                           1         2         3
     Eigenvalues --     0.00000  58.68844  58.68844
           X            1.00000  -0.00000   0.00000
           Y            0.00000   1.00000   0.00000
           Z            0.00000   0.00000   1.00000
 This molecule is a prolate symmetric top.
 Rotational symmetry number  1.
 Rotational temperature (Kelvin)      1.47583
 Rotational constant (GHZ):          30.751219
    2 imaginary frequencies ignored.
 Zero-point vibrational energy      10978.6 (Joules/Mol)
                                    2.62395 (Kcal/Mol)
 Vibrational temperatures:   1320.42  1320.42
          (Kelvin)

 Zero-point correction=                           0.004182 (Hartree/Particle)
 Thermal correction to Energy=                    0.006643
 Thermal correction to Enthalpy=                  0.007587
 Thermal correction to Gibbs Free Energy=        -0.015809
 Sum of electronic and zero-point Energies=           -100.813761
 Sum of electronic and thermal Energies=              -100.811299
 Sum of electronic and thermal Enthalpies=            -100.810355
 Sum of electronic and thermal Free Energies=         -100.833752

                     E (Thermal)             CV                S
                      KCal/Mol        Cal/Mol-Kelvin    Cal/Mol-Kelvin
 Total                    4.169              5.921             49.242
 Electronic               0.000              0.000              1.377
 Translational            0.889              2.981             35.068
 Rotational               0.592              1.987             12.536
 Vibrational              2.687              0.953              0.260

 Normal termination of Gaussian 16 at Fri Aug 22 16:59:48 2025.
