 Gaussian 16, Revision C.01,
 Gaussian 16:  ES64L-G16RevC.01  3-Jul-2019

 -----------------------------------------
 # sp b3lyp/6-311g** Force nosymm scf=(qc)
 -----------------------------------------

 -------------------
 Title Card Required
 -------------------
 Symbolic Z-matrix:
 Charge =  0 Multiplicity = 2

                          Input orientation:
 ---------------------------------------------------------------------
 Center     Atomic      Atomic             Coordinates (Angstroms)
 Number     Number       Type             X           Y           Z
 ---------------------------------------------------------------------
      1          1           0        0.000000    0.000000    0.000000
      2          1           0       -3.250000    0.000000    0.000000
      3          9           0        3.400000    0.000000    0.000000
 ---------------------------------------------------------------------

 SCF Done:  E(UB3LYP) =  -100.759657802     a.u. after   26 cycles

 Alpha  occ. eigenvalues --  -24.75207  -1.21183  -0.54329  -0.45616  -0.45616
 Alpha  occ. eigenvalues --   -0.32417
 Alpha virt. eigenvalues --   -0.07621   0.24531   0.36398   0.87939   0.91592
 Alpha virt. eigenvalues --    0.91592   1.02105   1.25099   1.25099   1.25454
 Alpha virt. eigenvalues --    1.44393   1.44465   1.44465   2.15346   2.40377

  Beta  occ. eigenvalues --  -24.72105  -1.12273  -0.42507  -0.42507  -0.32977
  Beta virt. eigenvalues --   -0.25391  -0.06952   0.24311   0.37459   0.93077
  Beta virt. eigenvalues --    0.93077   0.97011   1.06078   1.24450   1.24450
  Beta virt. eigenvalues --    1.24779   1.45318   1.45538   1.45538   2.15663

 Mulliken charges and spin densities:
               1          2
     1  H    0.014512  -0.979628
     2  H    0.000424   0.996064
     3  F   -0.014935   0.983564
 Sum of Mulliken charges =  -0.00000   1.00000

 Dipole moment (field-independent basis, Debye):
    X=             -0.2677    Y=             -0.0000    Z=              0.0000  Tot=              0.2677
 Quadrupole moment (field-independent basis, Debye-Ang):
   XX=             -7.5177   YY=             -7.6254   ZZ=             -7.6254
   XY=              0.0000   XZ=              0.0000   YZ=              0.0000

  Exact polarizability:      27.128       0.000       2.031       0.000      -0.000       2.031
 Approx polarizability:      22.218       0.000       1.931       0.000      -0.000       1.931

 ******    2 imaginary frequencies (negative Signs) ******

                      1                      2                      3
                      A                      A                      A
 Frequencies --   -300.8584              -127.6457               101.2303
 Red. masses --      1.0205                 1.0936                 1.0174
 Frc consts  --      0.0544                 0.0105                 0.0061
 IR Inten    --     13.0843                 2.8795                 0.1850

                      4
                      A
 Frequencies --    101.2303
 Red. masses --      1.0174
 Frc consts  --      0.0061
 IR Inten    --      0.1850

 - Thermochemistry -
 -------------------
 Temperature   298.150 Kelvin.  Pressure   1.00000 Atm.
 Atom     1 has atomic number  1 and mass   1.00783

 Molecular mass:    21.01405 amu.
 Principal axes and moments of inertia in atomic units:
                           1         2         3
     Eigenvalues --     0.00000 183.32796 183.32796
           X            1.00000  -0.00000   0.00000
           Y            0.00000   1.00000   0.00000
           Z            0.00000   0.00000   1.00000
 This molecule is a prolate symmetric top.
 Rotational symmetry number  1.
 Rotational temperature (Kelvin)      0.47245
 Rotational constant (GHZ):           9.844331
    2 imaginary frequencies ignored.
 Zero-point vibrational energy       1211.0 (Joules/Mol)
                                    0.28943 (Kcal/Mol)
 Warning -- explicit consideration of   2 degrees of freedom as
           vibrations may cause significant error
 Vibrational temperatures:    145.65   145.65
          (Kelvin)

 Zero-point correction=                           0.000461 (Hartree/Particle)
 Thermal correction to Energy=                    0.004286
 Thermal correction to Enthalpy=                  0.005230
 Thermal correction to Gibbs Free Energy=        -0.022378
 Sum of electronic and zero-point Energies=           -100.759197
 Sum of electronic and thermal Energies=              -100.755372
 Sum of electronic and thermal Enthalpies=            -100.754427
 Sum of electronic and thermal Free Energies=         -100.782035

                     E (Thermal)             CV                S
                      KCal/Mol        Cal/Mol-Kelvin    Cal/Mol-Kelvin
 Total                    2.690              8.864             58.106
 Electronic               0.000              0.000              1.377
 Translational            0.889              2.981             35.068
 Rotational               0.592              1.987             14.800
 Vibrational              1.208              3.896              6.861
 Vibration     1          0.604              1.948              3.430
 Vibration     2          0.604              1.948              3.430

 Normal termination of Gaussian 16 at Fri Aug 22 21:18:21 2025.
