 Gaussian 16, Revision C.01,
 Gaussian 16:  ES64L-G16RevC.01  3-Jul-2019

 -----------------------------------------
 # sp b3lyp/6-311g** Force nosymm scf=(qc)
 -----------------------------------------

 -------------------
 Title Card Required
 -------------------
 Symbolic Z-matrix:
 Charge =  0 Multiplicity = 2

                          Input orientation:
 ---------------------------------------------------------------------
 Center     Atomic      Atomic             Coordinates (Angstroms)
 Number     Number       Type             X           Y           Z
 ---------------------------------------------------------------------
      1          1           0        0.000000    0.000000    0.000000
      2          1           0       -3.400000    0.000000    0.000000
      3          9           0        1.550000    0.000000    0.000000
 ---------------------------------------------------------------------

 SCF Done:  E(UB3LYP) =  -100.844034524     a.u. after    7 cycles

 Alpha  occ. eigenvalues --  -24.64407  -1.09667  -0.42816  -0.36385  -0.36385
 Alpha  occ. eigenvalues --   -0.34116
 Alpha virt. eigenvalues --   -0.15423   0.20369   0.27808   0.93839   0.93839
 Alpha virt. eigenvalues --    1.02552   1.07801   1.23397   1.23397   1.23487
 Alpha virt. eigenvalues --    1.30829   1.30829   1.73596   2.13468   2.18460

  Beta  occ. eigenvalues --  -24.64209  -1.09139  -0.42380  -0.36195  -0.36195
  Beta virt. eigenvalues --   -0.16059  -0.06940   0.22970   0.37973   0.93749
  Beta virt. eigenvalues --    0.93749   1.02916   1.07741   1.29765   1.29765
  Beta virt. eigenvalues --    1.45415   1.45883   1.45883   1.73125   2.16597

 Mulliken charges and spin densities:
               1          2
     1  H    0.342649  -0.060099
     2  H    0.002636   0.997182
     3  F   -0.345285   0.062916
 Sum of Mulliken charges =  -0.00000   1.00000

 Dipole moment (field-independent basis, Debye):
    X=             -2.6671    Y=              0.0000    Z=             -0.0000  Tot=              2.6671
 Quadrupole moment (field-independent basis, Debye-Ang):
   XX=            -10.0246   YY=             -7.3488   ZZ=             -7.3488
   XY=              0.0000   XZ=             -0.0000   YZ=             -0.0000

  Exact polarizability:      17.583      -0.000       2.165       0.000      -0.000       2.165
 Approx polarizability:      33.054       0.000       2.087      -0.000       0.000       2.087

 ******    2 imaginary frequencies (negative Signs) ******

                      1                      2                      3
                      A                      A                      A
 Frequencies --  -1451.4746               -98.4910               973.9026
 Red. masses --      1.0567                 1.0549                 1.0296
 Frc consts  --      1.3116                 0.0060                 0.5753
 IR Inten    --      9.2883                 0.2867               111.6832

                      4
                      A
 Frequencies --    973.9026
 Red. masses --      1.0296
 Frc consts  --      0.5753
 IR Inten    --    111.6832

 - Thermochemistry -
 -------------------
 Temperature   298.150 Kelvin.  Pressure   1.00000 Atm.
 Atom     1 has atomic number  1 and mass   1.00783

 Molecular mass:    21.01405 amu.
 Principal axes and moments of inertia in atomic units:
                           1         2         3
     Eigenvalues --     0.00000  89.53868  89.53868
           X            1.00000  -0.00000   0.00000
           Y            0.00000   1.00000   0.00000
           Z            0.00000   0.00000   1.00000
 This molecule is a prolate symmetric top.
 Rotational symmetry number  1.
 Rotational temperature (Kelvin)      0.96734
 Rotational constant (GHZ):          20.155995
    2 imaginary frequencies ignored.
 Zero-point vibrational energy      11650.5 (Joules/Mol)
                                    2.78453 (Kcal/Mol)
 Vibrational temperatures:   1401.23  1401.23
          (Kelvin)

 Zero-point correction=                           0.004437 (Hartree/Particle)
 Thermal correction to Energy=                    0.006879
 Thermal correction to Enthalpy=                  0.007824
 Thermal correction to Gibbs Free Energy=        -0.015947
 Sum of electronic and zero-point Energies=           -100.839597
 Sum of electronic and thermal Energies=              -100.837155
 Sum of electronic and thermal Enthalpies=            -100.836211
 Sum of electronic and thermal Free Energies=         -100.859981

                     E (Thermal)             CV                S
                      KCal/Mol        Cal/Mol-Kelvin    Cal/Mol-Kelvin
 Total                    4.317              5.781             50.029
 Electronic               0.000              0.000              1.377
 Translational            0.889              2.981             35.068
 Rotational               0.592              1.987             13.375
 Vibrational              2.836              0.813              0.208

 Normal termination of Gaussian 16 at Fri Aug 22 16:29:24 2025.
