 Gaussian 16, Revision C.01,
 Gaussian 16:  ES64L-G16RevC.01  3-Jul-2019

 -----------------------------------------
 # sp b3lyp/6-311g** Force nosymm scf=(qc)
 -----------------------------------------

 -------------------
 Title Card Required
 -------------------
 Symbolic Z-matrix:
 Charge =  0 Multiplicity = 2

                          Input orientation:
 ---------------------------------------------------------------------
 Center     Atomic      Atomic             Coordinates (Angstroms)
 Number     Number       Type             X           Y           Z
 ---------------------------------------------------------------------
      1          1           0        0.000000    0.000000    0.000000
      2          1           0       -0.550000    0.000000    0.000000
      3          9           0        3.350000    0.000000    0.000000
 ---------------------------------------------------------------------

 SCF Done:  E(UB3LYP) =  -100.894408374     a.u. after  129 cycles

 Alpha  occ. eigenvalues --  -24.76407  -1.22240  -0.55440  -0.47878  -0.46591
 Alpha  occ. eigenvalues --   -0.46591
 Alpha virt. eigenvalues --    0.09321   0.18628   0.53634   0.85991   0.90866
 Alpha virt. eigenvalues --    0.93660   1.03606   1.11118   1.11122   1.61544
 Alpha virt. eigenvalues --    1.83078   1.96245   1.96250   2.36720   3.64797

  Beta  occ. eigenvalues --  -24.73247  -1.13157  -0.47851  -0.43449  -0.43424
  Beta virt. eigenvalues --   -0.26071   0.09357   0.18646   0.53734   0.92365
  Beta virt. eigenvalues --    0.95322   0.95453   1.07436   1.11117   1.11122
  Beta virt. eigenvalues --    1.61558   1.83114   1.96244   1.96250   2.36722

 Mulliken charges and spin densities:
               1          2
     1  H   -0.004999  -0.000967
     2  H   -0.001253   0.000204
     3  F    0.006251   1.000763
 Sum of Mulliken charges =   0.00000   1.00000

 Dipole moment (field-independent basis, Debye):
    X=              0.0620    Y=              0.0000    Z=              0.0000  Tot=              0.0620
 Quadrupole moment (field-independent basis, Debye-Ang):
   XX=             -6.0640   YY=             -6.2330   ZZ=             -6.2382
   XY=              0.0000   XZ=             -0.0000   YZ=             -0.4319

  Exact polarizability:       6.086       0.000       2.069      -0.000      -0.232       2.066
 Approx polarizability:       6.489       0.000       2.210      -0.000      -0.290       2.207

 ******    2 imaginary frequencies (negative Signs) ******

                      1                      2                      3
                      A                      A                      A
 Frequencies --  -3693.3189             -3693.1555                21.5396
 Red. masses --      1.0084                 1.0084                 1.1085
 Frc consts  --      8.1044                 8.1036                 0.0003
 IR Inten    --      0.0166                 0.0160                 0.1483

                      4
                      A
 Frequencies --   8343.0067
 Red. masses --      1.0078
 Frc consts  --     41.3314
 IR Inten    --      0.0977

 - Thermochemistry -
 -------------------
 Temperature   298.150 Kelvin.  Pressure   1.00000 Atm.
 Atom     1 has atomic number  1 and mass   1.00783

 Molecular mass:    21.01405 amu.
 Principal axes and moments of inertia in atomic units:
                           1         2         3
     Eigenvalues --     0.00000  86.05814  86.05814
           X            1.00000  -0.00000   0.00000
           Y            0.00000   1.00000   0.00000
           Z            0.00000   0.00000   1.00000
 This molecule is a prolate symmetric top.
 Rotational symmetry number  1.
 Rotational temperature (Kelvin)      1.00646
 Rotational constant (GHZ):          20.971185
    2 imaginary frequencies ignored.
 Zero-point vibrational energy      50031.1 (Joules/Mol)
                                   11.95772 (Kcal/Mol)
 Warning -- explicit consideration of   1 degrees of freedom as
           vibrations may cause significant error
 Vibrational temperatures:     30.99 12003.73
          (Kelvin)

 Zero-point correction=                           0.019056 (Hartree/Particle)
 Thermal correction to Energy=                    0.022312
 Thermal correction to Enthalpy=                  0.023256
 Thermal correction to Gibbs Free Energy=        -0.003460
 Sum of electronic and zero-point Energies=           -100.875353
 Sum of electronic and thermal Energies=              -100.872096
 Sum of electronic and thermal Enthalpies=            -100.871152
 Sum of electronic and thermal Free Energies=         -100.897868

                     E (Thermal)             CV                S
                      KCal/Mol        Cal/Mol-Kelvin    Cal/Mol-Kelvin
 Total                   14.001              6.953             56.229
 Electronic               0.000              0.000              1.377
 Translational            0.889              2.981             35.068
 Rotational               0.592              1.987             13.297
 Vibrational             12.520              1.985              6.487
 Vibration     1          0.593              1.985              6.487

 Normal termination of Gaussian 16 at Fri Aug 22 20:51:18 2025.
