 Gaussian 16, Revision C.01,
 Gaussian 16:  ES64L-G16RevC.01  3-Jul-2019

 -----------------------------------------
 # sp b3lyp/6-311g** Force nosymm scf=(qc)
 -----------------------------------------

 -------------------
 Title Card Required
 -------------------
 Symbolic Z-matrix:
 Charge =  0 Multiplicity = 2

                          Input orientation:
 ---------------------------------------------------------------------
 Center     Atomic      Atomic             Coordinates (Angstroms)
 Number     Number       Type             X           Y           Z
 ---------------------------------------------------------------------
      1          1           0        0.000000    0.000000    0.000000
      2          1           0       -2.100000    0.000000    0.000000
      3          9           0        1.950000    0.000000    0.000000
 ---------------------------------------------------------------------

 SCF Done:  E(UB3LYP) =  -100.800623500     a.u. after   13 cycles

 Alpha  occ. eigenvalues --  -24.67647  -1.13971  -0.46695  -0.39242  -0.39242
 Alpha  occ. eigenvalues --   -0.36234
 Alpha virt. eigenvalues --   -0.13735   0.23962   0.30520   0.89421   0.95053
 Alpha virt. eigenvalues --    0.95053   1.05428   1.21619   1.21619   1.28005
 Alpha virt. eigenvalues --    1.34036   1.34036   1.61831   2.11049   2.29650

  Beta  occ. eigenvalues --  -24.65349  -1.07565  -0.37757  -0.36982  -0.36982
  Beta virt. eigenvalues --   -0.20911  -0.11255   0.25757   0.32398   0.91789
  Beta virt. eigenvalues --    0.95627   0.95627   1.08599   1.23245   1.23245
  Beta virt. eigenvalues --    1.37257   1.37257   1.40964   1.57481   2.12081

 Mulliken charges and spin densities:
               1          2
     1  H    0.164327  -0.636602
     2  H    0.039451   0.914524
     3  F   -0.203779   0.722078
 Sum of Mulliken charges =  -0.00000   1.00000

 Dipole moment (field-independent basis, Debye):
    X=             -2.3613    Y=             -0.0000    Z=             -0.0000  Tot=              2.3613
 Quadrupole moment (field-independent basis, Debye-Ang):
   XX=             -8.9163   YY=             -7.5290   ZZ=             -7.5290
   XY=             -0.0000   XZ=             -0.0000   YZ=              0.0000

  Exact polarizability:      45.864      -0.000       2.070      -0.000       0.000       2.070
 Approx polarizability:      54.875      -0.000       1.972      -0.000      -0.000       1.972

 ******    2 imaginary frequencies (negative Signs) ******

                      1                      2                      3
                      A                      A                      A
 Frequencies --  -1506.1887              -555.6811               625.4432
 Red. masses --      1.0266                 1.0866                 1.0189
 Frc consts  --      1.3722                 0.1977                 0.2348
 IR Inten    --     99.3888                29.6160                18.4720

                      4
                      A
 Frequencies --    625.4432
 Red. masses --      1.0189
 Frc consts  --      0.2348
 IR Inten    --     18.4720

 - Thermochemistry -
 -------------------
 Temperature   298.150 Kelvin.  Pressure   1.00000 Atm.
 Atom     1 has atomic number  1 and mass   1.00783

 Molecular mass:    21.01405 amu.
 Principal axes and moments of inertia in atomic units:
                           1         2         3
     Eigenvalues --     0.00000  66.50412  66.50412
           X            1.00000  -0.00000   0.00000
           Y            0.00000   1.00000   0.00000
           Z            0.00000   0.00000   1.00000
 This molecule is a prolate symmetric top.
 Rotational symmetry number  1.
 Rotational temperature (Kelvin)      1.30238
 Rotational constant (GHZ):          27.137285
    2 imaginary frequencies ignored.
 Zero-point vibrational energy       7482.0 (Joules/Mol)
                                    1.78823 (Kcal/Mol)
 Vibrational temperatures:    899.87   899.87
          (Kelvin)

 Zero-point correction=                           0.002850 (Hartree/Particle)
 Thermal correction to Energy=                    0.005503
 Thermal correction to Enthalpy=                  0.006447
 Thermal correction to Gibbs Free Energy=        -0.017331
 Sum of electronic and zero-point Energies=           -100.797774
 Sum of electronic and thermal Energies=              -100.795120
 Sum of electronic and thermal Enthalpies=            -100.794176
 Sum of electronic and thermal Free Energies=         -100.817954

                     E (Thermal)             CV                S
                      KCal/Mol        Cal/Mol-Kelvin    Cal/Mol-Kelvin
 Total                    3.453              6.925             50.046
 Electronic               0.000              0.000              1.377
 Translational            0.889              2.981             35.068
 Rotational               0.592              1.987             12.784
 Vibrational              1.972              1.957              0.816

 Normal termination of Gaussian 16 at Fri Aug 22 16:53:24 2025.
