 Gaussian 16, Revision C.01,
 Gaussian 16:  ES64L-G16RevC.01  3-Jul-2019

 -----------------------------------------
 # sp b3lyp/6-311g** Force nosymm scf=(qc)
 -----------------------------------------

 -------------------
 Title Card Required
 -------------------
 Symbolic Z-matrix:
 Charge =  0 Multiplicity = 2

                          Input orientation:
 ---------------------------------------------------------------------
 Center     Atomic      Atomic             Coordinates (Angstroms)
 Number     Number       Type             X           Y           Z
 ---------------------------------------------------------------------
      1          1           0        0.000000    0.000000    0.000000
      2          1           0       -3.600000    0.000000    0.000000
      3          9           0        1.450000    0.000000    0.000000
 ---------------------------------------------------------------------

 SCF Done:  E(UB3LYP) =  -100.865796486     a.u. after    8 cycles

 Alpha  occ. eigenvalues --  -24.64363  -1.09956  -0.43875  -0.36560  -0.36560
 Alpha  occ. eigenvalues --   -0.33877
 Alpha virt. eigenvalues --   -0.13235   0.20507   0.27702   0.93275   0.93275
 Alpha virt. eigenvalues --    1.03520   1.12148   1.23635   1.23635   1.23641
 Alpha virt. eigenvalues --    1.31903   1.31903   1.72345   2.13257   2.19936

  Beta  occ. eigenvalues --  -24.64349  -1.09918  -0.43840  -0.36547  -0.36547
  Beta virt. eigenvalues --   -0.13490  -0.06395   0.23522   0.38303   0.93270
  Beta virt. eigenvalues --    0.93270   1.03558   1.12172   1.31843   1.31843
  Beta virt. eigenvalues --    1.46067   1.46502   1.46502   1.72350   2.19199

 Mulliken charges and spin densities:
               1          2
     1  H    0.353181  -0.003093
     2  H    0.001384   0.998533
     3  F   -0.354565   0.004560
 Sum of Mulliken charges =   0.00000   1.00000

 Dipole moment (field-independent basis, Debye):
    X=             -2.5621    Y=              0.0000    Z=             -0.0000  Tot=              2.5621
 Quadrupole moment (field-independent basis, Debye-Ang):
   XX=             -9.7317   YY=             -7.2935   ZZ=             -7.2935
   XY=              0.0000   XZ=             -0.0000   YZ=              0.0000

  Exact polarizability:      14.178       0.000       2.210      -0.000      -0.000       2.210
 Approx polarizability:      25.413      -0.000       2.139       0.000       0.000       2.139

 ******    2 imaginary frequencies (negative Signs) ******

                      1                      2                      3
                      A                      A                      A
 Frequencies --  -1099.3513               -66.3443              1055.9168
 Red. masses --      1.0577                 1.0539                 1.0316
 Frc consts  --      0.7532                 0.0027                 0.6776
 IR Inten    --     46.0750                 0.1175               122.4633

                      4
                      A
 Frequencies --   1055.9168
 Red. masses --      1.0316
 Frc consts  --      0.6776
 IR Inten    --    122.4633

 - Thermochemistry -
 -------------------
 Temperature   298.150 Kelvin.  Pressure   1.00000 Atm.
 Atom     1 has atomic number  1 and mass   1.00783

 Molecular mass:    21.01405 amu.
 Principal axes and moments of inertia in atomic units:
                           1         2         3
     Eigenvalues --     0.00000  92.05799  92.05799
           X            1.00000  -0.00000   0.00000
           Y            0.00000   1.00000   0.00000
           Z            0.00000   0.00000   1.00000
 This molecule is a prolate symmetric top.
 Rotational symmetry number  1.
 Rotational temperature (Kelvin)      0.94086
 Rotational constant (GHZ):          19.604395
    2 imaginary frequencies ignored.
 Zero-point vibrational energy      12631.6 (Joules/Mol)
                                    3.01902 (Kcal/Mol)
 Vibrational temperatures:   1519.23  1519.23
          (Kelvin)

 Zero-point correction=                           0.004811 (Hartree/Particle)
 Thermal correction to Energy=                    0.007231
 Thermal correction to Enthalpy=                  0.008175
 Thermal correction to Gibbs Free Energy=        -0.015594
 Sum of electronic and zero-point Energies=           -100.860985
 Sum of electronic and thermal Energies=              -100.858566
 Sum of electronic and thermal Enthalpies=            -100.857621
 Sum of electronic and thermal Free Energies=         -100.881390

                     E (Thermal)             CV                S
                      KCal/Mol        Cal/Mol-Kelvin    Cal/Mol-Kelvin
 Total                    4.537              5.608             50.025
 Electronic               0.000              0.000              1.377
 Translational            0.889              2.981             35.068
 Rotational               0.592              1.987             13.431
 Vibrational              3.056              0.640              0.149

 Normal termination of Gaussian 16 at Fri Aug 22 16:23:56 2025.
