 Gaussian 16, Revision C.01,
 Gaussian 16:  ES64L-G16RevC.01  3-Jul-2019

 -----------------------------------------
 # sp b3lyp/6-311g** Force nosymm scf=(qc)
 -----------------------------------------

 -------------------
 Title Card Required
 -------------------
 Symbolic Z-matrix:
 Charge =  0 Multiplicity = 2

                          Input orientation:
 ---------------------------------------------------------------------
 Center     Atomic      Atomic             Coordinates (Angstroms)
 Number     Number       Type             X           Y           Z
 ---------------------------------------------------------------------
      1          1           0        0.000000    0.000000    0.000000
      2          1           0       -0.900000    0.000000    0.000000
      3          9           0        1.250000    0.000000    0.000000
 ---------------------------------------------------------------------

 SCF Done:  E(UB3LYP) =  -100.944808509     a.u. after    6 cycles

 Alpha  occ. eigenvalues --  -24.67213  -1.15882  -0.56449  -0.40096  -0.40096
 Alpha  occ. eigenvalues --   -0.38841
 Alpha virt. eigenvalues --    0.08837   0.19211   0.39797   0.88806   0.88806
 Alpha virt. eigenvalues --    0.97842   1.07949   1.07949   1.36629   1.63628
 Alpha virt. eigenvalues --    1.69046   1.69046   2.19915   2.31558   2.70537

  Beta  occ. eigenvalues --  -24.65347  -1.11000  -0.48490  -0.38344  -0.38344
  Beta virt. eigenvalues --   -0.21573   0.11010   0.20799   0.43741   0.90108
  Beta virt. eigenvalues --    0.90108   1.01972   1.11987   1.11987   1.40591
  Beta virt. eigenvalues --    1.68176   1.71909   1.71909   2.20279   2.39251

 Mulliken charges and spin densities:
               1          2
     1  H    0.236105  -0.059040
     2  H    0.025449   0.520046
     3  F   -0.261554   0.538995
 Sum of Mulliken charges =   0.00000   1.00000

 Dipole moment (field-independent basis, Debye):
    X=             -1.8580    Y=             -0.0000    Z=              0.0000  Tot=              1.8580
 Quadrupole moment (field-independent basis, Debye-Ang):
   XX=             -7.4793   YY=             -6.7913   ZZ=             -6.7913
   XY=             -0.0000   XZ=              0.0000   YZ=             -0.0000

  Exact polarizability:      20.781      -0.000       2.482       0.000       0.000       2.482
 Approx polarizability:      28.239      -0.000       2.495       0.000       0.000       2.495

 ******    1 imaginary frequencies (negative Signs) ******

                      1                      2                      3
                      A                      A                      A
 Frequencies --  -1526.0223               759.1963               759.1963
 Red. masses --      1.0643                 1.0145                 1.0145
 Frc consts  --      1.4603                 0.3445                 0.3445
 IR Inten    --    348.3689                14.3600                14.3600

                      4
                      A
 Frequencies --   1749.6268
 Red. masses --      1.0474
 Frc consts  --      1.8891
 IR Inten    --    258.1388

 - Thermochemistry -
 -------------------
 Temperature   298.150 Kelvin.  Pressure   1.00000 Atm.
 Atom     1 has atomic number  1 and mass   1.00783

 Molecular mass:    21.01405 amu.
 Principal axes and moments of inertia in atomic units:
                           1         2         3
     Eigenvalues --     0.00000  20.26453  20.26453
           X            1.00000  -0.00000   0.00000
           Y            0.00000   1.00000   0.00000
           Z            0.00000   0.00000   1.00000
 This molecule is a prolate symmetric top.
 Rotational symmetry number  1.
 Rotational temperature (Kelvin)      4.27416
 Rotational constant (GHZ):          89.059111
    1 imaginary frequencies ignored.
 Zero-point vibrational energy      19547.1 (Joules/Mol)
                                    4.67187 (Kcal/Mol)
 Vibrational temperatures:   1092.31  1092.31  2517.32
          (Kelvin)

 Zero-point correction=                           0.007445 (Hartree/Particle)
 Thermal correction to Energy=                    0.009989
 Thermal correction to Enthalpy=                  0.010934
 Thermal correction to Gibbs Free Energy=        -0.011568
 Sum of electronic and zero-point Energies=           -100.937363
 Sum of electronic and thermal Energies=              -100.934819
 Sum of electronic and thermal Enthalpies=            -100.933875
 Sum of electronic and thermal Free Energies=         -100.956377

                     E (Thermal)             CV                S
                      KCal/Mol        Cal/Mol-Kelvin    Cal/Mol-Kelvin
 Total                    6.268              6.439             47.359
 Electronic               0.000              0.000              1.377
 Translational            0.889              2.981             35.068
 Rotational               0.592              1.987             10.423
 Vibrational              4.787              1.471              0.490

 Normal termination of Gaussian 16 at Fri Aug 22 16:11:47 2025.
