 Gaussian 16, Revision C.01,
 Gaussian 16:  ES64L-G16RevC.01  3-Jul-2019

 -----------------------------------------
 # sp b3lyp/6-311g** Force nosymm scf=(qc)
 -----------------------------------------

 -------------------
 Title Card Required
 -------------------
 Symbolic Z-matrix:
 Charge =  0 Multiplicity = 2

                          Input orientation:
 ---------------------------------------------------------------------
 Center     Atomic      Atomic             Coordinates (Angstroms)
 Number     Number       Type             X           Y           Z
 ---------------------------------------------------------------------
      1          1           0        0.000000    0.000000    0.000000
      2          1           0       -1.550000    0.000000    0.000000
      3          9           0        2.150000    0.000000    0.000000
 ---------------------------------------------------------------------

 SCF Done:  E(UB3LYP) =  -100.824284251     a.u. after   13 cycles

 Alpha  occ. eigenvalues --  -24.70738  -1.17027  -0.50033  -0.41893  -0.41893
 Alpha  occ. eigenvalues --   -0.37155
 Alpha virt. eigenvalues --   -0.11213   0.22995   0.31258   0.85607   0.93770
 Alpha virt. eigenvalues --    0.93770   1.02809   1.17858   1.17858   1.23974
 Alpha virt. eigenvalues --    1.37740   1.37740   1.77240   2.18194   2.43310

  Beta  occ. eigenvalues --  -24.68036  -1.09385  -0.39210  -0.39210  -0.36650
  Beta virt. eigenvalues --   -0.23726  -0.09952   0.24947   0.30977   0.90049
  Beta virt. eigenvalues --    0.94951   0.94951   1.06746   1.19290   1.19290
  Beta virt. eigenvalues --    1.28235   1.38492   1.38492   1.78356   2.19197

 Mulliken charges and spin densities:
               1          2
     1  H    0.064232  -0.402769
     2  H    0.055819   0.552292
     3  F   -0.120052   0.850477
 Sum of Mulliken charges =  -0.00000   1.00000

 Dipole moment (field-independent basis, Debye):
    X=             -1.7057    Y=              0.0000    Z=             -0.0000  Tot=              1.7057
 Quadrupole moment (field-independent basis, Debye-Ang):
   XX=             -7.6071   YY=             -7.5885   ZZ=             -7.5885
   XY=              0.0000   XZ=             -0.0000   YZ=              0.0000

  Exact polarizability:      56.001       0.000       2.078      -0.000      -0.000       2.078
 Approx polarizability:      82.060      -0.000       2.033       0.000      -0.000       2.033

 ******    2 imaginary frequencies (negative Signs) ******

                      1                      2                      3
                      A                      A                      A
 Frequencies --  -2103.5140              -448.1737              1039.1626
 Red. masses --      1.0101                 1.1057                 1.0145
 Frc consts  --      2.6334                 0.1309                 0.6454
 IR Inten    --    629.6729                30.2672                 0.9708

                      4
                      A
 Frequencies --   1039.1626
 Red. masses --      1.0145
 Frc consts  --      0.6454
 IR Inten    --      0.9708

 - Thermochemistry -
 -------------------
 Temperature   298.150 Kelvin.  Pressure   1.00000 Atm.
 Atom     1 has atomic number  1 and mass   1.00783

 Molecular mass:    21.01405 amu.
 Principal axes and moments of inertia in atomic units:
                           1         2         3
     Eigenvalues --     0.00000  59.99980  59.99980
           X            1.00000  -0.00000   0.00000
           Y            0.00000   1.00000   0.00000
           Z            0.00000   0.00000   1.00000
 This molecule is a prolate symmetric top.
 Rotational symmetry number  1.
 Rotational temperature (Kelvin)      1.44357
 Rotational constant (GHZ):          30.079118
    2 imaginary frequencies ignored.
 Zero-point vibrational energy      12431.1 (Joules/Mol)
                                    2.97112 (Kcal/Mol)
 Vibrational temperatures:   1495.12  1495.12
          (Kelvin)

 Zero-point correction=                           0.004735 (Hartree/Particle)
 Thermal correction to Energy=                    0.007159
 Thermal correction to Enthalpy=                  0.008103
 Thermal correction to Gibbs Free Energy=        -0.015267
 Sum of electronic and zero-point Energies=           -100.819549
 Sum of electronic and thermal Energies=              -100.817126
 Sum of electronic and thermal Enthalpies=            -100.816182
 Sum of electronic and thermal Free Energies=         -100.839551

                     E (Thermal)             CV                S
                      KCal/Mol        Cal/Mol-Kelvin    Cal/Mol-Kelvin
 Total                    4.492              5.641             49.185
 Electronic               0.000              0.000              1.377
 Translational            0.889              2.981             35.068
 Rotational               0.592              1.987             12.580
 Vibrational              3.011              0.673              0.160

 Normal termination of Gaussian 16 at Fri Aug 22 17:07:14 2025.
