 Gaussian 16, Revision C.01,
 Gaussian 16:  ES64L-G16RevC.01  3-Jul-2019

 -----------------------------------------
 # sp b3lyp/6-311g** Force nosymm scf=(qc)
 -----------------------------------------

 -------------------
 Title Card Required
 -------------------
 Symbolic Z-matrix:
 Charge =  0 Multiplicity = 2

                          Input orientation:
 ---------------------------------------------------------------------
 Center     Atomic      Atomic             Coordinates (Angstroms)
 Number     Number       Type             X           Y           Z
 ---------------------------------------------------------------------
      1          1           0        0.000000    0.000000    0.000000
      2          1           0       -3.500000    0.000000    0.000000
      3          9           0        3.550000    0.000000    0.000000
 ---------------------------------------------------------------------

 SCF Done:  E(UB3LYP) =  -100.759048047     a.u. after   31 cycles

 Alpha  occ. eigenvalues --  -24.75464  -1.21422  -0.54587  -0.45832  -0.45832
 Alpha  occ. eigenvalues --   -0.32328
 Alpha virt. eigenvalues --   -0.06949   0.24305   0.37085   0.87450   0.91432
 Alpha virt. eigenvalues --    0.91432   1.01694   1.25176   1.25176   1.25328
 Alpha virt. eigenvalues --    1.45255   1.45348   1.45348   2.15032   2.41214

  Beta  occ. eigenvalues --  -24.72345  -1.12458  -0.42706  -0.42706  -0.32770
  Beta virt. eigenvalues --   -0.25523  -0.06470   0.24075   0.37930   0.92923
  Beta virt. eigenvalues --    0.92923   0.96619   1.05721   1.24672   1.24672
  Beta virt. eigenvalues --    1.24804   1.45892   1.46125   1.46125   2.15204

 Mulliken charges and spin densities:
               1          2
     1  H    0.009897  -0.986807
     2  H    0.000164   0.997881
     3  F   -0.010061   0.988926
 Sum of Mulliken charges =  -0.00000   1.00000

 Dipole moment (field-independent basis, Debye):
    X=             -0.1866    Y=              0.0000    Z=             -0.0000  Tot=              0.1866
 Quadrupole moment (field-independent basis, Debye-Ang):
   XX=             -7.3259   YY=             -7.6222   ZZ=             -7.6222
   XY=              0.0000   XZ=             -0.0000   YZ=              0.0000

  Exact polarizability:      22.328      -0.000       2.036      -0.000      -0.000       2.036
 Approx polarizability:      17.343       0.000       1.934      -0.000      -0.000       1.934

 ******    2 imaginary frequencies (negative Signs) ******

                      1                      2                      3
                      A                      A                      A
 Frequencies --   -238.8350              -101.2275                71.7325
 Red. masses --      1.0256                 1.0878                 1.0178
 Frc consts  --      0.0345                 0.0066                 0.0031
 IR Inten    --      8.5734                 1.2172                 0.0839

                      4
                      A
 Frequencies --     71.7326
 Red. masses --      1.0178
 Frc consts  --      0.0031
 IR Inten    --      0.0839

 - Thermochemistry -
 -------------------
 Temperature   298.150 Kelvin.  Pressure   1.00000 Atm.
 Atom     1 has atomic number  1 and mass   1.00783

 Molecular mass:    21.01405 amu.
 Principal axes and moments of inertia in atomic units:
                           1         2         3
     Eigenvalues --     0.00000 204.84211 204.84211
           X            1.00000  -0.00000   0.00000
           Y            0.00000   1.00000   0.00000
           Z            0.00000   0.00000   1.00000
 This molecule is a prolate symmetric top.
 Rotational symmetry number  1.
 Rotational temperature (Kelvin)      0.42283
 Rotational constant (GHZ):           8.810401
    2 imaginary frequencies ignored.
 Zero-point vibrational energy        858.1 (Joules/Mol)
                                    0.20509 (Kcal/Mol)
 Warning -- explicit consideration of   2 degrees of freedom as
           vibrations may cause significant error
 Vibrational temperatures:    103.21   103.21
          (Kelvin)

 Zero-point correction=                           0.000327 (Hartree/Particle)
 Thermal correction to Energy=                    0.004268
 Thermal correction to Enthalpy=                  0.005212
 Thermal correction to Gibbs Free Energy=        -0.023142
 Sum of electronic and zero-point Energies=           -100.758721
 Sum of electronic and thermal Energies=              -100.754780
 Sum of electronic and thermal Enthalpies=            -100.753836
 Sum of electronic and thermal Free Energies=         -100.782190

                     E (Thermal)             CV                S
                      KCal/Mol        Cal/Mol-Kelvin    Cal/Mol-Kelvin
 Total                    2.678              8.903             59.676
 Electronic               0.000              0.000              1.377
 Translational            0.889              2.981             35.068
 Rotational               0.592              1.987             15.020
 Vibrational              1.197              3.935              8.210
 Vibration     1          0.598              1.967              4.105
 Vibration     2          0.598              1.967              4.105

 Normal termination of Gaussian 16 at Fri Aug 22 22:41:24 2025.
