 Gaussian 16, Revision C.01,
 Gaussian 16:  ES64L-G16RevC.01  3-Jul-2019

 -----------------------------------------
 # sp b3lyp/6-311g** Force nosymm scf=(qc)
 -----------------------------------------

 -------------------
 Title Card Required
 -------------------
 Symbolic Z-matrix:
 Charge =  0 Multiplicity = 2

                          Input orientation:
 ---------------------------------------------------------------------
 Center     Atomic      Atomic             Coordinates (Angstroms)
 Number     Number       Type             X           Y           Z
 ---------------------------------------------------------------------
      1          1           0        0.000000    0.000000    0.000000
      2          1           0       -2.600000    0.000000    0.000000
      3          9           0        2.950000    0.000000    0.000000
 ---------------------------------------------------------------------

 SCF Done:  E(UB3LYP) =  -100.764274293     a.u. after   22 cycles

 Alpha  occ. eigenvalues --  -24.73955  -1.20021  -0.53071  -0.44562  -0.44562
 Alpha  occ. eigenvalues --   -0.33032
 Alpha virt. eigenvalues --   -0.10268   0.25213   0.33818   0.89689   0.92357
 Alpha virt. eigenvalues --    0.92357   1.04254   1.24584   1.24584   1.26430
 Alpha virt. eigenvalues --    1.40367   1.40367   1.41717   2.15543   2.36969

  Beta  occ. eigenvalues --  -24.70938  -1.11379  -0.41544  -0.41544  -0.33911
  Beta virt. eigenvalues --   -0.24713  -0.08910   0.25397   0.35222   0.93814
  Beta virt. eigenvalues --    0.93814   0.98383   1.08111   1.23544   1.23544
  Beta virt. eigenvalues --    1.25345   1.42555   1.42555   1.43653   2.16354

 Mulliken charges and spin densities:
               1          2
     1  H    0.035026  -0.933725
     2  H    0.004761   0.977965
     3  F   -0.039786   0.955760
 Sum of Mulliken charges =  -0.00000   1.00000

 Dipole moment (field-independent basis, Debye):
    X=             -0.6613    Y=             -0.0000    Z=             -0.0000  Tot=              0.6613
 Quadrupole moment (field-independent basis, Debye-Ang):
   XX=             -8.1002   YY=             -7.6415   ZZ=             -7.6415
   XY=             -0.0000   XZ=             -0.0000   YZ=             -0.0000

  Exact polarizability:      41.785      -0.000       2.016      -0.000      -0.000       2.016
 Approx polarizability:      39.087      -0.000       1.922      -0.000       0.000       1.922

 ******    2 imaginary frequencies (negative Signs) ******

                      1                      2                      3
                      A                      A                      A
 Frequencies --   -633.8391              -238.8113               237.7650
 Red. masses --      1.0121                 1.1034                 1.0165
 Frc consts  --      0.2396                 0.0371                 0.0339
 IR Inten    --     27.4116                17.3678                 0.9979

                      4
                      A
 Frequencies --    237.7650
 Red. masses --      1.0165
 Frc consts  --      0.0339
 IR Inten    --      0.9979

 - Thermochemistry -
 -------------------
 Temperature   298.150 Kelvin.  Pressure   1.00000 Atm.
 Atom     1 has atomic number  1 and mass   1.00783

 Molecular mass:    21.01405 amu.
 Principal axes and moments of inertia in atomic units:
                           1         2         3
     Eigenvalues --     0.00000 129.70798 129.70798
           X            1.00000  -0.00000   0.00000
           Y            0.00000   1.00000   0.00000
           Z            0.00000   0.00000   1.00000
 This molecule is a prolate symmetric top.
 Rotational symmetry number  1.
 Rotational temperature (Kelvin)      0.66776
 Rotational constant (GHZ):          13.913879
    2 imaginary frequencies ignored.
 Zero-point vibrational energy       2844.3 (Joules/Mol)
                                    0.67980 (Kcal/Mol)
 Warning -- explicit consideration of   2 degrees of freedom as
           vibrations may cause significant error
 Vibrational temperatures:    342.09   342.09
          (Kelvin)

 Zero-point correction=                           0.001083 (Hartree/Particle)
 Thermal correction to Energy=                    0.004452
 Thermal correction to Enthalpy=                  0.005396
 Thermal correction to Gibbs Free Energy=        -0.020355
 Sum of electronic and zero-point Energies=           -100.763191
 Sum of electronic and thermal Energies=              -100.759823
 Sum of electronic and thermal Enthalpies=            -100.758879
 Sum of electronic and thermal Free Energies=         -100.784629

                     E (Thermal)             CV                S
                      KCal/Mol        Cal/Mol-Kelvin    Cal/Mol-Kelvin
 Total                    2.793              8.534             54.196
 Electronic               0.000              0.000              1.377
 Translational            0.889              2.981             35.068
 Rotational               0.592              1.987             14.112
 Vibrational              1.312              3.566              3.639
 Vibration     1          0.656              1.783              1.820
 Vibration     2          0.656              1.783              1.820

 Normal termination of Gaussian 16 at Fri Aug 22 19:18:02 2025.
