 Gaussian 16, Revision C.01,
 Gaussian 16:  ES64L-G16RevC.01  3-Jul-2019

 -----------------------------------------
 # sp b3lyp/6-311g** Force nosymm scf=(qc)
 -----------------------------------------

 -------------------
 Title Card Required
 -------------------
 Symbolic Z-matrix:
 Charge =  0 Multiplicity = 2

                          Input orientation:
 ---------------------------------------------------------------------
 Center     Atomic      Atomic             Coordinates (Angstroms)
 Number     Number       Type             X           Y           Z
 ---------------------------------------------------------------------
      1          1           0        0.000000    0.000000    0.000000
      2          1           0       -1.200000    0.000000    0.000000
      3          9           0        3.200000    0.000000    0.000000
 ---------------------------------------------------------------------

 SCF Done:  E(UB3LYP) =  -100.872082587     a.u. after  299 cycles

 Alpha  occ. eigenvalues --  -24.76548  -1.22390  -0.55584  -0.46806  -0.46736
 Alpha  occ. eigenvalues --   -0.36239
 Alpha virt. eigenvalues --   -0.03950   0.22920   0.34353   0.85849   0.90723
 Alpha virt. eigenvalues --    0.93003   1.02556   1.12989   1.12993   1.22300
 Alpha virt. eigenvalues --    1.54491   1.54496   2.08220   2.32121   2.55093

  Beta  occ. eigenvalues --  -24.73389  -1.13308  -0.43643  -0.43569  -0.36231
  Beta virt. eigenvalues --   -0.26216  -0.03939   0.22936   0.34412   0.92222
  Beta virt. eigenvalues --    0.94590   0.95309   1.06536   1.12988   1.12993
  Beta virt. eigenvalues --    1.22311   1.54490   1.54495   2.08229   2.32125

 Mulliken charges and spin densities:
               1          2
     1  H   -0.000895  -0.000261
     2  H   -0.004755  -0.000448
     3  F    0.005650   1.000709
 Sum of Mulliken charges =  -0.00000   1.00000

 Dipole moment (field-independent basis, Debye):
    X=              0.0785    Y=              0.0000    Z=              0.0000  Tot=              0.0785
 Quadrupole moment (field-independent basis, Debye-Ang):
   XX=             -6.1889   YY=             -6.8172   ZZ=             -7.3181
   XY=              0.0000   XZ=              0.0000   YZ=              0.3519

  Exact polarizability:      16.325       0.000       2.445       0.000       0.188       2.177
 Approx polarizability:      24.355       0.000       2.566       0.000       0.237       2.229

 ******    1 imaginary frequencies (negative Signs) ******

                      1                      2                      3
                      A                      A                      A
 Frequencies --   -451.3503                40.8397              1469.6798
 Red. masses --      1.0078                 1.1085                 1.0103
 Frc consts  --      0.1210                 0.0011                 1.2857
 IR Inten    --      0.4598                 0.3392                 0.0010

                      4
                      A
 Frequencies --   1470.5806
 Red. masses --      1.0103
 Frc consts  --      1.2873
 IR Inten    --      0.0012

 - Thermochemistry -
 -------------------
 Temperature   298.150 Kelvin.  Pressure   1.00000 Atm.
 Atom     1 has atomic number  1 and mass   1.00783

 Molecular mass:    21.01405 amu.
 Principal axes and moments of inertia in atomic units:
                           1         2         3
     Eigenvalues --     0.00000  96.56088  96.56088
           X            1.00000  -0.00000   0.00000
           Y            0.00000   1.00000   0.00000
           Z            0.00000   0.00000   1.00000
 This molecule is a prolate symmetric top.
 Rotational symmetry number  1.
 Rotational temperature (Kelvin)      0.89699
 Rotational constant (GHZ):          18.690191
    1 imaginary frequencies ignored.
 Zero-point vibrational energy      17830.9 (Joules/Mol)
                                    4.26170 (Kcal/Mol)
 Warning -- explicit consideration of   1 degrees of freedom as
           vibrations may cause significant error
 Vibrational temperatures:     58.76  2114.54  2115.84
          (Kelvin)

 Zero-point correction=                           0.006791 (Hartree/Particle)
 Thermal correction to Energy=                    0.010017
 Thermal correction to Enthalpy=                  0.010961
 Thermal correction to Gibbs Free Energy=        -0.015273
 Sum of electronic and zero-point Energies=           -100.865291
 Sum of electronic and thermal Energies=              -100.862065
 Sum of electronic and thermal Enthalpies=            -100.861121
 Sum of electronic and thermal Free Energies=         -100.887356

                     E (Thermal)             CV                S
                      KCal/Mol        Cal/Mol-Kelvin    Cal/Mol-Kelvin
 Total                    6.286              7.115             55.216
 Electronic               0.000              0.000              1.377
 Translational            0.889              2.981             35.068
 Rotational               0.592              1.987             13.526
 Vibrational              4.805              2.147              5.245
 Vibration     1          0.594              1.981              5.218

 Normal termination of Gaussian 16 at Fri Aug 22 20:19:44 2025.
