 Gaussian 16, Revision C.01,
 Gaussian 16:  ES64L-G16RevC.01  3-Jul-2019

 -----------------------------------------
 # sp b3lyp/6-311g** Force nosymm scf=(qc)
 -----------------------------------------

 -------------------
 Title Card Required
 -------------------
 Symbolic Z-matrix:
 Charge =  0 Multiplicity = 2

                          Input orientation:
 ---------------------------------------------------------------------
 Center     Atomic      Atomic             Coordinates (Angstroms)
 Number     Number       Type             X           Y           Z
 ---------------------------------------------------------------------
      1          1           0        0.000000    0.000000    0.000000
      2          1           0       -3.550000    0.000000    0.000000
      3          9           0        3.700000    0.000000    0.000000
 ---------------------------------------------------------------------

 SCF Done:  E(UB3LYP) =  -100.758805912     a.u. after   29 cycles

 Alpha  occ. eigenvalues --  -24.75657  -1.21600  -0.54781  -0.45995  -0.45995
 Alpha  occ. eigenvalues --   -0.32291
 Alpha virt. eigenvalues --   -0.06723   0.24303   0.37390   0.87061   0.91312
 Alpha virt. eigenvalues --    0.91312   1.01404   1.25212   1.25212   1.25338
 Alpha virt. eigenvalues --    1.45478   1.45661   1.45661   2.14996   2.41355

  Beta  occ. eigenvalues --  -24.72526  -1.12599  -0.42856  -0.42856  -0.32623
  Beta virt. eigenvalues --   -0.25621  -0.06376   0.24095   0.38005   0.92806
  Beta virt. eigenvalues --    0.92806   0.96316   1.05476   1.24839   1.24839
  Beta virt. eigenvalues --    1.24946   1.46003   1.46224   1.46224   2.15081

 Mulliken charges and spin densities:
               1          2
     1  H    0.006376  -0.990960
     2  H    0.000105   0.998116
     3  F   -0.006482   0.992844
 Sum of Mulliken charges =  -0.00000   1.00000

 Dipole moment (field-independent basis, Debye):
    X=             -0.1254    Y=              0.0000    Z=             -0.0000  Tot=              0.1254
 Quadrupole moment (field-independent basis, Debye-Ang):
   XX=             -7.1461   YY=             -7.6224   ZZ=             -7.6224
   XY=              0.0000   XZ=             -0.0000   YZ=             -0.0000

  Exact polarizability:      18.034      -0.000       2.027       0.000       0.000       2.027
 Approx polarizability:      13.474       0.000       1.935      -0.000       0.000       1.935

 ******    2 imaginary frequencies (negative Signs) ******

                      1                      2                      3
                      A                      A                      A
 Frequencies --   -209.0225               -89.0152                70.2244
 Red. masses --      1.0203                 1.0938                 1.0175
 Frc consts  --      0.0263                 0.0051                 0.0030
 IR Inten    --      4.3443                 0.9404                 0.0415

                      4
                      A
 Frequencies --     70.2244
 Red. masses --      1.0175
 Frc consts  --      0.0030
 IR Inten    --      0.0415

 - Thermochemistry -
 -------------------
 Temperature   298.150 Kelvin.  Pressure   1.00000 Atm.
 Atom     1 has atomic number  1 and mass   1.00783

 Molecular mass:    21.01405 amu.
 Principal axes and moments of inertia in atomic units:
                           1         2         3
     Eigenvalues --     0.00000 217.74731 217.74731
           X            1.00000  -0.00000   0.00000
           Y            0.00000   1.00000   0.00000
           Z            0.00000   0.00000   1.00000
 This molecule is a prolate symmetric top.
 Rotational symmetry number  1.
 Rotational temperature (Kelvin)      0.39777
 Rotational constant (GHZ):           8.288236
    2 imaginary frequencies ignored.
 Zero-point vibrational energy        840.1 (Joules/Mol)
                                    0.20078 (Kcal/Mol)
 Warning -- explicit consideration of   2 degrees of freedom as
           vibrations may cause significant error
 Vibrational temperatures:    101.04   101.04
          (Kelvin)

 Zero-point correction=                           0.000320 (Hartree/Particle)
 Thermal correction to Energy=                    0.004267
 Thermal correction to Enthalpy=                  0.005211
 Thermal correction to Gibbs Free Energy=        -0.023240
 Sum of electronic and zero-point Energies=           -100.758486
 Sum of electronic and thermal Energies=              -100.754539
 Sum of electronic and thermal Enthalpies=            -100.753595
 Sum of electronic and thermal Free Energies=         -100.782046

                     E (Thermal)             CV                S
                      KCal/Mol        Cal/Mol-Kelvin    Cal/Mol-Kelvin
 Total                    2.678              8.905             59.881
 Electronic               0.000              0.000              1.377
 Translational            0.889              2.981             35.068
 Rotational               0.592              1.987             15.141
 Vibrational              1.196              3.937              8.294
 Vibration     1          0.598              1.968              4.147
 Vibration     2          0.598              1.968              4.147

 Normal termination of Gaussian 16 at Sat Aug 23 00:04:57 2025.
