 Gaussian 16, Revision C.01,
 Gaussian 16:  ES64L-G16RevC.01  3-Jul-2019

 -----------------------------------------
 # sp b3lyp/6-311g** Force nosymm scf=(qc)
 -----------------------------------------

 -------------------
 Title Card Required
 -------------------
 Symbolic Z-matrix:
 Charge =  0 Multiplicity = 2

                          Input orientation:
 ---------------------------------------------------------------------
 Center     Atomic      Atomic             Coordinates (Angstroms)
 Number     Number       Type             X           Y           Z
 ---------------------------------------------------------------------
      1          1           0        0.000000    0.000000    0.000000
      2          1           0       -2.900000    0.000000    0.000000
      3          9           0        1.550000    0.000000    0.000000
 ---------------------------------------------------------------------

 SCF Done:  E(UB3LYP) =  -100.844541911     a.u. after    7 cycles

 Alpha  occ. eigenvalues --  -24.64390  -1.09822  -0.43000  -0.36390  -0.36390
 Alpha  occ. eigenvalues --   -0.34849
 Alpha virt. eigenvalues --   -0.14935   0.21556   0.27540   0.93960   0.93960
 Alpha virt. eigenvalues --    1.02533   1.08367   1.22668   1.22668   1.23456
 Alpha virt. eigenvalues --    1.31449   1.31449   1.74336   2.13499   2.19667

  Beta  occ. eigenvalues --  -24.64010  -1.08812  -0.42118  -0.36028  -0.36028
  Beta virt. eigenvalues --   -0.16377  -0.07852   0.23778   0.36772   0.93800
  Beta virt. eigenvalues --    0.93800   1.03295   1.08302   1.29494   1.29494
  Beta virt. eigenvalues --    1.44022   1.44207   1.44207   1.73602   2.16695

 Mulliken charges and spin densities:
               1          2
     1  H    0.336225  -0.110471
     2  H    0.008650   0.990376
     3  F   -0.344875   0.120095
 Sum of Mulliken charges =  -0.00000   1.00000

 Dipole moment (field-independent basis, Debye):
    X=             -2.7389    Y=             -0.0000    Z=              0.0000  Tot=              2.7389
 Quadrupole moment (field-independent basis, Debye-Ang):
   XX=             -9.7743   YY=             -7.3520   ZZ=             -7.3520
   XY=             -0.0000   XZ=             -0.0000   YZ=             -0.0000

  Exact polarizability:      20.979       0.000       2.171      -0.000       0.000       2.171
 Approx polarizability:      35.322       0.000       2.092      -0.000       0.000       2.092

 ******    2 imaginary frequencies (negative Signs) ******

                      1                      2                      3
                      A                      A                      A
 Frequencies --  -1629.2865              -178.8728               960.1501
 Red. masses --      1.0542                 1.0573                 1.0270
 Frc consts  --      1.6488                 0.0199                 0.5578
 IR Inten    --      3.3104                 1.8021               103.5290

                      4
                      A
 Frequencies --    960.1501
 Red. masses --      1.0270
 Frc consts  --      0.5578
 IR Inten    --    103.5290

 - Thermochemistry -
 -------------------
 Temperature   298.150 Kelvin.  Pressure   1.00000 Atm.
 Atom     1 has atomic number  1 and mass   1.00783

 Molecular mass:    21.01405 amu.
 Principal axes and moments of inertia in atomic units:
                           1         2         3
     Eigenvalues --     0.00000  73.70214  73.70214
           X            1.00000  -0.00000   0.00000
           Y            0.00000   1.00000   0.00000
           Z            0.00000   0.00000   1.00000
 This molecule is a prolate symmetric top.
 Rotational symmetry number  1.
 Rotational temperature (Kelvin)      1.17519
 Rotational constant (GHZ):          24.486959
    2 imaginary frequencies ignored.
 Zero-point vibrational energy      11485.9 (Joules/Mol)
                                    2.74521 (Kcal/Mol)
 Vibrational temperatures:   1381.44  1381.44
          (Kelvin)

 Zero-point correction=                           0.004375 (Hartree/Particle)
 Thermal correction to Energy=                    0.006821
 Thermal correction to Enthalpy=                  0.007765
 Thermal correction to Gibbs Free Energy=        -0.015827
 Sum of electronic and zero-point Energies=           -100.840167
 Sum of electronic and thermal Energies=              -100.837721
 Sum of electronic and thermal Enthalpies=            -100.836777
 Sum of electronic and thermal Free Energies=         -100.860369

                     E (Thermal)             CV                S
                      KCal/Mol        Cal/Mol-Kelvin    Cal/Mol-Kelvin
 Total                    4.280              5.814             49.654
 Electronic               0.000              0.000              1.377
 Translational            0.889              2.981             35.068
 Rotational               0.592              1.987             12.989
 Vibrational              2.799              0.846              0.220

 Normal termination of Gaussian 16 at Fri Aug 22 16:29:02 2025.
