 Gaussian 16, Revision C.01,
 Gaussian 16:  ES64L-G16RevC.01  3-Jul-2019

 -----------------------------------------
 # sp b3lyp/6-311g** Force nosymm scf=(qc)
 -----------------------------------------

 -------------------
 Title Card Required
 -------------------
 Symbolic Z-matrix:
 Charge =  0 Multiplicity = 2

                          Input orientation:
 ---------------------------------------------------------------------
 Center     Atomic      Atomic             Coordinates (Angstroms)
 Number     Number       Type             X           Y           Z
 ---------------------------------------------------------------------
      1          1           0        0.000000    0.000000    0.000000
      2          1           0       -2.500000    0.000000    0.000000
      3          9           0        1.400000    0.000000    0.000000
 ---------------------------------------------------------------------

 SCF Done:  E(UB3LYP) =  -100.878498299     a.u. after    7 cycles

 Alpha  occ. eigenvalues --  -24.64075  -1.10121  -0.44550  -0.36469  -0.36469
 Alpha  occ. eigenvalues --   -0.35583
 Alpha virt. eigenvalues --   -0.11031   0.23394   0.26818   0.93384   0.93384
 Alpha virt. eigenvalues --    1.03276   1.15437   1.21909   1.21909   1.25502
 Alpha virt. eigenvalues --    1.33071   1.33071   1.73033   2.12943   2.22421

  Beta  occ. eigenvalues --  -24.63952  -1.09802  -0.44120  -0.36354  -0.36354
  Beta virt. eigenvalues --   -0.14235  -0.06531   0.25870   0.35820   0.93353
  Beta virt. eigenvalues --    0.93353   1.03574   1.16719   1.32644   1.32644
  Beta virt. eigenvalues --    1.42640   1.42640   1.43892   1.73225   2.21507

 Mulliken charges and spin densities:
               1          2
     1  H    0.344841  -0.019932
     2  H    0.015667   0.981578
     3  F   -0.360509   0.038354
 Sum of Mulliken charges =   0.00000   1.00000

 Dipole moment (field-independent basis, Debye):
    X=             -2.6985    Y=             -0.0000    Z=             -0.0000  Tot=              2.6985
 Quadrupole moment (field-independent basis, Debye-Ang):
   XX=             -9.0891   YY=             -7.2625   ZZ=             -7.2625
   XY=             -0.0000   XZ=             -0.0000   YZ=              0.0000

  Exact polarizability:      18.318      -0.000       2.251      -0.000       0.000       2.251
 Approx polarizability:      27.241      -0.000       2.189      -0.000       0.000       2.189

 ******    2 imaginary frequencies (negative Signs) ******

                      1                      2                      3
                      A                      A                      A
 Frequencies --  -1125.4978              -215.4513              1069.4198
 Red. masses --      1.0484                 1.0632                 1.0262
 Frc consts  --      0.7825                 0.0291                 0.6915
 IR Inten    --    131.3535                 1.5230               108.7478

                      4
                      A
 Frequencies --   1069.4198
 Red. masses --      1.0262
 Frc consts  --      0.6915
 IR Inten    --    108.7478

 - Thermochemistry -
 -------------------
 Temperature   298.150 Kelvin.  Pressure   1.00000 Atm.
 Atom     1 has atomic number  1 and mass   1.00783

 Molecular mass:    21.01405 amu.
 Principal axes and moments of inertia in atomic units:
                           1         2         3
     Eigenvalues --     0.00000  56.94645  56.94645
           X            1.00000  -0.00000   0.00000
           Y            0.00000   1.00000   0.00000
           Z            0.00000   0.00000   1.00000
 This molecule is a prolate symmetric top.
 Rotational symmetry number  1.
 Rotational temperature (Kelvin)      1.52097
 Rotational constant (GHZ):          31.691901
    2 imaginary frequencies ignored.
 Zero-point vibrational energy      12793.1 (Joules/Mol)
                                    3.05762 (Kcal/Mol)
 Vibrational temperatures:   1538.66  1538.66
          (Kelvin)

 Zero-point correction=                           0.004873 (Hartree/Particle)
 Thermal correction to Energy=                    0.007289
 Thermal correction to Enthalpy=                  0.008234
 Thermal correction to Gibbs Free Energy=        -0.015078
 Sum of electronic and zero-point Energies=           -100.873626
 Sum of electronic and thermal Energies=              -100.871209
 Sum of electronic and thermal Enthalpies=            -100.870265
 Sum of electronic and thermal Free Energies=         -100.893576

                     E (Thermal)             CV                S
                      KCal/Mol        Cal/Mol-Kelvin    Cal/Mol-Kelvin
 Total                    4.574              5.582             49.063
 Electronic               0.000              0.000              1.377
 Translational            0.889              2.981             35.068
 Rotational               0.592              1.987             12.476
 Vibrational              3.093              0.614              0.141

 Normal termination of Gaussian 16 at Fri Aug 22 16:20:32 2025.
