 Gaussian 16, Revision C.01,
 Gaussian 16:  ES64L-G16RevC.01  3-Jul-2019

 -----------------------------------------
 # sp b3lyp/6-311g** Force nosymm scf=(qc)
 -----------------------------------------

 -------------------
 Title Card Required
 -------------------
 Symbolic Z-matrix:
 Charge =  0 Multiplicity = 2

                          Input orientation:
 ---------------------------------------------------------------------
 Center     Atomic      Atomic             Coordinates (Angstroms)
 Number     Number       Type             X           Y           Z
 ---------------------------------------------------------------------
      1          1           0        0.000000    0.000000    0.000000
      2          1           0       -0.950000    0.000000    0.000000
      3          9           0        3.250000    0.000000    0.000000
 ---------------------------------------------------------------------

 SCF Done:  E(UB3LYP) =  -100.915224871     a.u. after   71 cycles

 Alpha  occ. eigenvalues --  -24.76494  -1.22333  -0.55530  -0.46747  -0.46681
 Alpha  occ. eigenvalues --   -0.39528
 Alpha virt. eigenvalues --    0.01629   0.21155   0.40114   0.85902   0.90776
 Alpha virt. eigenvalues --    0.93207   1.02817   1.08780   1.08785   1.41776
 Alpha virt. eigenvalues --    1.69102   1.69107   2.22187   2.37308   2.64817

  Beta  occ. eigenvalues --  -24.73335  -1.13251  -0.43590  -0.43514  -0.39515
  Beta virt. eigenvalues --   -0.26162   0.01647   0.21171   0.40181   0.92276
  Beta virt. eigenvalues --    0.94811   0.95363   1.06771   1.08780   1.08784
  Beta virt. eigenvalues --    1.41786   1.69101   1.69106   2.22203   2.37312

 Mulliken charges and spin densities:
               1          2
     1  H   -0.001985  -0.000534
     2  H   -0.003806  -0.000175
     3  F    0.005791   1.000709
 Sum of Mulliken charges =   0.00000   1.00000

 Dipole moment (field-independent basis, Debye):
    X=              0.0701    Y=              0.0000    Z=             -0.0000  Tot=              0.0701
 Quadrupole moment (field-independent basis, Debye-Ang):
   XX=             -6.1802   YY=             -6.5280   ZZ=             -7.0435
   XY=              0.0000   XZ=             -0.0000   YZ=             -0.3467

  Exact polarizability:      11.530      -0.000       2.414       0.000      -0.186       2.138
 Approx polarizability:      14.605       0.000       2.566      -0.000      -0.233       2.219

                      1                      2                      3
                      A                      A                      A
 Frequencies --     29.8257              1517.6383              1518.4309
 Red. masses --      1.1085                 1.0094                 1.0094
 Frc consts  --      0.0006                 1.3698                 1.3713
 IR Inten    --      0.2347                 0.0002                 0.0001

                      4
                      A
 Frequencies --   2200.4623
 Red. masses --      1.0078
 Frc consts  --      2.8752
 IR Inten    --      0.2648

 - Thermochemistry -
 -------------------
 Temperature   298.150 Kelvin.  Pressure   1.00000 Atm.
 Atom     1 has atomic number  1 and mass   1.00783

 Molecular mass:    21.01405 amu.
 Principal axes and moments of inertia in atomic units:
                           1         2         3
     Eigenvalues --     0.00000  91.92092  91.92092
           X            1.00000  -0.00000   0.00000
           Y            0.00000   1.00000   0.00000
           Z            0.00000   0.00000   1.00000
 This molecule is a prolate symmetric top.
 Rotational symmetry number  1.
 Rotational temperature (Kelvin)      0.94227
 Rotational constant (GHZ):          19.633628
 Zero-point vibrational energy      31499.8 (Joules/Mol)
                                    7.52864 (Kcal/Mol)
 Warning -- explicit consideration of   1 degrees of freedom as
           vibrations may cause significant error
 Vibrational temperatures:     42.91  2183.54  2184.68  3165.97
          (Kelvin)

 Zero-point correction=                           0.011998 (Hartree/Particle)
 Thermal correction to Energy=                    0.015245
 Thermal correction to Enthalpy=                  0.016190
 Thermal correction to Gibbs Free Energy=        -0.010293
 Sum of electronic and zero-point Energies=           -100.903227
 Sum of electronic and thermal Energies=              -100.899980
 Sum of electronic and thermal Enthalpies=            -100.899035
 Sum of electronic and thermal Free Energies=         -100.925518

                     E (Thermal)             CV                S
                      KCal/Mol        Cal/Mol-Kelvin    Cal/Mol-Kelvin
 Total                    9.567              7.098             55.736
 Electronic               0.000              0.000              1.377
 Translational            0.889              2.981             35.068
 Rotational               0.592              1.987             13.428
 Vibrational              8.085              2.130              5.863
 Vibration     1          0.594              1.984              5.841

 Normal termination of Gaussian 16 at Fri Aug 22 20:28:16 2025.
