 Gaussian 16, Revision C.01,
 Gaussian 16:  ES64L-G16RevC.01  3-Jul-2019

 -----------------------------------------
 # sp b3lyp/6-311g** Force nosymm scf=(qc)
 -----------------------------------------

 -------------------
 Title Card Required
 -------------------
 Symbolic Z-matrix:
 Charge =  0 Multiplicity = 2

                          Input orientation:
 ---------------------------------------------------------------------
 Center     Atomic      Atomic             Coordinates (Angstroms)
 Number     Number       Type             X           Y           Z
 ---------------------------------------------------------------------
      1          1           0        0.000000    0.000000    0.000000
      2          1           0       -1.150000    0.000000    0.000000
      3          9           0        1.100000    0.000000    0.000000
 ---------------------------------------------------------------------

 SCF Done:  E(UB3LYP) =  -100.954806834     a.u. after    6 cycles

 Alpha  occ. eigenvalues --  -24.64378  -1.14794  -0.54509  -0.38381  -0.38381
 Alpha  occ. eigenvalues --   -0.37342
 Alpha virt. eigenvalues --    0.08658   0.19235   0.35854   0.91491   0.91491
 Alpha virt. eigenvalues --    0.98960   1.09088   1.09088   1.30191   1.54021
 Alpha virt. eigenvalues --    1.54021   1.58038   2.17228   2.31197   2.59815

  Beta  occ. eigenvalues --  -24.63478  -1.12520  -0.49282  -0.37563  -0.37563
  Beta virt. eigenvalues --   -0.19590   0.11175   0.22331   0.40314   0.92486
  Beta virt. eigenvalues --    0.92486   1.00906   1.15572   1.15572   1.35811
  Beta virt. eigenvalues --    1.58431   1.58431   1.62167   2.27364   2.33751

 Mulliken charges and spin densities:
               1          2
     1  H    0.284729  -0.038292
     2  H    0.040956   0.788480
     3  F   -0.325685   0.249812
 Sum of Mulliken charges =   0.00000   1.00000

 Dipole moment (field-independent basis, Debye):
    X=             -2.2905    Y=             -0.0000    Z=             -0.0000  Tot=              2.2905
 Quadrupole moment (field-independent basis, Debye-Ang):
   XX=             -7.7399   YY=             -6.8151   ZZ=             -6.8151
   XY=             -0.0000   XZ=             -0.0000   YZ=              0.0000

  Exact polarizability:      17.922       0.000       2.540      -0.000      -0.000       2.540
 Approx polarizability:      22.144       0.000       2.543      -0.000      -0.000       2.543

 ******    1 imaginary frequencies (negative Signs) ******

                      1                      2                      3
                      A                      A                      A
 Frequencies --  -1406.6693               933.6537               933.6537
 Red. masses --      1.0106                 1.0185                 1.0185
 Frc consts  --      1.1782                 0.5231                 0.5231
 IR Inten    --     19.7884                53.0471                53.0471

                      4
                      A
 Frequencies --   1271.6846
 Red. masses --      1.1052
 Frc consts  --      1.0530
 IR Inten    --     47.1870

 - Thermochemistry -
 -------------------
 Temperature   298.150 Kelvin.  Pressure   1.00000 Atm.
 Atom     1 has atomic number  1 and mass   1.00783

 Molecular mass:    21.01405 amu.
 Principal axes and moments of inertia in atomic units:
                           1         2         3
     Eigenvalues --     0.00000  20.63770  20.63770
           X            1.00000  -0.00000   0.00000
           Y            0.00000   1.00000   0.00000
           Z            0.00000   0.00000   1.00000
 This molecule is a prolate symmetric top.
 Rotational symmetry number  1.
 Rotational temperature (Kelvin)      4.19688
 Rotational constant (GHZ):          87.448757
    1 imaginary frequencies ignored.
 Zero-point vibrational energy      18775.3 (Joules/Mol)
                                    4.48741 (Kcal/Mol)
 Vibrational temperatures:   1343.32  1343.32  1829.67
          (Kelvin)

 Zero-point correction=                           0.007151 (Hartree/Particle)
 Thermal correction to Energy=                    0.009619
 Thermal correction to Enthalpy=                  0.010563
 Thermal correction to Gibbs Free Energy=        -0.011853
 Sum of electronic and zero-point Energies=           -100.947656
 Sum of electronic and thermal Energies=              -100.945188
 Sum of electronic and thermal Enthalpies=            -100.944243
 Sum of electronic and thermal Free Energies=         -100.966660

                     E (Thermal)             CV                S
                      KCal/Mol        Cal/Mol-Kelvin    Cal/Mol-Kelvin
 Total                    6.036              6.042             47.180
 Electronic               0.000              0.000              1.377
 Translational            0.889              2.981             35.068
 Rotational               0.592              1.987             10.459
 Vibrational              4.555              1.074              0.275

 Normal termination of Gaussian 16 at Fri Aug 22 16:04:44 2025.
