 Gaussian 16, Revision C.01,
 Gaussian 16:  ES64L-G16RevC.01  3-Jul-2019

 -----------------------------------------
 # sp b3lyp/6-311g** Force nosymm scf=(qc)
 -----------------------------------------

 -------------------
 Title Card Required
 -------------------
 Symbolic Z-matrix:
 Charge =  0 Multiplicity = 2

                          Input orientation:
 ---------------------------------------------------------------------
 Center     Atomic      Atomic             Coordinates (Angstroms)
 Number     Number       Type             X           Y           Z
 ---------------------------------------------------------------------
      1          1           0        0.000000    0.000000    0.000000
      2          1           0       -2.950000    0.000000    0.000000
      3          9           0        0.650000    0.000000    0.000000
 ---------------------------------------------------------------------

 SCF Done:  E(UB3LYP) =  -100.800776178     a.u. after    6 cycles

 Alpha  occ. eigenvalues --  -24.62924  -1.31298  -0.59796  -0.42342  -0.42342
 Alpha  occ. eigenvalues --   -0.33834
 Alpha virt. eigenvalues --    0.07385   0.25540   0.55522   0.92898   0.92898
 Alpha virt. eigenvalues --    0.94689   1.22066   1.23694   1.23694   1.36829
 Alpha virt. eigenvalues --    1.46928   1.46928   1.96268   2.14929   3.09611

  Beta  occ. eigenvalues --  -24.62921  -1.31291  -0.59790  -0.42340  -0.42340
  Beta virt. eigenvalues --   -0.06238   0.08421   0.39250   0.55669   0.92896
  Beta virt. eigenvalues --    0.92896   0.94699   1.32460   1.46929   1.46929
  Beta virt. eigenvalues --    1.50723   1.50723   1.52251   1.96138   2.44584

 Mulliken charges and spin densities:
               1          2
     1  H    0.253120   0.001408
     2  H    0.002059   0.997224
     3  F   -0.255179   0.001368
 Sum of Mulliken charges =   0.00000   1.00000

 Dipole moment (field-independent basis, Debye):
    X=             -1.5344    Y=             -0.0000    Z=             -0.0000  Tot=              1.5344
 Quadrupole moment (field-independent basis, Debye-Ang):
   XX=             -7.0496   YY=             -6.6069   ZZ=             -6.6069
   XY=              0.0000   XZ=             -0.0000   YZ=              0.0000

  Exact polarizability:       4.337      -0.000       2.455      -0.000      -0.000       2.455
 Approx polarizability:       4.531      -0.000       2.437      -0.000      -0.000       2.437

 ******    3 imaginary frequencies (negative Signs) ******

                      1                      2                      3
                      A                      A                      A
 Frequencies --  -4580.9751             -4580.9751                -3.1538
 Red. masses --      1.0407                 1.0407                 1.0532
 Frc consts  --     12.8673                12.8673                 0.0000
 IR Inten    --    220.2696               220.2696                 0.1012

                      4
                      A
 Frequencies --  10873.5006
 Red. masses --      1.0583
 Frc consts  --     73.7230
 IR Inten    --    108.3435

 - Thermochemistry -
 -------------------
 Temperature   298.150 Kelvin.  Pressure   1.00000 Atm.
 Atom     1 has atomic number  1 and mass   1.00783

 Molecular mass:    21.01405 amu.
 Principal axes and moments of inertia in atomic units:
                           1         2         3
     Eigenvalues --     0.00000  45.04602  45.04602
           X            1.00000  -0.00000   0.00000
           Y            0.00000   1.00000   0.00000
           Z            0.00000   0.00000   1.00000
 This molecule is a prolate symmetric top.
 Rotational symmetry number  1.
 Rotational temperature (Kelvin)      1.92279
 Rotational constant (GHZ):          40.064388
    3 imaginary frequencies ignored.
 Zero-point vibrational energy      65038.0 (Joules/Mol)
                                   15.54445 (Kcal/Mol)
 Vibrational temperatures:  15644.54
          (Kelvin)

 Zero-point correction=                           0.024772 (Hartree/Particle)
 Thermal correction to Energy=                    0.027132
 Thermal correction to Enthalpy=                  0.028076
 Thermal correction to Gibbs Free Energy=         0.005053
 Sum of electronic and zero-point Energies=           -100.776005
 Sum of electronic and thermal Energies=              -100.773644
 Sum of electronic and thermal Enthalpies=            -100.772700
 Sum of electronic and thermal Free Energies=         -100.795723

                     E (Thermal)             CV                S
                      KCal/Mol        Cal/Mol-Kelvin    Cal/Mol-Kelvin
 Total                   17.026              4.968             48.456
 Electronic               0.000              0.000              1.377
 Translational            0.889              2.981             35.068
 Rotational               0.592              1.987             12.010
 Vibrational             15.544              0.000              0.000

 Normal termination of Gaussian 16 at Fri Aug 22 15:44:41 2025.
