 Gaussian 16, Revision C.01,
 Gaussian 16:  ES64L-G16RevC.01  3-Jul-2019

 -----------------------------------------
 # sp b3lyp/6-311g** Force nosymm scf=(qc)
 -----------------------------------------

 -------------------
 Title Card Required
 -------------------
 Symbolic Z-matrix:
 Charge =  0 Multiplicity = 2

                          Input orientation:
 ---------------------------------------------------------------------
 Center     Atomic      Atomic             Coordinates (Angstroms)
 Number     Number       Type             X           Y           Z
 ---------------------------------------------------------------------
      1          1           0        0.000000    0.000000    0.000000
      2          1           0       -2.150000    0.000000    0.000000
      3          9           0        1.200000    0.000000    0.000000
 ---------------------------------------------------------------------

 SCF Done:  E(UB3LYP) =  -100.927198277     a.u. after    6 cycles

 Alpha  occ. eigenvalues --  -24.63891  -1.11959  -0.47747  -0.37154  -0.37154
 Alpha  occ. eigenvalues --   -0.36191
 Alpha virt. eigenvalues --   -0.03745   0.24238   0.28684   0.93539   0.93539
 Alpha virt. eigenvalues --    1.00945   1.15368   1.21231   1.21231   1.35129
 Alpha virt. eigenvalues --    1.35129   1.40364   1.72853   2.12198   2.30773

  Beta  occ. eigenvalues --  -24.63781  -1.11683  -0.47210  -0.37054  -0.37054
  Beta virt. eigenvalues --   -0.13523  -0.00709   0.28571   0.34897   0.93535
  Beta virt. eigenvalues --    0.93535   1.01259   1.23323   1.34699   1.34699
  Beta virt. eigenvalues --    1.41168   1.41168   1.51258   1.73063   2.27262

 Mulliken charges and spin densities:
               1          2
     1  H    0.338044  -0.004905
     2  H    0.020450   0.972158
     3  F   -0.358493   0.032747
 Sum of Mulliken charges =  -0.00000   1.00000

 Dipole moment (field-independent basis, Debye):
    X=             -2.5221    Y=              0.0000    Z=              0.0000  Tot=              2.5221
 Quadrupole moment (field-independent basis, Debye-Ang):
   XX=             -8.3390   YY=             -7.1037   ZZ=             -7.1037
   XY=              0.0000   XZ=              0.0000   YZ=             -0.0000

  Exact polarizability:      14.696       0.000       2.367      -0.000       0.000       2.367
 Approx polarizability:      18.302       0.000       2.329       0.000       0.000       2.329

 ******    1 imaginary frequencies (negative Signs) ******

                      1                      2                      3
                      A                      A                      A
 Frequencies --   -313.4787               838.8541              1166.4294
 Red. masses --      1.0323                 1.0803                 1.0263
 Frc consts  --      0.0598                 0.4479                 0.8227
 IR Inten    --     28.6580               158.7078               116.9765

                      4
                      A
 Frequencies --   1166.4294
 Red. masses --      1.0263
 Frc consts  --      0.8227
 IR Inten    --    116.9765

 - Thermochemistry -
 -------------------
 Temperature   298.150 Kelvin.  Pressure   1.00000 Atm.
 Atom     1 has atomic number  1 and mass   1.00783

 Molecular mass:    21.01405 amu.
 Principal axes and moments of inertia in atomic units:
                           1         2         3
     Eigenvalues --     0.00000  41.99905  41.99905
           X            1.00000  -0.00000   0.00000
           Y            0.00000   1.00000   0.00000
           Z            0.00000   0.00000   1.00000
 This molecule is a prolate symmetric top.
 Rotational symmetry number  1.
 Rotational temperature (Kelvin)      2.06228
 Rotational constant (GHZ):          42.971000
    1 imaginary frequencies ignored.
 Zero-point vibrational energy      18971.1 (Joules/Mol)
                                    4.53419 (Kcal/Mol)
 Vibrational temperatures:   1206.92  1678.23  1678.23
          (Kelvin)

 Zero-point correction=                           0.007226 (Hartree/Particle)
 Thermal correction to Energy=                    0.009692
 Thermal correction to Enthalpy=                  0.010637
 Thermal correction to Gibbs Free Energy=        -0.012450
 Sum of electronic and zero-point Energies=           -100.919973
 Sum of electronic and thermal Energies=              -100.917506
 Sum of electronic and thermal Enthalpies=            -100.916562
 Sum of electronic and thermal Free Energies=         -100.939648

                     E (Thermal)             CV                S
                      KCal/Mol        Cal/Mol-Kelvin    Cal/Mol-Kelvin
 Total                    6.082              6.013             48.589
 Electronic               0.000              0.000              1.377
 Translational            0.889              2.981             35.068
 Rotational               0.592              1.987             11.871
 Vibrational              4.601              1.045              0.273

 Normal termination of Gaussian 16 at Fri Aug 22 16:10:15 2025.
