 Gaussian 16, Revision C.01,
 Gaussian 16:  ES64L-G16RevC.01  3-Jul-2019

 -----------------------------------------
 # sp b3lyp/6-311g** Force nosymm scf=(qc)
 -----------------------------------------

 -------------------
 Title Card Required
 -------------------
 Symbolic Z-matrix:
 Charge =  0 Multiplicity = 2

                          Input orientation:
 ---------------------------------------------------------------------
 Center     Atomic      Atomic             Coordinates (Angstroms)
 Number     Number       Type             X           Y           Z
 ---------------------------------------------------------------------
      1          1           0        0.000000    0.000000    0.000000
      2          1           0       -1.050000    0.000000    0.000000
      3          9           0        2.550000    0.000000    0.000000
 ---------------------------------------------------------------------

 SCF Done:  E(UB3LYP) =  -100.899287665     a.u. after  183 cycles

 Alpha  occ. eigenvalues --  -24.77084  -1.22856  -0.56025  -0.47441  -0.47170
 Alpha  occ. eigenvalues --   -0.37708
 Alpha virt. eigenvalues --    0.00040   0.22378   0.38838   0.85472   0.90334
 Alpha virt. eigenvalues --    0.92913   1.08928   1.10275   1.10295   1.34741
 Alpha virt. eigenvalues --    1.63177   1.63194   2.21532   2.36409   2.57391

  Beta  occ. eigenvalues --  -24.73919  -1.13762  -0.44337  -0.43997  -0.37633
  Beta virt. eigenvalues --   -0.26631   0.00095   0.22415   0.38947   0.91829
  Beta virt. eigenvalues --    0.94745   0.94908   1.10286   1.10294   1.12553
  Beta virt. eigenvalues --    1.34795   1.63175   1.63190   2.21532   2.36411

 Mulliken charges and spin densities:
               1          2
     1  H   -0.002950  -0.000691
     2  H   -0.011725  -0.001461
     3  F    0.014675   1.002152
 Sum of Mulliken charges =   0.00000   1.00000

 Dipole moment (field-independent basis, Debye):
    X=              0.1867    Y=             -0.0000    Z=             -0.0000  Tot=              0.1867
 Quadrupole moment (field-independent basis, Debye-Ang):
   XX=             -6.0794   YY=             -7.3448   ZZ=             -6.4819
   XY=             -0.0000   XZ=             -0.0000   YZ=             -0.0016

  Exact polarizability:      13.956      -0.000       2.089      -0.000      -0.001       2.529
 Approx polarizability:      18.475       0.000       2.137      -0.000      -0.001       2.707

                      1                      2                      3
                      A                      A                      A
 Frequencies --    153.3099              1412.8666              1541.2536
 Red. masses --      1.1085                 1.0078                 1.0107
 Frc consts  --      0.0154                 1.1853                 1.4145
 IR Inten    --      1.6399                 5.6752                 0.0043

                      4
                      A
 Frequencies --   1567.7278
 Red. masses --      1.0107
 Frc consts  --      1.4636
 IR Inten    --      0.0059

 - Thermochemistry -
 -------------------
 Temperature   298.150 Kelvin.  Pressure   1.00000 Atm.
 Atom     1 has atomic number  1 and mass   1.00783

 Molecular mass:    21.01405 amu.
 Principal axes and moments of inertia in atomic units:
                           1         2         3
     Eigenvalues --     0.00000  63.51728  63.51728
           X            1.00000  -0.00000   0.00000
           Y            0.00000   1.00000   0.00000
           Z            0.00000   0.00000   1.00000
 This molecule is a prolate symmetric top.
 Rotational symmetry number  1.
 Rotational temperature (Kelvin)      1.36363
 Rotational constant (GHZ):          28.413390
 Zero-point vibrational energy      27963.7 (Joules/Mol)
                                    6.68347 (Kcal/Mol)
 Warning -- explicit consideration of   1 degrees of freedom as
           vibrations may cause significant error
 Vibrational temperatures:    220.58  2032.80  2217.52  2255.61
          (Kelvin)

 Zero-point correction=                           0.010651 (Hartree/Particle)
 Thermal correction to Energy=                    0.013664
 Thermal correction to Enthalpy=                  0.014608
 Thermal correction to Gibbs Free Energy=        -0.010006
 Sum of electronic and zero-point Energies=           -100.888637
 Sum of electronic and thermal Energies=              -100.885624
 Sum of electronic and thermal Enthalpies=            -100.884680
 Sum of electronic and thermal Free Energies=         -100.909294

                     E (Thermal)             CV                S
                      KCal/Mol        Cal/Mol-Kelvin    Cal/Mol-Kelvin
 Total                    8.574              7.092             51.805
 Electronic               0.000              0.000              1.377
 Translational            0.889              2.981             35.068
 Rotational               0.592              1.987             12.693
 Vibrational              7.093              2.124              2.666
 Vibration     1          0.619              1.899              2.631

 Normal termination of Gaussian 16 at Fri Aug 22 17:52:07 2025.
