 Gaussian 16, Revision C.01,
 Gaussian 16:  ES64L-G16RevC.01  3-Jul-2019

 -----------------------------------------
 # sp b3lyp/6-311g** Force nosymm scf=(qc)
 -----------------------------------------

 -------------------
 Title Card Required
 -------------------
 Symbolic Z-matrix:
 Charge =  0 Multiplicity = 2

                          Input orientation:
 ---------------------------------------------------------------------
 Center     Atomic      Atomic             Coordinates (Angstroms)
 Number     Number       Type             X           Y           Z
 ---------------------------------------------------------------------
      1          1           0        0.000000    0.000000    0.000000
      2          1           0       -3.400000    0.000000    0.000000
      3          9           0        2.950000    0.000000    0.000000
 ---------------------------------------------------------------------

 SCF Done:  E(UB3LYP) =  -100.761538219     a.u. after   22 cycles

 Alpha  occ. eigenvalues --  -24.73901  -1.19975  -0.53020  -0.44520  -0.44520
 Alpha  occ. eigenvalues --   -0.32599
 Alpha virt. eigenvalues --   -0.08463   0.24073   0.35901   0.89551   0.92386
 Alpha virt. eigenvalues --    0.92386   1.04198   1.24911   1.24911   1.25144
 Alpha virt. eigenvalues --    1.43531   1.43531   1.43881   2.14926   2.39567

  Beta  occ. eigenvalues --  -24.70887  -1.11340  -0.41504  -0.41504  -0.33865
  Beta virt. eigenvalues --   -0.24670  -0.06765   0.24080   0.37720   0.93843
  Beta virt. eigenvalues --    0.93843   0.98161   1.07881   1.23466   1.23466
  Beta virt. eigenvalues --    1.24151   1.45594   1.45857   1.45857   2.15045

 Mulliken charges and spin densities:
               1          2
     1  H    0.040316  -0.952345
     2  H    0.000628   0.997354
     3  F   -0.040944   0.954991
 Sum of Mulliken charges =  -0.00000   1.00000

 Dipole moment (field-independent basis, Debye):
    X=             -0.6304    Y=              0.0000    Z=             -0.0000  Tot=              0.6304
 Quadrupole moment (field-independent basis, Debye-Ang):
   XX=             -8.3915   YY=             -7.6088   ZZ=             -7.6088
   XY=              0.0000   XZ=             -0.0000   YZ=              0.0000

  Exact polarizability:      32.521       0.000       2.025      -0.000       0.000       2.025
 Approx polarizability:      33.727       0.000       1.925      -0.000      -0.000       1.925

 ******    2 imaginary frequencies (negative Signs) ******

                      1                      2                      3
                      A                      A                      A
 Frequencies --   -403.1353              -131.6806               144.2985
 Red. masses --      1.0448                 1.0670                 1.0198
 Frc consts  --      0.1000                 0.0109                 0.0125
 IR Inten    --     42.5041                 0.9671                 1.5147

                      4
                      A
 Frequencies --    144.2985
 Red. masses --      1.0198
 Frc consts  --      0.0125
 IR Inten    --      1.5147

 - Thermochemistry -
 -------------------
 Temperature   298.150 Kelvin.  Pressure   1.00000 Atm.
 Atom     1 has atomic number  1 and mass   1.00783

 Molecular mass:    21.01405 amu.
 Principal axes and moments of inertia in atomic units:
                           1         2         3
     Eigenvalues --     0.00000 161.51262 161.51262
           X            1.00000  -0.00000   0.00000
           Y            0.00000   1.00000   0.00000
           Z            0.00000   0.00000   1.00000
 This molecule is a prolate symmetric top.
 Rotational symmetry number  1.
 Rotational temperature (Kelvin)      0.53627
 Rotational constant (GHZ):          11.173995
    2 imaginary frequencies ignored.
 Zero-point vibrational energy       1726.2 (Joules/Mol)
                                    0.41257 (Kcal/Mol)
 Warning -- explicit consideration of   2 degrees of freedom as
           vibrations may cause significant error
 Vibrational temperatures:    207.61   207.61
          (Kelvin)

 Zero-point correction=                           0.000657 (Hartree/Particle)
 Thermal correction to Energy=                    0.004325
 Thermal correction to Enthalpy=                  0.005269
 Thermal correction to Gibbs Free Energy=        -0.021569
 Sum of electronic and zero-point Energies=           -100.760881
 Sum of electronic and thermal Energies=              -100.757214
 Sum of electronic and thermal Enthalpies=            -100.756270
 Sum of electronic and thermal Free Energies=         -100.783108

                     E (Thermal)             CV                S
                      KCal/Mol        Cal/Mol-Kelvin    Cal/Mol-Kelvin
 Total                    2.714              8.786             56.485
 Electronic               0.000              0.000              1.377
 Translational            0.889              2.981             35.068
 Rotational               0.592              1.987             14.548
 Vibrational              1.232              3.818              5.492
 Vibration     1          0.616              1.909              2.746
 Vibration     2          0.616              1.909              2.746

 Normal termination of Gaussian 16 at Fri Aug 22 19:18:53 2025.
