 Gaussian 16, Revision C.01,
 Gaussian 16:  ES64L-G16RevC.01  3-Jul-2019

 -----------------------------------------
 # sp b3lyp/6-311g** Force nosymm scf=(qc)
 -----------------------------------------

 -------------------
 Title Card Required
 -------------------
 Symbolic Z-matrix:
 Charge =  0 Multiplicity = 2

                          Input orientation:
 ---------------------------------------------------------------------
 Center     Atomic      Atomic             Coordinates (Angstroms)
 Number     Number       Type             X           Y           Z
 ---------------------------------------------------------------------
      1          1           0        0.000000    0.000000    0.000000
      2          1           0       -1.950000    0.000000    0.000000
      3          9           0        1.400000    0.000000    0.000000
 ---------------------------------------------------------------------

 SCF Done:  E(UB3LYP) =  -100.882170963     a.u. after    8 cycles

 Alpha  occ. eigenvalues --  -24.63623  -1.10027  -0.45151  -0.37139  -0.36141
 Alpha  occ. eigenvalues --   -0.36141
 Alpha virt. eigenvalues --   -0.08941   0.23098   0.27419   0.93826   0.93826
 Alpha virt. eigenvalues --    1.02814   1.06055   1.19809   1.19809   1.34376
 Alpha virt. eigenvalues --    1.34376   1.38416   1.71441   2.10691   2.28639

  Beta  occ. eigenvalues --  -24.63189  -1.08895  -0.43320  -0.35734  -0.35734
  Beta virt. eigenvalues --   -0.17369  -0.04872   0.26472   0.32522   0.93746
  Beta virt. eigenvalues --    0.93746   1.04261   1.10986   1.31878   1.31878
  Beta virt. eigenvalues --    1.38483   1.38483   1.49415   1.72168   2.19223

 Mulliken charges and spin densities:
               1          2
     1  H    0.320315  -0.072157
     2  H    0.042881   0.937805
     3  F   -0.363196   0.134352
 Sum of Mulliken charges =   0.00000   1.00000

 Dipole moment (field-independent basis, Debye):
    X=             -2.9422    Y=              0.0000    Z=             -0.0000  Tot=              2.9422
 Quadrupole moment (field-independent basis, Debye-Ang):
   XX=             -8.6297   YY=             -7.2261   ZZ=             -7.2261
   XY=              0.0000   XZ=             -0.0000   YZ=              0.0000

  Exact polarizability:      23.629      -0.000       2.283       0.000       0.000       2.283
 Approx polarizability:      32.924       0.000       2.226      -0.000       0.000       2.226

 ******    2 imaginary frequencies (negative Signs) ******

                      1                      2                      3
                      A                      A                      A
 Frequencies --  -1571.5436              -317.0827              1055.5883
 Red. masses --      1.0330                 1.0796                 1.0224
 Frc consts  --      1.5031                 0.0640                 0.6712
 IR Inten    --    153.5315                 0.2524                79.2661

                      4
                      A
 Frequencies --   1055.5883
 Red. masses --      1.0224
 Frc consts  --      0.6712
 IR Inten    --     79.2661

 - Thermochemistry -
 -------------------
 Temperature   298.150 Kelvin.  Pressure   1.00000 Atm.
 Atom     1 has atomic number  1 and mass   1.00783

 Molecular mass:    21.01405 amu.
 Principal axes and moments of inertia in atomic units:
                           1         2         3
     Eigenvalues --     0.00000  43.54949  43.54949
           X            1.00000  -0.00000   0.00000
           Y            0.00000   1.00000   0.00000
           Z            0.00000   0.00000   1.00000
 This molecule is a prolate symmetric top.
 Rotational symmetry number  1.
 Rotational temperature (Kelvin)      1.98886
 Rotational constant (GHZ):          41.441159
    2 imaginary frequencies ignored.
 Zero-point vibrational energy      12627.6 (Joules/Mol)
                                    3.01808 (Kcal/Mol)
 Vibrational temperatures:   1518.76  1518.76
          (Kelvin)

 Zero-point correction=                           0.004810 (Hartree/Particle)
 Thermal correction to Energy=                    0.007229
 Thermal correction to Enthalpy=                  0.008174
 Thermal correction to Gibbs Free Energy=        -0.014888
 Sum of electronic and zero-point Energies=           -100.877361
 Sum of electronic and thermal Energies=              -100.874942
 Sum of electronic and thermal Enthalpies=            -100.873997
 Sum of electronic and thermal Free Energies=         -100.897059

                     E (Thermal)             CV                S
                      KCal/Mol        Cal/Mol-Kelvin    Cal/Mol-Kelvin
 Total                    4.537              5.608             48.538
 Electronic               0.000              0.000              1.377
 Translational            0.889              2.981             35.068
 Rotational               0.592              1.987             11.943
 Vibrational              3.055              0.640              0.149

 Normal termination of Gaussian 16 at Fri Aug 22 16:20:08 2025.
