 Gaussian 16, Revision C.01,
 Gaussian 16:  ES64L-G16RevC.01  3-Jul-2019

 -----------------------------------------
 # sp b3lyp/6-311g** Force nosymm scf=(qc)
 -----------------------------------------

 -------------------
 Title Card Required
 -------------------
 Symbolic Z-matrix:
 Charge =  0 Multiplicity = 2

                          Input orientation:
 ---------------------------------------------------------------------
 Center     Atomic      Atomic             Coordinates (Angstroms)
 Number     Number       Type             X           Y           Z
 ---------------------------------------------------------------------
      1          1           0        0.000000    0.000000    0.000000
      2          1           0       -2.000000    0.000000    0.000000
      3          9           0        1.550000    0.000000    0.000000
 ---------------------------------------------------------------------

 SCF Done:  E(UB3LYP) =  -100.850979977     a.u. after   12 cycles

 Alpha  occ. eigenvalues --  -24.64162  -1.10211  -0.44099  -0.37294  -0.36315
 Alpha  occ. eigenvalues --   -0.36315
 Alpha virt. eigenvalues --   -0.12086   0.23133   0.27720   0.94416   0.94416
 Alpha virt. eigenvalues --    0.99668   1.05419   1.19981   1.19981   1.32425
 Alpha virt. eigenvalues --    1.33664   1.33664   1.73568   2.10135   2.26909

  Beta  occ. eigenvalues --  -24.63206  -1.07658  -0.41112  -0.35401  -0.35401
  Beta virt. eigenvalues --   -0.18800  -0.08171   0.25670   0.32153   0.94196
  Beta virt. eigenvalues --    0.94196   1.02524   1.07600   1.29168   1.29168
  Beta virt. eigenvalues --    1.37312   1.37312   1.44771   1.73170   2.14781

 Mulliken charges and spin densities:
               1          2
     1  H    0.289913  -0.225425
     2  H    0.047748   0.925676
     3  F   -0.337661   0.299749
 Sum of Mulliken charges =   0.00000   1.00000

 Dipole moment (field-independent basis, Debye):
    X=             -3.0252    Y=              0.0000    Z=              0.0000  Tot=              3.0252
 Quadrupole moment (field-independent basis, Debye-Ang):
   XX=             -8.8760   YY=             -7.3346   ZZ=             -7.3346
   XY=              0.0000   XZ=              0.0000   YZ=              0.0000

  Exact polarizability:      31.896       0.000       2.205       0.000       0.000       2.205
 Approx polarizability:      44.165       0.000       2.130       0.000      -0.000       2.130

 ******    2 imaginary frequencies (negative Signs) ******

                      1                      2                      3
                      A                      A                      A
 Frequencies --  -2020.0973              -449.4617               939.9074
 Red. masses --      1.0372                 1.0750                 1.0213
 Frc consts  --      2.4937                 0.1280                 0.5316
 IR Inten    --      1.1058                 2.6833                60.6014

                      4
                      A
 Frequencies --    939.9074
 Red. masses --      1.0213
 Frc consts  --      0.5316
 IR Inten    --     60.6014

 - Thermochemistry -
 -------------------
 Temperature   298.150 Kelvin.  Pressure   1.00000 Atm.
 Atom     1 has atomic number  1 and mass   1.00783

 Molecular mass:    21.01405 amu.
 Principal axes and moments of inertia in atomic units:
                           1         2         3
     Eigenvalues --     0.00000  49.51362  49.51362
           X            1.00000  -0.00000   0.00000
           Y            0.00000   1.00000   0.00000
           Z            0.00000   0.00000   1.00000
 This molecule is a prolate symmetric top.
 Rotational symmetry number  1.
 Rotational temperature (Kelvin)      1.74929
 Rotational constant (GHZ):          36.449391
    2 imaginary frequencies ignored.
 Zero-point vibrational energy      11243.8 (Joules/Mol)
                                    2.68733 (Kcal/Mol)
 Vibrational temperatures:   1352.32  1352.32
          (Kelvin)

 Zero-point correction=                           0.004283 (Hartree/Particle)
 Thermal correction to Energy=                    0.006736
 Thermal correction to Enthalpy=                  0.007680
 Thermal correction to Gibbs Free Energy=        -0.015545
 Sum of electronic and zero-point Energies=           -100.846697
 Sum of electronic and thermal Energies=              -100.844244
 Sum of electronic and thermal Enthalpies=            -100.843300
 Sum of electronic and thermal Free Energies=         -100.866525

                     E (Thermal)             CV                S
                      KCal/Mol        Cal/Mol-Kelvin    Cal/Mol-Kelvin
 Total                    4.227              5.864             48.882
 Electronic               0.000              0.000              1.377
 Translational            0.889              2.981             35.068
 Rotational               0.592              1.987             12.198
 Vibrational              2.746              0.896              0.238

 Normal termination of Gaussian 16 at Fri Aug 22 16:28:17 2025.
