 Gaussian 16, Revision C.01,
 Gaussian 16:  ES64L-G16RevC.01  3-Jul-2019

 -----------------------------------------
 # sp b3lyp/6-311g** Force nosymm scf=(qc)
 -----------------------------------------

 -------------------
 Title Card Required
 -------------------
 Symbolic Z-matrix:
 Charge =  0 Multiplicity = 2

                          Input orientation:
 ---------------------------------------------------------------------
 Center     Atomic      Atomic             Coordinates (Angstroms)
 Number     Number       Type             X           Y           Z
 ---------------------------------------------------------------------
      1          1           0        0.000000    0.000000    0.000000
      2          1           0       -3.050000    0.000000    0.000000
      3          9           0        3.650000    0.000000    0.000000
 ---------------------------------------------------------------------

 SCF Done:  E(UB3LYP) =  -100.759627525     a.u. after   28 cycles

 Alpha  occ. eigenvalues --  -24.75614  -1.21560  -0.54737  -0.45959  -0.45959
 Alpha  occ. eigenvalues --   -0.32387
 Alpha virt. eigenvalues --   -0.07766   0.24921   0.36319   0.87184   0.91338
 Alpha virt. eigenvalues --    0.91338   1.01482   1.25144   1.25144   1.25767
 Alpha virt. eigenvalues --    1.44206   1.44289   1.44289   2.15697   2.39717

  Beta  occ. eigenvalues --  -24.72486  -1.12568  -0.42823  -0.42823  -0.32714
  Beta virt. eigenvalues --   -0.25602  -0.07365   0.24712   0.36942   0.92831
  Beta virt. eigenvalues --    0.92831   0.96423   1.05548   1.24772   1.24772
  Beta virt. eigenvalues --    1.25366   1.44833   1.44920   1.44920   2.15881

 Mulliken charges and spin densities:
               1          2
     1  H    0.006917  -0.985188
     2  H    0.000431   0.993340
     3  F   -0.007348   0.991847
 Sum of Mulliken charges =   0.00000   1.00000

 Dipole moment (field-independent basis, Debye):
    X=             -0.1444    Y=             -0.0000    Z=              0.0000  Tot=              0.1444
 Quadrupole moment (field-independent basis, Debye-Ang):
   XX=             -7.1316   YY=             -7.6337   ZZ=             -7.6337
   XY=              0.0000   XZ=             -0.0000   YZ=              0.0000

  Exact polarizability:      21.622      -0.000       2.014       0.000       0.000       2.014
 Approx polarizability:      16.188       0.000       1.933      -0.000      -0.000       1.933

 ******    2 imaginary frequencies (negative Signs) ******

                      1                      2                      3
                      A                      A                      A
 Frequencies --   -330.3439              -111.0688               119.7138
 Red. masses --      1.0098                 1.1061                 1.0159
 Frc consts  --      0.0649                 0.0080                 0.0086
 IR Inten    --      4.0200                 2.5334                 0.0526

                      4
                      A
 Frequencies --    119.7142
 Red. masses --      1.0159
 Frc consts  --      0.0086
 IR Inten    --      0.0526

 - Thermochemistry -
 -------------------
 Temperature   298.150 Kelvin.  Pressure   1.00000 Atm.
 Atom     1 has atomic number  1 and mass   1.00783

 Molecular mass:    21.01405 amu.
 Principal axes and moments of inertia in atomic units:
                           1         2         3
     Eigenvalues --     0.00000 191.01720 191.01720
           X            1.00000  -0.00000   0.00000
           Y            0.00000   1.00000   0.00000
           Z            0.00000   0.00000   1.00000
 This molecule is a prolate symmetric top.
 Rotational symmetry number  1.
 Rotational temperature (Kelvin)      0.45344
 Rotational constant (GHZ):           9.448056
    2 imaginary frequencies ignored.
 Zero-point vibrational energy       1432.1 (Joules/Mol)
                                    0.34228 (Kcal/Mol)
 Warning -- explicit consideration of   2 degrees of freedom as
           vibrations may cause significant error
 Vibrational temperatures:    172.24   172.24
          (Kelvin)

 Zero-point correction=                           0.000545 (Hartree/Particle)
 Thermal correction to Energy=                    0.004301
 Thermal correction to Enthalpy=                  0.005245
 Thermal correction to Gibbs Free Energy=        -0.022092
 Sum of electronic and zero-point Energies=           -100.759082
 Sum of electronic and thermal Energies=              -100.755326
 Sum of electronic and thermal Enthalpies=            -100.754382
 Sum of electronic and thermal Free Energies=         -100.781720

                     E (Thermal)             CV                S
                      KCal/Mol        Cal/Mol-Kelvin    Cal/Mol-Kelvin
 Total                    2.699              8.834             57.537
 Electronic               0.000              0.000              1.377
 Translational            0.889              2.981             35.068
 Rotational               0.592              1.987             14.881
 Vibrational              1.218              3.866              6.210
 Vibration     1          0.609              1.933              3.105
 Vibration     2          0.609              1.933              3.105

 Normal termination of Gaussian 16 at Fri Aug 22 23:37:22 2025.
