 Gaussian 16, Revision C.01,
 Gaussian 16:  ES64L-G16RevC.01  3-Jul-2019

 -----------------------------------------
 # sp b3lyp/6-311g** Force nosymm scf=(qc)
 -----------------------------------------

 -------------------
 Title Card Required
 -------------------
 Symbolic Z-matrix:
 Charge =  0 Multiplicity = 2

                          Input orientation:
 ---------------------------------------------------------------------
 Center     Atomic      Atomic             Coordinates (Angstroms)
 Number     Number       Type             X           Y           Z
 ---------------------------------------------------------------------
      1          1           0        0.000000    0.000000    0.000000
      2          1           0       -2.250000    0.000000    0.000000
      3          9           0        2.650000    0.000000    0.000000
 ---------------------------------------------------------------------

 SCF Done:  E(UB3LYP) =  -100.772141807     a.u. after   19 cycles

 Alpha  occ. eigenvalues --  -24.72633  -1.18784  -0.51741  -0.43448  -0.43448
 Alpha  occ. eigenvalues --   -0.33953
 Alpha virt. eigenvalues --   -0.12055   0.25137   0.32722   0.90355   0.93142
 Alpha virt. eigenvalues --    0.93142   1.06045   1.23842   1.23842   1.25254
 Alpha virt. eigenvalues --    1.37051   1.37051   1.42779   2.13253   2.34087

  Beta  occ. eigenvalues --  -24.69716  -1.10457  -0.40535  -0.40535  -0.34733
  Beta virt. eigenvalues --   -0.23964  -0.10534   0.26172   0.33573   0.94556
  Beta virt. eigenvalues --    0.94556   0.98265   1.09522   1.22969   1.22969
  Beta virt. eigenvalues --    1.25864   1.39556   1.39556   1.44272   2.13954

 Mulliken charges and spin densities:
               1          2
     1  H    0.052029  -0.861331
     2  H    0.015889   0.938488
     3  F   -0.067918   0.922843
 Sum of Mulliken charges =  -0.00000   1.00000

 Dipole moment (field-independent basis, Debye):
    X=             -1.0905    Y=              0.0000    Z=              0.0000  Tot=              1.0905
 Quadrupole moment (field-independent basis, Debye-Ang):
   XX=             -8.3035   YY=             -7.6512   ZZ=             -7.6512
   XY=             -0.0000   XZ=             -0.0000   YZ=              0.0000

  Exact polarizability:      52.449      -0.000       2.008      -0.000      -0.000       2.008
 Approx polarizability:      51.980      -0.000       1.919      -0.000       0.000       1.919

 ******    2 imaginary frequencies (negative Signs) ******

                      1                      2                      3
                      A                      A                      A
 Frequencies --  -1009.4076              -335.8574               393.1556
 Red. masses --      1.0102                 1.1056                 1.0161
 Frc consts  --      0.6065                 0.0735                 0.0925
 IR Inten    --     38.4877                38.0422                 1.8710

                      4
                      A
 Frequencies --    393.1556
 Red. masses --      1.0161
 Frc consts  --      0.0925
 IR Inten    --      1.8710

 - Thermochemistry -
 -------------------
 Temperature   298.150 Kelvin.  Pressure   1.00000 Atm.
 Atom     1 has atomic number  1 and mass   1.00783

 Molecular mass:    21.01405 amu.
 Principal axes and moments of inertia in atomic units:
                           1         2         3
     Eigenvalues --     0.00000 101.84721 101.84721
           X            1.00000  -0.00000   0.00000
           Y            0.00000   1.00000   0.00000
           Z            0.00000   0.00000   1.00000
 This molecule is a prolate symmetric top.
 Rotational symmetry number  1.
 Rotational temperature (Kelvin)      0.85043
 Rotational constant (GHZ):          17.720085
    2 imaginary frequencies ignored.
 Zero-point vibrational energy       4703.2 (Joules/Mol)
                                    1.12409 (Kcal/Mol)
 Warning -- explicit consideration of   2 degrees of freedom as
           vibrations may cause significant error
 Vibrational temperatures:    565.66   565.66
          (Kelvin)

 Zero-point correction=                           0.001791 (Hartree/Particle)
 Thermal correction to Energy=                    0.004784
 Thermal correction to Enthalpy=                  0.005728
 Thermal correction to Gibbs Free Energy=        -0.019004
 Sum of electronic and zero-point Energies=           -100.770350
 Sum of electronic and thermal Energies=              -100.767358
 Sum of electronic and thermal Enthalpies=            -100.766414
 Sum of electronic and thermal Free Energies=         -100.791146

                     E (Thermal)             CV                S
                      KCal/Mol        Cal/Mol-Kelvin    Cal/Mol-Kelvin
 Total                    3.002              7.938             52.053
 Electronic               0.000              0.000              1.377
 Translational            0.889              2.981             35.068
 Rotational               0.592              1.987             13.631
 Vibrational              1.521              2.970              1.976
 Vibration     1          0.760              1.485              0.988
 Vibration     2          0.760              1.485              0.988

 Normal termination of Gaussian 16 at Fri Aug 22 18:14:35 2025.
