 Gaussian 16, Revision C.01,
 Gaussian 16:  ES64L-G16RevC.01  3-Jul-2019

 -----------------------------------------
 # sp b3lyp/6-311g** Force nosymm scf=(qc)
 -----------------------------------------

 -------------------
 Title Card Required
 -------------------
 Symbolic Z-matrix:
 Charge =  0 Multiplicity = 2

                          Input orientation:
 ---------------------------------------------------------------------
 Center     Atomic      Atomic             Coordinates (Angstroms)
 Number     Number       Type             X           Y           Z
 ---------------------------------------------------------------------
      1          1           0        0.000000    0.000000    0.000000
      2          1           0       -0.700000    0.000000    0.000000
      3          9           0        2.300000    0.000000    0.000000
 ---------------------------------------------------------------------

 SCF Done:  E(UB3LYP) =  -100.932555963     a.u. after   88 cycles

 Alpha  occ. eigenvalues --  -24.76385  -1.22253  -0.55551  -0.47141  -0.46602
 Alpha  occ. eigenvalues --   -0.44009
 Alpha virt. eigenvalues --    0.07918   0.20240   0.48885   0.87251   0.90609
 Alpha virt. eigenvalues --    0.92723   1.08706   1.08732   1.13841   1.58691
 Alpha virt. eigenvalues --    1.85597   1.85614   1.90064   2.40219   3.55818

  Beta  occ. eigenvalues --  -24.73252  -1.13258  -0.45285  -0.43463  -0.42741
  Beta virt. eigenvalues --   -0.26312   0.08274   0.20492   0.49051   0.92077
  Beta virt. eigenvalues --    0.92995   0.97384   1.08870   1.08875   1.17744
  Beta virt. eigenvalues --    1.58963   1.85669   1.85682   1.90176   2.40385

 Mulliken charges and spin densities:
               1          2
     1  H   -0.010848  -0.007393
     2  H    0.007216   0.016616
     3  F    0.003632   0.990776
 Sum of Mulliken charges =   0.00000   1.00000

 Dipole moment (field-independent basis, Debye):
    X=             -0.0058    Y=             -0.0000    Z=             -0.0015  Tot=              0.0060
 Quadrupole moment (field-independent basis, Debye-Ang):
   XX=             -5.8391   YY=             -6.8813   ZZ=             -6.4833
   XY=             -0.0004   XZ=             -0.4184   YZ=              0.0004

  Exact polarizability:     105.181       0.002       1.990      -0.299       0.000       2.184
 Approx polarizability:      11.894      -0.000       2.069      -0.148       0.000       2.322

 ******    3 imaginary frequencies (negative Signs) ******

                      1                      2                      3
                      A                      A                      A
 Frequencies --  -1250.5070             -1184.7694              -812.5428
 Red. masses --      1.0096                 1.0096                 1.1083
 Frc consts  --      0.9302                 0.8350                 0.4311
 IR Inten    --      0.1606                14.5199              2620.7773

                      4
                      A
 Frequencies --   4951.5124
 Red. masses --      1.0080
 Frc consts  --     14.5602
 IR Inten    --   4535.3342

 - Thermochemistry -
 -------------------
 Temperature   298.150 Kelvin.  Pressure   1.00000 Atm.
 Atom     1 has atomic number  1 and mass   1.00783

 Molecular mass:    21.01405 amu.
 Principal axes and moments of inertia in atomic units:
                           1         2         3
     Eigenvalues --     0.00000  46.58130  46.58130
           X            1.00000  -0.00000   0.00000
           Y            0.00000   1.00000   0.00000
           Z            0.00000   0.00000   1.00000
 This molecule is a prolate symmetric top.
 Rotational symmetry number  1.
 Rotational temperature (Kelvin)      1.85941
 Rotational constant (GHZ):          38.743896
    3 imaginary frequencies ignored.
 Zero-point vibrational energy      29616.6 (Joules/Mol)
                                    7.07854 (Kcal/Mol)
 Vibrational temperatures:   7124.12
          (Kelvin)

 Zero-point correction=                           0.011280 (Hartree/Particle)
 Thermal correction to Energy=                    0.013641
 Thermal correction to Enthalpy=                  0.014585
 Thermal correction to Gibbs Free Energy=        -0.008470
 Sum of electronic and zero-point Energies=           -100.921276
 Sum of electronic and thermal Energies=              -100.918915
 Sum of electronic and thermal Enthalpies=            -100.917971
 Sum of electronic and thermal Free Energies=         -100.941025

                     E (Thermal)             CV                S
                      KCal/Mol        Cal/Mol-Kelvin    Cal/Mol-Kelvin
 Total                    8.560              4.968             48.522
 Electronic               0.000              0.000              1.377
 Translational            0.889              2.981             35.068
 Rotational               0.592              1.987             12.077
 Vibrational              7.079              0.000              0.000

 Normal termination of Gaussian 16 at Fri Aug 22 17:20:39 2025.
