 Gaussian 16, Revision C.01,
 Gaussian 16:  ES64L-G16RevC.01  3-Jul-2019

 -----------------------------------------
 # sp b3lyp/6-311g** Force nosymm scf=(qc)
 -----------------------------------------

 -------------------
 Title Card Required
 -------------------
 Symbolic Z-matrix:
 Charge =  0 Multiplicity = 2

                          Input orientation:
 ---------------------------------------------------------------------
 Center     Atomic      Atomic             Coordinates (Angstroms)
 Number     Number       Type             X           Y           Z
 ---------------------------------------------------------------------
      1          1           0        0.000000    0.000000    0.000000
      2          1           0       -3.550000    0.000000    0.000000
      3          9           0        1.400000    0.000000    0.000000
 ---------------------------------------------------------------------

 SCF Done:  E(UB3LYP) =  -100.877322952     a.u. after    7 cycles

 Alpha  occ. eigenvalues --  -24.64368  -1.10278  -0.44558  -0.36707  -0.36707
 Alpha  occ. eigenvalues --   -0.33903
 Alpha virt. eigenvalues --   -0.11877   0.20767   0.27913   0.93115   0.93115
 Alpha virt. eigenvalues --    1.03162   1.15286   1.23610   1.23610   1.23630
 Alpha virt. eigenvalues --    1.32617   1.32617   1.71527   2.13434   2.21304

  Beta  occ. eigenvalues --  -24.64358  -1.10250  -0.44531  -0.36698  -0.36698
  Beta virt. eigenvalues --   -0.12230  -0.06311   0.23953   0.38327   0.93112
  Beta virt. eigenvalues --    0.93112   1.03191   1.15323   1.32578   1.32578
  Beta virt. eigenvalues --    1.46083   1.46537   1.46537   1.71545   2.20737

 Mulliken charges and spin densities:
               1          2
     1  H    0.356086  -0.001804
     2  H    0.001460   0.998439
     3  F   -0.357546   0.003365
 Sum of Mulliken charges =   0.00000   1.00000

 Dipole moment (field-independent basis, Debye):
    X=             -2.5156    Y=              0.0000    Z=              0.0000  Tot=              2.5156
 Quadrupole moment (field-independent basis, Debye-Ang):
   XX=             -9.5467   YY=             -7.2640   ZZ=             -7.2640
   XY=              0.0000   XZ=              0.0000   YZ=              0.0000

  Exact polarizability:      13.236       0.000       2.233      -0.000      -0.000       2.233
 Approx polarizability:      22.482      -0.000       2.167      -0.000       0.000       2.167

 ******    2 imaginary frequencies (negative Signs) ******

                      1                      2                      3
                      A                      A                      A
 Frequencies --  -1016.1174               -68.3564              1092.8183
 Red. masses --      1.0576                 1.0540                 1.0319
 Frc consts  --      0.6433                 0.0029                 0.7261
 IR Inten    --     50.5431                 0.1135               126.6953

                      4
                      A
 Frequencies --   1092.8183
 Red. masses --      1.0319
 Frc consts  --      0.7261
 IR Inten    --    126.6953

 - Thermochemistry -
 -------------------
 Temperature   298.150 Kelvin.  Pressure   1.00000 Atm.
 Atom     1 has atomic number  1 and mass   1.00783

 Molecular mass:    21.01405 amu.
 Principal axes and moments of inertia in atomic units:
                           1         2         3
     Eigenvalues --     0.00000  88.27882  88.27882
           X            1.00000  -0.00000   0.00000
           Y            0.00000   1.00000   0.00000
           Z            0.00000   0.00000   1.00000
 This molecule is a prolate symmetric top.
 Rotational symmetry number  1.
 Rotational temperature (Kelvin)      0.98114
 Rotational constant (GHZ):          20.443649
    2 imaginary frequencies ignored.
 Zero-point vibrational energy      13073.0 (Joules/Mol)
                                    3.12452 (Kcal/Mol)
 Vibrational temperatures:   1572.32  1572.32
          (Kelvin)

 Zero-point correction=                           0.004979 (Hartree/Particle)
 Thermal correction to Energy=                    0.007391
 Thermal correction to Enthalpy=                  0.008335
 Thermal correction to Gibbs Free Energy=        -0.015384
 Sum of electronic and zero-point Energies=           -100.872344
 Sum of electronic and thermal Energies=              -100.869932
 Sum of electronic and thermal Enthalpies=            -100.868988
 Sum of electronic and thermal Free Energies=         -100.892707

                     E (Thermal)             CV                S
                      KCal/Mol        Cal/Mol-Kelvin    Cal/Mol-Kelvin
 Total                    4.638              5.540             49.921
 Electronic               0.000              0.000              1.377
 Translational            0.889              2.981             35.068
 Rotational               0.592              1.987             13.347
 Vibrational              3.157              0.572              0.128

 Normal termination of Gaussian 16 at Fri Aug 22 16:21:14 2025.
