 Gaussian 16, Revision C.01,
 Gaussian 16:  ES64L-G16RevC.01  3-Jul-2019

 -----------------------------------------
 # sp b3lyp/6-311g** Force nosymm scf=(qc)
 -----------------------------------------

 -------------------
 Title Card Required
 -------------------
 Symbolic Z-matrix:
 Charge =  0 Multiplicity = 2

                          Input orientation:
 ---------------------------------------------------------------------
 Center     Atomic      Atomic             Coordinates (Angstroms)
 Number     Number       Type             X           Y           Z
 ---------------------------------------------------------------------
      1          1           0        0.000000    0.000000    0.000000
      2          1           0       -2.000000    0.000000    0.000000
      3          9           0        2.000000    0.000000    0.000000
 ---------------------------------------------------------------------

 SCF Done:  E(UB3LYP) =  -100.800330537     a.u. after   14 cycles

 Alpha  occ. eigenvalues --  -24.68137  -1.14471  -0.47226  -0.39660  -0.39660
 Alpha  occ. eigenvalues --   -0.36413
 Alpha virt. eigenvalues --   -0.13506   0.23911   0.30815   0.88218   0.94968
 Alpha virt. eigenvalues --    0.94968   1.04901   1.21476   1.21476   1.28064
 Alpha virt. eigenvalues --    1.33969   1.33969   1.60273   2.11005   2.31375

  Beta  occ. eigenvalues --  -24.65744  -1.07776  -0.37395  -0.37300  -0.37300
  Beta virt. eigenvalues --   -0.21406  -0.11525   0.26051   0.31738   0.90981
  Beta virt. eigenvalues --    0.95704   0.95704   1.08367   1.23055   1.23055
  Beta virt. eigenvalues --    1.36296   1.36296   1.38562   1.57303   2.11978

 Mulliken charges and spin densities:
               1          2
     1  H    0.142725  -0.637400
     2  H    0.044341   0.885167
     3  F   -0.187066   0.752232
 Sum of Mulliken charges =  -0.00000   1.00000

 Dipole moment (field-independent basis, Debye):
    X=             -2.2827    Y=             -0.0000    Z=             -0.0000  Tot=              2.2827
 Quadrupole moment (field-independent basis, Debye-Ang):
   XX=             -8.7239   YY=             -7.5489   ZZ=             -7.5489
   XY=             -0.0000   XZ=             -0.0000   YZ=             -0.0000

  Exact polarizability:      49.439       0.000       2.062       0.000      -0.000       2.062
 Approx polarizability:      59.471      -0.000       1.969      -0.000       0.000       1.969

 ******    2 imaginary frequencies (negative Signs) ******

                      1                      2                      3
                      A                      A                      A
 Frequencies --  -1567.7783              -570.4747               648.4232
 Red. masses --      1.0197                 1.0945                 1.0179
 Frc consts  --      1.4767                 0.2099                 0.2522
 IR Inten    --    118.4614                34.6971                12.7377

                      4
                      A
 Frequencies --    648.4232
 Red. masses --      1.0179
 Frc consts  --      0.2522
 IR Inten    --     12.7377

 - Thermochemistry -
 -------------------
 Temperature   298.150 Kelvin.  Pressure   1.00000 Atm.
 Atom     1 has atomic number  1 and mass   1.00783

 Molecular mass:    21.01405 amu.
 Principal axes and moments of inertia in atomic units:
                           1         2         3
     Eigenvalues --     0.00000  65.76632  65.76632
           X            1.00000  -0.00000   0.00000
           Y            0.00000   1.00000   0.00000
           Z            0.00000   0.00000   1.00000
 This molecule is a prolate symmetric top.
 Rotational symmetry number  1.
 Rotational temperature (Kelvin)      1.31700
 Rotational constant (GHZ):          27.441723
    2 imaginary frequencies ignored.
 Zero-point vibrational energy       7756.9 (Joules/Mol)
                                    1.85393 (Kcal/Mol)
 Vibrational temperatures:    932.94   932.94
          (Kelvin)

 Zero-point correction=                           0.002954 (Hartree/Particle)
 Thermal correction to Energy=                    0.005585
 Thermal correction to Enthalpy=                  0.006529
 Thermal correction to Gibbs Free Energy=        -0.017206
 Sum of electronic and zero-point Energies=           -100.797376
 Sum of electronic and thermal Energies=              -100.794745
 Sum of electronic and thermal Enthalpies=            -100.793801
 Sum of electronic and thermal Free Energies=         -100.817536

                     E (Thermal)             CV                S
                      KCal/Mol        Cal/Mol-Kelvin    Cal/Mol-Kelvin
 Total                    3.505              6.830             49.955
 Electronic               0.000              0.000              1.377
 Translational            0.889              2.981             35.068
 Rotational               0.592              1.987             12.762
 Vibrational              2.024              1.862              0.747

 Normal termination of Gaussian 16 at Fri Aug 22 16:56:30 2025.
