 Gaussian 16, Revision C.01,
 Gaussian 16:  ES64L-G16RevC.01  3-Jul-2019

 -----------------------------------------
 # sp b3lyp/6-311g** Force nosymm scf=(qc)
 -----------------------------------------

 -------------------
 Title Card Required
 -------------------
 Symbolic Z-matrix:
 Charge =  0 Multiplicity = 2

                          Input orientation:
 ---------------------------------------------------------------------
 Center     Atomic      Atomic             Coordinates (Angstroms)
 Number     Number       Type             X           Y           Z
 ---------------------------------------------------------------------
      1          1           0        0.000000    0.000000    0.000000
      2          1           0       -1.750000    0.000000    0.000000
      3          9           0        1.450000    0.000000    0.000000
 ---------------------------------------------------------------------

 SCF Done:  E(UB3LYP) =  -100.875506433     a.u. after   13 cycles

 Alpha  occ. eigenvalues --  -24.63786  -1.10254  -0.45571  -0.37789  -0.36218
 Alpha  occ. eigenvalues --   -0.36218
 Alpha virt. eigenvalues --   -0.08602   0.22056   0.27972   0.94019   0.94019
 Alpha virt. eigenvalues --    0.98465   1.03981   1.18250   1.18250   1.35751
 Alpha virt. eigenvalues --    1.35751   1.43087   1.74430   2.12987   2.33392

  Beta  occ. eigenvalues --  -24.62953  -1.08056  -0.42208  -0.35429  -0.35429
  Beta virt. eigenvalues --   -0.19541  -0.04825   0.25731   0.30737   0.93914
  Beta virt. eigenvalues --    0.93914   1.03427   1.06201   1.28450   1.28450
  Beta virt. eigenvalues --    1.38149   1.38149   1.50765   1.76858   2.19052

 Mulliken charges and spin densities:
               1          2
     1  H    0.291928  -0.147613
     2  H    0.059702   0.889030
     3  F   -0.351630   0.258583
 Sum of Mulliken charges =   0.00000   1.00000

 Dipole moment (field-independent basis, Debye):
    X=             -3.0323    Y=             -0.0000    Z=             -0.0000  Tot=              3.0323
 Quadrupole moment (field-independent basis, Debye-Ang):
   XX=             -8.4937   YY=             -7.2345   ZZ=             -7.2345
   XY=             -0.0000   XZ=             -0.0000   YZ=              0.0000

  Exact polarizability:      29.334      -0.000       2.280      -0.000       0.000       2.280
 Approx polarizability:      40.617      -0.000       2.220      -0.000      -0.000       2.220

 ******    2 imaginary frequencies (negative Signs) ******

                      1                      2                      3
                      A                      A                      A
 Frequencies --  -2116.6735              -398.6013              1028.6251
 Red. masses --      1.0285                 1.0845                 1.0204
 Frc consts  --      2.7151                 0.1015                 0.6361
 IR Inten    --      3.1016                 2.0697                55.6001

                      4
                      A
 Frequencies --   1028.6251
 Red. masses --      1.0204
 Frc consts  --      0.6361
 IR Inten    --     55.6001

 - Thermochemistry -
 -------------------
 Temperature   298.150 Kelvin.  Pressure   1.00000 Atm.
 Atom     1 has atomic number  1 and mass   1.00783

 Molecular mass:    21.01405 amu.
 Principal axes and moments of inertia in atomic units:
                           1         2         3
     Eigenvalues --     0.00000  40.68857  40.68857
           X            1.00000  -0.00000   0.00000
           Y            0.00000   1.00000   0.00000
           Z            0.00000   0.00000   1.00000
 This molecule is a prolate symmetric top.
 Rotational symmetry number  1.
 Rotational temperature (Kelvin)      2.12870
 Rotational constant (GHZ):          44.354992
    2 imaginary frequencies ignored.
 Zero-point vibrational energy      12305.1 (Joules/Mol)
                                    2.94099 (Kcal/Mol)
 Vibrational temperatures:   1479.96  1479.96
          (Kelvin)

 Zero-point correction=                           0.004687 (Hartree/Particle)
 Thermal correction to Energy=                    0.007113
 Thermal correction to Enthalpy=                  0.008057
 Thermal correction to Gibbs Free Energy=        -0.014949
 Sum of electronic and zero-point Energies=           -100.870820
 Sum of electronic and thermal Energies=              -100.868393
 Sum of electronic and thermal Enthalpies=            -100.867449
 Sum of electronic and thermal Free Energies=         -100.890455

                     E (Thermal)             CV                S
                      KCal/Mol        Cal/Mol-Kelvin    Cal/Mol-Kelvin
 Total                    4.464              5.662             48.420
 Electronic               0.000              0.000              1.377
 Translational            0.889              2.981             35.068
 Rotational               0.592              1.987             11.808
 Vibrational              2.982              0.694              0.167

 Normal termination of Gaussian 16 at Fri Aug 22 16:22:35 2025.
