 Gaussian 16, Revision C.01,
 Gaussian 16:  ES64L-G16RevC.01  3-Jul-2019

 -----------------------------------------
 # sp b3lyp/6-311g** Force nosymm scf=(qc)
 -----------------------------------------

 -------------------
 Title Card Required
 -------------------
 Symbolic Z-matrix:
 Charge =  0 Multiplicity = 2

                          Input orientation:
 ---------------------------------------------------------------------
 Center     Atomic      Atomic             Coordinates (Angstroms)
 Number     Number       Type             X           Y           Z
 ---------------------------------------------------------------------
      1          1           0        0.000000    0.000000    0.000000
      2          1           0       -1.450000    0.000000    0.000000
      3          9           0        1.000000    0.000000    0.000000
 ---------------------------------------------------------------------

 SCF Done:  E(UB3LYP) =  -100.966849180     a.u. after    7 cycles

 Alpha  occ. eigenvalues --  -24.63547  -1.15827  -0.53147  -0.38354  -0.38354
 Alpha  occ. eigenvalues --   -0.37147
 Alpha virt. eigenvalues --    0.08323   0.20706   0.34914   0.93997   0.93997
 Alpha virt. eigenvalues --    0.98909   1.14646   1.14646   1.19561   1.42867
 Alpha virt. eigenvalues --    1.42867   1.53299   2.03301   2.31238   2.49124

  Beta  occ. eigenvalues --  -24.63219  -1.15007  -0.50974  -0.38065  -0.38065
  Beta virt. eigenvalues --   -0.16321   0.10710   0.26041   0.38784   0.94256
  Beta virt. eigenvalues --    0.94256   0.99613   1.24760   1.24760   1.27847
  Beta virt. eigenvalues --    1.48145   1.48145   1.56330   2.16715   2.31652

 Mulliken charges and spin densities:
               1          2
     1  H    0.290690  -0.003598
     2  H    0.034859   0.917272
     3  F   -0.325549   0.086327
 Sum of Mulliken charges =   0.00000   1.00000

 Dipole moment (field-independent basis, Debye):
    X=             -2.2917    Y=             -0.0000    Z=              0.0000  Tot=              2.2917
 Quadrupole moment (field-independent basis, Debye-Ang):
   XX=             -7.6485   YY=             -6.8236   ZZ=             -6.8236
   XY=             -0.0000   XZ=              0.0000   YZ=              0.0000

  Exact polarizability:      13.241       0.000       2.523      -0.000       0.000       2.523
 Approx polarizability:      14.553       0.000       2.521       0.000       0.000       2.521

                      1                      2                      3
                      A                      A                      A
 Frequencies --    357.2257               829.7253               829.7253
 Red. masses --      1.0453                 1.0230                 1.0230
 Frc consts  --      0.0786                 0.4150                 0.4150
 IR Inten    --      0.0014                96.2505                96.2505

                      4
                      A
 Frequencies --   2751.2002
 Red. masses --      1.0665
 Frc consts  --      4.7560
 IR Inten    --    183.5705

 - Thermochemistry -
 -------------------
 Temperature   298.150 Kelvin.  Pressure   1.00000 Atm.
 Atom     1 has atomic number  1 and mass   1.00783

 Molecular mass:    21.01405 amu.
 Principal axes and moments of inertia in atomic units:
                           1         2         3
     Eigenvalues --     0.00000  23.14760  23.14760
           X            1.00000  -0.00000   0.00000
           Y            0.00000   1.00000   0.00000
           Z            0.00000   0.00000   1.00000
 This molecule is a prolate symmetric top.
 Rotational symmetry number  1.
 Rotational temperature (Kelvin)      3.74181
 Rotational constant (GHZ):          77.966654
 Zero-point vibrational energy      28518.2 (Joules/Mol)
                                    6.81602 (Kcal/Mol)
 Warning -- explicit consideration of   1 degrees of freedom as
           vibrations may cause significant error
 Vibrational temperatures:    513.97  1193.79  1193.79  3958.36
          (Kelvin)

 Zero-point correction=                           0.010862 (Hartree/Particle)
 Thermal correction to Energy=                    0.013716
 Thermal correction to Enthalpy=                  0.014661
 Thermal correction to Gibbs Free Energy=        -0.008448
 Sum of electronic and zero-point Energies=           -100.955987
 Sum of electronic and thermal Energies=              -100.953133
 Sum of electronic and thermal Enthalpies=            -100.952189
 Sum of electronic and thermal Free Energies=         -100.975297

                     E (Thermal)             CV                S
                      KCal/Mol        Cal/Mol-Kelvin    Cal/Mol-Kelvin
 Total                    8.607              7.735             48.636
 Electronic               0.000              0.000              1.377
 Translational            0.889              2.981             35.068
 Rotational               0.592              1.987             10.687
 Vibrational              7.126              2.767              1.503
 Vibration     1          0.732              1.560              1.134

 Normal termination of Gaussian 16 at Fri Aug 22 16:00:10 2025.
