 Gaussian 16, Revision C.01,
 Gaussian 16:  ES64L-G16RevC.01  3-Jul-2019

 -----------------------------------------
 # sp b3lyp/6-311g** Force nosymm scf=(qc)
 -----------------------------------------

 -------------------
 Title Card Required
 -------------------
 Symbolic Z-matrix:
 Charge =  0 Multiplicity = 2

                          Input orientation:
 ---------------------------------------------------------------------
 Center     Atomic      Atomic             Coordinates (Angstroms)
 Number     Number       Type             X           Y           Z
 ---------------------------------------------------------------------
      1          1           0        0.000000    0.000000    0.000000
      2          1           0       -3.500000    0.000000    0.000000
      3          9           0        1.000000    0.000000    0.000000
 ---------------------------------------------------------------------

 SCF Done:  E(UB3LYP) =  -100.966148690     a.u. after    6 cycles

 Alpha  occ. eigenvalues --  -24.64186  -1.16060  -0.51655  -0.38805  -0.38805
 Alpha  occ. eigenvalues --   -0.33699
 Alpha virt. eigenvalues --    0.00584   0.23894   0.34611   0.94036   0.94036
 Alpha virt. eigenvalues --    0.98570   1.23692   1.23816   1.23816   1.29520
 Alpha virt. eigenvalues --    1.35923   1.35923   1.90159   2.14182   2.33872

  Beta  occ. eigenvalues --  -24.64184  -1.16055  -0.51650  -0.38804  -0.38804
  Beta virt. eigenvalues --   -0.05918   0.01231   0.33437   0.39450   0.94036
  Beta virt. eigenvalues --    0.94036   0.98572   1.29329   1.35921   1.35921
  Beta virt. eigenvalues --    1.49944   1.50164   1.50164   1.90191   2.33696

 Mulliken charges and spin densities:
               1          2
     1  H    0.319819   0.000536
     2  H    0.000990   0.998839
     3  F   -0.320810   0.000625
 Sum of Mulliken charges =   0.00000   1.00000

 Dipole moment (field-independent basis, Debye):
    X=             -2.0376    Y=             -0.0000    Z=              0.0000  Tot=              2.0376
 Quadrupole moment (field-independent basis, Debye-Ang):
   XX=             -8.2219   YY=             -6.9621   ZZ=             -6.9621
   XY=             -0.0000   XZ=              0.0000   YZ=             -0.0000

  Exact polarizability:       6.707       0.000       2.399       0.000       0.000       2.399
 Approx polarizability:       8.223      -0.000       2.371       0.000       0.000       2.371

 ******    1 imaginary frequencies (negative Signs) ******

                      1                      2                      3
                      A                      A                      A
 Frequencies --    -46.5832               983.7001               983.7001
 Red. masses --      1.0532                 1.0370                 1.0370
 Frc consts  --      0.0013                 0.5912                 0.5912
 IR Inten    --      0.0537               168.7504               168.7504

                      4
                      A
 Frequencies --   3026.7359
 Red. masses --      1.0583
 Frc consts  --      5.7125
 IR Inten    --     89.7201

 - Thermochemistry -
 -------------------
 Temperature   298.150 Kelvin.  Pressure   1.00000 Atm.
 Atom     1 has atomic number  1 and mass   1.00783

 Molecular mass:    21.01405 amu.
 Principal axes and moments of inertia in atomic units:
                           1         2         3
     Eigenvalues --     0.00000  71.25757  71.25757
           X            1.00000  -0.00000   0.00000
           Y            0.00000   1.00000   0.00000
           Z            0.00000   0.00000   1.00000
 This molecule is a prolate symmetric top.
 Rotational symmetry number  1.
 Rotational temperature (Kelvin)      1.21550
 Rotational constant (GHZ):          25.327009
    1 imaginary frequencies ignored.
 Zero-point vibrational energy      29871.6 (Joules/Mol)
                                    7.13948 (Kcal/Mol)
 Vibrational temperatures:   1415.33  1415.33  4354.80
          (Kelvin)

 Zero-point correction=                           0.011377 (Hartree/Particle)
 Thermal correction to Energy=                    0.013816
 Thermal correction to Enthalpy=                  0.014761
 Thermal correction to Gibbs Free Energy=        -0.008790
 Sum of electronic and zero-point Energies=           -100.954771
 Sum of electronic and thermal Energies=              -100.952332
 Sum of electronic and thermal Enthalpies=            -100.951388
 Sum of electronic and thermal Free Energies=         -100.974939

                     E (Thermal)             CV                S
                      KCal/Mol        Cal/Mol-Kelvin    Cal/Mol-Kelvin
 Total                    8.670              5.759             49.567
 Electronic               0.000              0.000              1.377
 Translational            0.889              2.981             35.068
 Rotational               0.592              1.987             12.922
 Vibrational              7.189              0.791              0.200

 Normal termination of Gaussian 16 at Fri Aug 22 16:01:32 2025.
