 Gaussian 16, Revision C.01,
 Gaussian 16:  ES64L-G16RevC.01  3-Jul-2019

 -----------------------------------------
 # sp b3lyp/6-311g** Force nosymm scf=(qc)
 -----------------------------------------

 -------------------
 Title Card Required
 -------------------
 Symbolic Z-matrix:
 Charge =  0 Multiplicity = 2

                          Input orientation:
 ---------------------------------------------------------------------
 Center     Atomic      Atomic             Coordinates (Angstroms)
 Number     Number       Type             X           Y           Z
 ---------------------------------------------------------------------
      1          1           0        0.000000    0.000000    0.000000
      2          1           0       -2.750000    0.000000    0.000000
      3          9           0        3.550000    0.000000    0.000000
 ---------------------------------------------------------------------

 SCF Done:  E(UB3LYP) =  -100.760930345     a.u. after   31 cycles

 Alpha  occ. eigenvalues --  -24.75499  -1.21453  -0.54622  -0.45862  -0.45862
 Alpha  occ. eigenvalues --   -0.32520
 Alpha virt. eigenvalues --   -0.08688   0.25374   0.35191   0.87455   0.91409
 Alpha virt. eigenvalues --    0.91409   1.01675   1.25056   1.25056   1.26312
 Alpha virt. eigenvalues --    1.42828   1.42828   1.43296   2.15974   2.38414

  Beta  occ. eigenvalues --  -24.72379  -1.12486  -0.42734  -0.42734  -0.32862
  Beta virt. eigenvalues --   -0.25548  -0.08207   0.25161   0.35910   0.92900
  Beta virt. eigenvalues --    0.92900   0.96648   1.05722   1.24657   1.24657
  Beta virt. eigenvalues --    1.25857   1.43579   1.43579   1.44046   2.16328

 Mulliken charges and spin densities:
               1          2
     1  H    0.008438  -0.974535
     2  H    0.001131   0.985195
     3  F   -0.009569   0.989340
 Sum of Mulliken charges =  -0.00000   1.00000

 Dipole moment (field-independent basis, Debye):
    X=             -0.1895    Y=              0.0000    Z=             -0.0000  Tot=              0.1895
 Quadrupole moment (field-independent basis, Debye-Ang):
   XX=             -7.1663   YY=             -7.6471   ZZ=             -7.6471
   XY=              0.0000   XZ=             -0.0000   YZ=              0.0000

  Exact polarizability:      27.482       0.000       2.032      -0.000       0.000       2.032
 Approx polarizability:      20.722       0.000       1.930      -0.000      -0.000       1.930

 ******    2 imaginary frequencies (negative Signs) ******

                      1                      2                      3
                      A                      A                      A
 Frequencies --   -479.0817              -131.0601               169.3352
 Red. masses --      1.0085                 1.1076                 1.0151
 Frc consts  --      0.1364                 0.0112                 0.0172
 IR Inten    --      5.3938                 4.5148                 0.0511

                      4
                      A
 Frequencies --    169.3352
 Red. masses --      1.0151
 Frc consts  --      0.0172
 IR Inten    --      0.0511

 - Thermochemistry -
 -------------------
 Temperature   298.150 Kelvin.  Pressure   1.00000 Atm.
 Atom     1 has atomic number  1 and mass   1.00783

 Molecular mass:    21.01405 amu.
 Principal axes and moments of inertia in atomic units:
                           1         2         3
     Eigenvalues --     0.00000 171.45440 171.45440
           X            1.00000  -0.00000   0.00000
           Y            0.00000   1.00000   0.00000
           Z            0.00000   0.00000   1.00000
 This molecule is a prolate symmetric top.
 Rotational symmetry number  1.
 Rotational temperature (Kelvin)      0.50517
 Rotational constant (GHZ):          10.526071
    2 imaginary frequencies ignored.
 Zero-point vibrational energy       2025.7 (Joules/Mol)
                                    0.48415 (Kcal/Mol)
 Warning -- explicit consideration of   2 degrees of freedom as
           vibrations may cause significant error
 Vibrational temperatures:    243.64   243.64
          (Kelvin)

 Zero-point correction=                           0.000772 (Hartree/Particle)
 Thermal correction to Energy=                    0.004353
 Thermal correction to Enthalpy=                  0.005297
 Thermal correction to Gibbs Free Energy=        -0.021309
 Sum of electronic and zero-point Energies=           -100.760159
 Sum of electronic and thermal Energies=              -100.756578
 Sum of electronic and thermal Enthalpies=            -100.755633
 Sum of electronic and thermal Free Energies=         -100.782240

                     E (Thermal)             CV                S
                      KCal/Mol        Cal/Mol-Kelvin    Cal/Mol-Kelvin
 Total                    2.731              8.728             55.998
 Electronic               0.000              0.000              1.377
 Translational            0.889              2.981             35.068
 Rotational               0.592              1.987             14.666
 Vibrational              1.250              3.760              4.886
 Vibration     1          0.625              1.880              2.443
 Vibration     2          0.625              1.880              2.443

 Normal termination of Gaussian 16 at Fri Aug 22 22:40:11 2025.
