 Gaussian 16, Revision C.01,
 Gaussian 16:  ES64L-G16RevC.01  3-Jul-2019

 -----------------------------------------
 # sp b3lyp/6-311g** Force nosymm scf=(qc)
 -----------------------------------------

 -------------------
 Title Card Required
 -------------------
 Symbolic Z-matrix:
 Charge =  0 Multiplicity = 2

                          Input orientation:
 ---------------------------------------------------------------------
 Center     Atomic      Atomic             Coordinates (Angstroms)
 Number     Number       Type             X           Y           Z
 ---------------------------------------------------------------------
      1          1           0        0.000000    0.000000    0.000000
      2          1           0       -3.800000    0.000000    0.000000
      3          9           0        1.300000    0.000000    0.000000
 ---------------------------------------------------------------------

 SCF Done:  E(UB3LYP) =  -100.901216815     a.u. after    7 cycles

 Alpha  occ. eigenvalues --  -24.64382  -1.11121  -0.46067  -0.37079  -0.37079
 Alpha  occ. eigenvalues --   -0.33652
 Alpha virt. eigenvalues --   -0.08964   0.21389   0.28135   0.92993   0.92993
 Alpha virt. eigenvalues --    1.02055   1.21362   1.23834   1.23858   1.23858
 Alpha virt. eigenvalues --    1.33781   1.33781   1.70386   2.13355   2.24707

  Beta  occ. eigenvalues --  -24.64379  -1.11112  -0.46059  -0.37076  -0.37076
  Beta virt. eigenvalues --   -0.09366  -0.05712   0.24930   0.38551   0.92992
  Beta virt. eigenvalues --    0.92992   1.02064   1.21388   1.33771   1.33771
  Beta virt. eigenvalues --    1.46928   1.47211   1.47211   1.70408   2.23974

 Mulliken charges and spin densities:
               1          2
     1  H    0.358470  -0.000322
     2  H    0.000706   0.999245
     3  F   -0.359176   0.001077
 Sum of Mulliken charges =   0.00000   1.00000

 Dipole moment (field-independent basis, Debye):
    X=             -2.3999    Y=              0.0000    Z=              0.0000  Tot=              2.3999
 Quadrupole moment (field-independent basis, Debye-Ang):
   XX=             -9.2445   YY=             -7.1993   ZZ=             -7.1993
   XY=              0.0000   XZ=              0.0000   YZ=             -0.0000

  Exact polarizability:      10.932       0.000       2.278      -0.000      -0.000       2.278
 Approx polarizability:      17.118       0.000       2.222      -0.000       0.000       2.222

 ******    2 imaginary frequencies (negative Signs) ******

                      1                      2                      3
                      A                      A                      A
 Frequencies --   -603.6675               -46.3710              1165.1495
 Red. masses --      1.0574                 1.0542                 1.0342
 Frc consts  --      0.2270                 0.0013                 0.8272
 IR Inten    --     55.2152                 0.0192               137.8252

                      4
                      A
 Frequencies --   1165.1495
 Red. masses --      1.0342
 Frc consts  --      0.8272
 IR Inten    --    137.8252

 - Thermochemistry -
 -------------------
 Temperature   298.150 Kelvin.  Pressure   1.00000 Atm.
 Atom     1 has atomic number  1 and mass   1.00783

 Molecular mass:    21.01405 amu.
 Principal axes and moments of inertia in atomic units:
                           1         2         3
     Eigenvalues --     0.00000  92.62256  92.62256
           X            1.00000  -0.00000   0.00000
           Y            0.00000   1.00000   0.00000
           Z            0.00000   0.00000   1.00000
 This molecule is a prolate symmetric top.
 Rotational symmetry number  1.
 Rotational temperature (Kelvin)      0.93513
 Rotational constant (GHZ):          19.484899
    2 imaginary frequencies ignored.
 Zero-point vibrational energy      13938.3 (Joules/Mol)
                                    3.33133 (Kcal/Mol)
 Vibrational temperatures:   1676.39  1676.39
          (Kelvin)

 Zero-point correction=                           0.005309 (Hartree/Particle)
 Thermal correction to Energy=                    0.007708
 Thermal correction to Enthalpy=                  0.008652
 Thermal correction to Gibbs Free Energy=        -0.015097
 Sum of electronic and zero-point Energies=           -100.895908
 Sum of electronic and thermal Energies=              -100.893509
 Sum of electronic and thermal Enthalpies=            -100.892565
 Sum of electronic and thermal Free Energies=         -100.916314

                     E (Thermal)             CV                S
                      KCal/Mol        Cal/Mol-Kelvin    Cal/Mol-Kelvin
 Total                    4.837              5.426             49.984
 Electronic               0.000              0.000              1.377
 Translational            0.889              2.981             35.068
 Rotational               0.592              1.987             13.443
 Vibrational              3.356              0.458              0.095

 Normal termination of Gaussian 16 at Fri Aug 22 16:16:16 2025.
