 Gaussian 16, Revision C.01,
 Gaussian 16:  ES64L-G16RevC.01  3-Jul-2019

 -----------------------------------------
 # sp b3lyp/6-311g** Force nosymm scf=(qc)
 -----------------------------------------

 -------------------
 Title Card Required
 -------------------
 Symbolic Z-matrix:
 Charge =  0 Multiplicity = 2

                          Input orientation:
 ---------------------------------------------------------------------
 Center     Atomic      Atomic             Coordinates (Angstroms)
 Number     Number       Type             X           Y           Z
 ---------------------------------------------------------------------
      1          1           0        0.000000    0.000000    0.000000
      2          1           0       -2.700000    0.000000    0.000000
      3          9           0        2.400000    0.000000    0.000000
 ---------------------------------------------------------------------

 SCF Done:  E(UB3LYP) =  -100.771937601     a.u. after   19 cycles

 Alpha  occ. eigenvalues --  -24.71126  -1.17370  -0.50215  -0.42191  -0.42191
 Alpha  occ. eigenvalues --   -0.33664
 Alpha virt. eigenvalues --   -0.11875   0.24411   0.33385   0.89633   0.93937
 Alpha virt. eigenvalues --    0.93937   1.06644   1.23928   1.23928   1.25946
 Alpha virt. eigenvalues --    1.38383   1.38383   1.45235   2.14957   2.33213

  Beta  occ. eigenvalues --  -24.68343  -1.09468  -0.39421  -0.39421  -0.35750
  Beta virt. eigenvalues --   -0.22958  -0.08894   0.25285   0.35530   0.95245
  Beta virt. eigenvalues --    0.95245   0.95455   1.09033   1.21960   1.21960
  Beta virt. eigenvalues --    1.33166   1.42916   1.42916   1.43838   2.13883

 Mulliken charges and spin densities:
               1          2
     1  H    0.097580  -0.861512
     2  H    0.007587   0.983108
     3  F   -0.105167   0.878404
 Sum of Mulliken charges =  -0.00000   1.00000

 Dipole moment (field-independent basis, Debye):
    X=             -1.3767    Y=             -0.0000    Z=             -0.0000  Tot=              1.3767
 Quadrupole moment (field-independent basis, Debye-Ang):
   XX=             -9.1501   YY=             -7.5847   ZZ=             -7.5847
   XY=             -0.0000   XZ=             -0.0000   YZ=              0.0000

  Exact polarizability:      38.070      -0.000       2.022      -0.000      -0.000       2.022
 Approx polarizability:      44.187      -0.000       1.920      -0.000       0.000       1.920

 ******    2 imaginary frequencies (negative Signs) ******

                      1                      2                      3
                      A                      A                      A
 Frequencies --   -775.4080              -300.0179               311.9860
 Red. masses --      1.0354                 1.0770                 1.0194
 Frc consts  --      0.3668                 0.0571                 0.0585
 IR Inten    --     74.2744                11.1267                 8.2807

                      4
                      A
 Frequencies --    311.9860
 Red. masses --      1.0194
 Frc consts  --      0.0585
 IR Inten    --      8.2807

 - Thermochemistry -
 -------------------
 Temperature   298.150 Kelvin.  Pressure   1.00000 Atm.
 Atom     1 has atomic number  1 and mass   1.00783

 Molecular mass:    21.01405 amu.
 Principal axes and moments of inertia in atomic units:
                           1         2         3
     Eigenvalues --     0.00000 104.63136 104.63136
           X            1.00000  -0.00000   0.00000
           Y            0.00000   1.00000   0.00000
           Z            0.00000   0.00000   1.00000
 This molecule is a prolate symmetric top.
 Rotational symmetry number  1.
 Rotational temperature (Kelvin)      0.82780
 Rotational constant (GHZ):          17.248568
    2 imaginary frequencies ignored.
 Zero-point vibrational energy       3732.2 (Joules/Mol)
                                    0.89201 (Kcal/Mol)
 Warning -- explicit consideration of   2 degrees of freedom as
           vibrations may cause significant error
 Vibrational temperatures:    448.88   448.88
          (Kelvin)

 Zero-point correction=                           0.001422 (Hartree/Particle)
 Thermal correction to Energy=                    0.004593
 Thermal correction to Enthalpy=                  0.005537
 Thermal correction to Gibbs Free Energy=        -0.019566
 Sum of electronic and zero-point Energies=           -100.770516
 Sum of electronic and thermal Energies=              -100.767345
 Sum of electronic and thermal Enthalpies=            -100.766401
 Sum of electronic and thermal Free Energies=         -100.791504

                     E (Thermal)             CV                S
                      KCal/Mol        Cal/Mol-Kelvin    Cal/Mol-Kelvin
 Total                    2.882              8.270             52.834
 Electronic               0.000              0.000              1.377
 Translational            0.889              2.981             35.068
 Rotational               0.592              1.987             13.685
 Vibrational              1.401              3.302              2.704
 Vibration     1          0.700              1.651              1.352
 Vibration     2          0.700              1.651              1.352

 Normal termination of Gaussian 16 at Fri Aug 22 17:32:49 2025.
