 Gaussian 16, Revision C.01,
 Gaussian 16:  ES64L-G16RevC.01  3-Jul-2019

 -----------------------------------------
 # sp b3lyp/6-311g** Force nosymm scf=(qc)
 -----------------------------------------

 -------------------
 Title Card Required
 -------------------
 Symbolic Z-matrix:
 Charge =  0 Multiplicity = 2

                          Input orientation:
 ---------------------------------------------------------------------
 Center     Atomic      Atomic             Coordinates (Angstroms)
 Number     Number       Type             X           Y           Z
 ---------------------------------------------------------------------
      1          1           0        0.000000    0.000000    0.000000
      2          1           0       -2.750000    0.000000    0.000000
      3          9           0        1.100000    0.000000    0.000000
 ---------------------------------------------------------------------

 SCF Done:  E(UB3LYP) =  -100.948734092     a.u. after    5 cycles

 Alpha  occ. eigenvalues --  -24.64203  -1.13794  -0.49570  -0.38022  -0.38022
 Alpha  occ. eigenvalues --   -0.34696
 Alpha virt. eigenvalues --   -0.01936   0.24678   0.30615   0.93647   0.93647
 Alpha virt. eigenvalues --    0.99652   1.22004   1.22843   1.22843   1.32413
 Alpha virt. eigenvalues --    1.35306   1.35306   1.80345   2.14105   2.32447

  Beta  occ. eigenvalues --  -24.64186  -1.13751  -0.49504  -0.38006  -0.38006
  Beta virt. eigenvalues --   -0.09446  -0.00199   0.30474   0.37397   0.93648
  Beta virt. eigenvalues --    0.93648   0.99683   1.29593   1.35278   1.35278
  Beta virt. eigenvalues --    1.45200   1.45200   1.46954   1.80596   2.32356

 Mulliken charges and spin densities:
               1          2
     1  H    0.336881   0.001305
     2  H    0.005287   0.993284
     3  F   -0.342167   0.005411
 Sum of Mulliken charges =   0.00000   1.00000

 Dipole moment (field-independent basis, Debye):
    X=             -2.2303    Y=             -0.0000    Z=             -0.0000  Tot=              2.2303
 Quadrupole moment (field-independent basis, Debye-Ang):
   XX=             -8.3531   YY=             -7.0463   ZZ=             -7.0463
   XY=             -0.0000   XZ=             -0.0000   YZ=             -0.0000

  Exact polarizability:       9.706       0.000       2.380      -0.000      -0.000       2.380
 Approx polarizability:      11.971      -0.000       2.347       0.000      -0.000       2.347

 ******    1 imaginary frequencies (negative Signs) ******

                      1                      2                      3
                      A                      A                      A
 Frequencies --   -110.3007              1169.5001              1169.5001
 Red. masses --      1.0525                 1.0317                 1.0317
 Frc consts  --      0.0075                 0.8314                 0.8314
 IR Inten    --      0.9013               148.0252               148.0252

                      4
                      A
 Frequencies --   1926.7162
 Red. masses --      1.0591
 Frc consts  --      2.3164
 IR Inten    --    103.2050

 - Thermochemistry -
 -------------------
 Temperature   298.150 Kelvin.  Pressure   1.00000 Atm.
 Atom     1 has atomic number  1 and mass   1.00783

 Molecular mass:    21.01405 amu.
 Principal axes and moments of inertia in atomic units:
                           1         2         3
     Eigenvalues --     0.00000  53.47180  53.47180
           X            1.00000  -0.00000   0.00000
           Y            0.00000   1.00000   0.00000
           Z            0.00000   0.00000   1.00000
 This molecule is a prolate symmetric top.
 Rotational symmetry number  1.
 Rotational temperature (Kelvin)      1.61981
 Rotational constant (GHZ):          33.751269
    1 imaginary frequencies ignored.
 Zero-point vibrational energy      25514.6 (Joules/Mol)
                                    6.09815 (Kcal/Mol)
 Vibrational temperatures:   1682.65  1682.65  2772.11
          (Kelvin)

 Zero-point correction=                           0.009718 (Hartree/Particle)
 Thermal correction to Energy=                    0.012117
 Thermal correction to Enthalpy=                  0.013061
 Thermal correction to Gibbs Free Energy=        -0.010169
 Sum of electronic and zero-point Energies=           -100.939016
 Sum of electronic and thermal Energies=              -100.936617
 Sum of electronic and thermal Enthalpies=            -100.935673
 Sum of electronic and thermal Free Energies=         -100.958903

                     E (Thermal)             CV                S
                      KCal/Mol        Cal/Mol-Kelvin    Cal/Mol-Kelvin
 Total                    7.604              5.435             48.892
 Electronic               0.000              0.000              1.377
 Translational            0.889              2.981             35.068
 Rotational               0.592              1.987             12.351
 Vibrational              6.122              0.467              0.096

 Normal termination of Gaussian 16 at Fri Aug 22 16:05:49 2025.
