 Gaussian 16, Revision C.01,
 Gaussian 16:  ES64L-G16RevC.01  3-Jul-2019

 -----------------------------------------
 # sp b3lyp/6-311g** Force nosymm scf=(qc)
 -----------------------------------------

 -------------------
 Title Card Required
 -------------------
 Symbolic Z-matrix:
 Charge =  0 Multiplicity = 2

                          Input orientation:
 ---------------------------------------------------------------------
 Center     Atomic      Atomic             Coordinates (Angstroms)
 Number     Number       Type             X           Y           Z
 ---------------------------------------------------------------------
      1          1           0        0.000000    0.000000    0.000000
      2          1           0       -1.350000    0.000000    0.000000
      3          9           0        1.000000    0.000000    0.000000
 ---------------------------------------------------------------------

 SCF Done:  E(UB3LYP) =  -100.966363591     a.u. after    6 cycles

 Alpha  occ. eigenvalues --  -24.63648  -1.16016  -0.53860  -0.38465  -0.38465
 Alpha  occ. eigenvalues --   -0.37144
 Alpha virt. eigenvalues --    0.09334   0.20127   0.36031   0.93546   0.93546
 Alpha virt. eigenvalues --    0.98718   1.12587   1.12587   1.24139   1.45912
 Alpha virt. eigenvalues --    1.45912   1.54364   2.08529   2.30240   2.57480

  Beta  occ. eigenvalues --  -24.63226  -1.14959  -0.51066  -0.38092  -0.38092
  Beta virt. eigenvalues --   -0.17018   0.11624   0.24885   0.40325   0.93989
  Beta virt. eigenvalues --    0.93989   0.99611   1.21627   1.21627   1.31625
  Beta virt. eigenvalues --    1.51206   1.51206   1.57740   2.22041   2.31514

 Mulliken charges and spin densities:
               1          2
     1  H    0.288312  -0.007734
     2  H    0.035734   0.896974
     3  F   -0.324046   0.110761
 Sum of Mulliken charges =   0.00000   1.00000

 Dipole moment (field-independent basis, Debye):
    X=             -2.2650    Y=             -0.0000    Z=              0.0000  Tot=              2.2650
 Quadrupole moment (field-independent basis, Debye-Ang):
   XX=             -7.6525   YY=             -6.7991   ZZ=             -6.7991
   XY=              0.0000   XZ=              0.0000   YZ=             -0.0000

  Exact polarizability:      13.752       0.000       2.539      -0.000       0.000       2.539
 Approx polarizability:      15.276      -0.000       2.541      -0.000       0.000       2.541

                      1                      2                      3
                      A                      A                      A
 Frequencies --    446.8837               778.3163               778.3163
 Red. masses --      1.0421                 1.0220                 1.0220
 Frc consts  --      0.1226                 0.3648                 0.3648
 IR Inten    --      1.3899                87.8706                87.8706

                      4
                      A
 Frequencies --   2657.5018
 Red. masses --      1.0698
 Frc consts  --      4.4515
 IR Inten    --    145.3276

 - Thermochemistry -
 -------------------
 Temperature   298.150 Kelvin.  Pressure   1.00000 Atm.
 Atom     1 has atomic number  1 and mass   1.00783

 Molecular mass:    21.01405 amu.
 Principal axes and moments of inertia in atomic units:
                           1         2         3
     Eigenvalues --     0.00000  21.53745  21.53745
           X            1.00000  -0.00000   0.00000
           Y            0.00000   1.00000   0.00000
           Z            0.00000   0.00000   1.00000
 This molecule is a prolate symmetric top.
 Rotational symmetry number  1.
 Rotational temperature (Kelvin)      4.02155
 Rotational constant (GHZ):          83.795483
 Zero-point vibrational energy      27879.1 (Joules/Mol)
                                    6.66326 (Kcal/Mol)
 Warning -- explicit consideration of   1 degrees of freedom as
           vibrations may cause significant error
 Vibrational temperatures:    642.97  1119.82  1119.82  3823.55
          (Kelvin)

 Zero-point correction=                           0.010619 (Hartree/Particle)
 Thermal correction to Energy=                    0.013415
 Thermal correction to Enthalpy=                  0.014360
 Thermal correction to Gibbs Free Energy=        -0.008564
 Sum of electronic and zero-point Energies=           -100.955745
 Sum of electronic and thermal Energies=              -100.952948
 Sum of electronic and thermal Enthalpies=            -100.952004
 Sum of electronic and thermal Free Energies=         -100.974927

                     E (Thermal)             CV                S
                      KCal/Mol        Cal/Mol-Kelvin    Cal/Mol-Kelvin
 Total                    8.418              7.711             48.246
 Electronic               0.000              0.000              1.377
 Translational            0.889              2.981             35.068
 Rotational               0.592              1.987             10.544
 Vibrational              6.937              2.743              1.257
 Vibration     1          0.806              1.368              0.805

 Normal termination of Gaussian 16 at Fri Aug 22 16:00:06 2025.
