 Gaussian 16, Revision C.01,
 Gaussian 16:  ES64L-G16RevC.01  3-Jul-2019

 -----------------------------------------
 # sp b3lyp/6-311g** Force nosymm scf=(qc)
 -----------------------------------------

 -------------------
 Title Card Required
 -------------------
 Symbolic Z-matrix:
 Charge =  0 Multiplicity = 2

                          Input orientation:
 ---------------------------------------------------------------------
 Center     Atomic      Atomic             Coordinates (Angstroms)
 Number     Number       Type             X           Y           Z
 ---------------------------------------------------------------------
      1          1           0        0.000000    0.000000    0.000000
      2          1           0       -3.300000    0.000000    0.000000
      3          9           0        1.850000    0.000000    0.000000
 ---------------------------------------------------------------------

 SCF Done:  E(UB3LYP) =  -100.799031295     a.u. after   20 cycles

 Alpha  occ. eigenvalues --  -24.64860  -1.07501  -0.38986  -0.36617  -0.36617
 Alpha  occ. eigenvalues --   -0.33723
 Alpha virt. eigenvalues --   -0.19588   0.19850   0.27463   0.92284   0.95065
 Alpha virt. eigenvalues --    0.95065   1.08088   1.23150   1.23150   1.23726
 Alpha virt. eigenvalues --    1.23726   1.23891   1.62199   2.12068   2.14389

  Beta  occ. eigenvalues --  -24.66896  -1.13133  -0.45730  -0.38610  -0.38610
  Beta virt. eigenvalues --   -0.15086  -0.05435   0.27542   0.39151   0.91642
  Beta virt. eigenvalues --    0.94907   0.94907   1.05923   1.34068   1.34068
  Beta virt. eigenvalues --    1.46670   1.46670   1.46867   1.67741   2.26862

 Mulliken charges and spin densities:
               1          2
     1  H    0.239763   0.642848
     2  H    0.002627   0.997467
     3  F   -0.242389  -0.640315
 Sum of Mulliken charges =   0.00000   1.00000

 Dipole moment (field-independent basis, Debye):
    X=             -2.2374    Y=             -0.0000    Z=              0.0000  Tot=              2.2374
 Quadrupole moment (field-independent basis, Debye-Ang):
   XX=            -10.1710   YY=             -7.4438   ZZ=             -7.4438
   XY=             -0.0000   XZ=              0.0000   YZ=             -0.0000

  Exact polarizability:      25.367      -0.000       2.087       0.000       0.000       2.087
 Approx polarizability:      38.376      -0.000       1.976      -0.000       0.000       1.976

 ******    1 imaginary frequencies (negative Signs) ******

                      1                      2                      3
                      A                      A                      A
 Frequencies --  -1400.9249                57.0910               602.3608
 Red. masses --      1.0590                 1.0526                 1.0262
 Frc consts  --      1.2245                 0.0020                 0.2194
 IR Inten    --    120.3142                 0.8082                52.8552

                      4
                      A
 Frequencies --    602.3608
 Red. masses --      1.0262
 Frc consts  --      0.2194
 IR Inten    --     52.8552

 - Thermochemistry -
 -------------------
 Temperature   298.150 Kelvin.  Pressure   1.00000 Atm.
 Atom     1 has atomic number  1 and mass   1.00783

 Molecular mass:    21.01405 amu.
 Principal axes and moments of inertia in atomic units:
                           1         2         3
     Eigenvalues --     0.00000  99.31457  99.31457
           X            1.00000  -0.00000   0.00000
           Y            0.00000   1.00000   0.00000
           Z            0.00000   0.00000   1.00000
 This molecule is a prolate symmetric top.
 Rotational symmetry number  1.
 Rotational temperature (Kelvin)      0.87212
 Rotational constant (GHZ):          18.171968
    1 imaginary frequencies ignored.
 Zero-point vibrational energy       7547.3 (Joules/Mol)
                                    1.80385 (Kcal/Mol)
 Warning -- explicit consideration of   3 degrees of freedom as
           vibrations may cause significant error
 Vibrational temperatures:     82.14   866.66   866.66
          (Kelvin)

 Zero-point correction=                           0.002875 (Hartree/Particle)
 Thermal correction to Energy=                    0.006372
 Thermal correction to Enthalpy=                  0.007317
 Thermal correction to Gibbs Free Energy=        -0.019041
 Sum of electronic and zero-point Energies=           -100.796157
 Sum of electronic and thermal Energies=              -100.792659
 Sum of electronic and thermal Enthalpies=            -100.791715
 Sum of electronic and thermal Free Energies=         -100.818072

                     E (Thermal)             CV                S
                      KCal/Mol        Cal/Mol-Kelvin    Cal/Mol-Kelvin
 Total                    3.999              8.996             55.473
 Electronic               0.000              0.000              1.377
 Translational            0.889              2.981             35.068
 Rotational               0.592              1.987             13.581
 Vibrational              2.518              4.028              5.447
 Vibration     1          0.596              1.975              4.555
 Vibration     2          0.961              1.027              0.446
 Vibration     3          0.961              1.027              0.446

 Normal termination of Gaussian 16 at Fri Aug 22 16:48:01 2025.
