 Gaussian 16, Revision C.01,
 Gaussian 16:  ES64L-G16RevC.01  3-Jul-2019

 -----------------------------------------
 # sp b3lyp/6-311g** Force nosymm scf=(qc)
 -----------------------------------------

 -------------------
 Title Card Required
 -------------------
 Symbolic Z-matrix:
 Charge =  0 Multiplicity = 2

                          Input orientation:
 ---------------------------------------------------------------------
 Center     Atomic      Atomic             Coordinates (Angstroms)
 Number     Number       Type             X           Y           Z
 ---------------------------------------------------------------------
      1          1           0        0.000000    0.000000    0.000000
      2          1           0       -2.300000    0.000000    0.000000
      3          9           0        1.250000    0.000000    0.000000
 ---------------------------------------------------------------------

 SCF Done:  E(UB3LYP) =  -100.914780508     a.u. after    6 cycles

 Alpha  occ. eigenvalues --  -24.63995  -1.11397  -0.46846  -0.36983  -0.36983
 Alpha  occ. eigenvalues --   -0.35879
 Alpha virt. eigenvalues --   -0.05972   0.24330   0.27831   0.93357   0.93357
 Alpha virt. eigenvalues --    1.01603   1.17480   1.21607   1.21607   1.34203
 Alpha virt. eigenvalues --    1.34652   1.34652   1.72358   2.12166   2.28246

  Beta  occ. eigenvalues --  -24.63903  -1.11163  -0.46435  -0.36898  -0.36898
  Beta virt. eigenvalues --   -0.13147  -0.02808   0.27730   0.35514   0.93349
  Beta virt. eigenvalues --    0.93349   1.01831   1.23839   1.34388   1.34388
  Beta virt. eigenvalues --    1.41952   1.41952   1.47141   1.72574   2.26198

 Mulliken charges and spin densities:
               1          2
     1  H    0.344145  -0.006063
     2  H    0.017163   0.977942
     3  F   -0.361309   0.028121
 Sum of Mulliken charges =  -0.00000   1.00000

 Dipole moment (field-independent basis, Debye):
    X=             -2.5496    Y=              0.0000    Z=              0.0000  Tot=              2.5496
 Quadrupole moment (field-independent basis, Debye-Ang):
   XX=             -8.5580   YY=             -7.1521   ZZ=             -7.1521
   XY=              0.0000   XZ=              0.0000   YZ=             -0.0000

  Exact polarizability:      15.154       0.000       2.334       0.000       0.000       2.334
 Approx polarizability:      19.761       0.000       2.289       0.000       0.000       2.289

 ******    1 imaginary frequencies (negative Signs) ******

                      1                      2                      3
                      A                      A                      A
 Frequencies --   -434.7808               282.6707              1156.1414
 Red. masses --      1.0079                 1.1084                 1.0267
 Frc consts  --      0.1123                 0.0522                 0.8086
 IR Inten    --    110.1146                52.1276               117.8701

                      4
                      A
 Frequencies --   1156.1414
 Red. masses --      1.0267
 Frc consts  --      0.8086
 IR Inten    --    117.8701

 - Thermochemistry -
 -------------------
 Temperature   298.150 Kelvin.  Pressure   1.00000 Atm.
 Atom     1 has atomic number  1 and mass   1.00783

 Molecular mass:    21.01405 amu.
 Principal axes and moments of inertia in atomic units:
                           1         2         3
     Eigenvalues --     0.00000  47.00309  47.00309
           X            1.00000  -0.00000   0.00000
           Y            0.00000   1.00000   0.00000
           Z            0.00000   0.00000   1.00000
 This molecule is a prolate symmetric top.
 Rotational symmetry number  1.
 Rotational temperature (Kelvin)      1.84273
 Rotational constant (GHZ):          38.396222
    1 imaginary frequencies ignored.
 Zero-point vibrational energy      15521.3 (Joules/Mol)
                                    3.70967 (Kcal/Mol)
 Warning -- explicit consideration of   1 degrees of freedom as
           vibrations may cause significant error
 Vibrational temperatures:    406.70  1663.43  1663.43
          (Kelvin)

 Zero-point correction=                           0.005912 (Hartree/Particle)
 Thermal correction to Energy=                    0.008754
 Thermal correction to Enthalpy=                  0.009699
 Thermal correction to Gibbs Free Energy=        -0.014133
 Sum of electronic and zero-point Energies=           -100.908869
 Sum of electronic and thermal Energies=              -100.906026
 Sum of electronic and thermal Enthalpies=            -100.905082
 Sum of electronic and thermal Free Energies=         -100.928913

                     E (Thermal)             CV                S
                      KCal/Mol        Cal/Mol-Kelvin    Cal/Mol-Kelvin
 Total                    5.493              7.144             50.157
 Electronic               0.000              0.000              1.377
 Translational            0.889              2.981             35.068
 Rotational               0.592              1.987             12.095
 Vibrational              4.012              2.176              1.617
 Vibration     1          0.682              1.706              1.517

 Normal termination of Gaussian 16 at Fri Aug 22 16:12:48 2025.
