 Gaussian 16, Revision C.01,
 Gaussian 16:  ES64L-G16RevC.01  3-Jul-2019

 -----------------------------------------
 # sp b3lyp/6-311g** Force nosymm scf=(qc)
 -----------------------------------------

 -------------------
 Title Card Required
 -------------------
 Symbolic Z-matrix:
 Charge =  0 Multiplicity = 2

                          Input orientation:
 ---------------------------------------------------------------------
 Center     Atomic      Atomic             Coordinates (Angstroms)
 Number     Number       Type             X           Y           Z
 ---------------------------------------------------------------------
      1          1           0        0.000000    0.000000    0.000000
      2          1           0       -2.150000    0.000000    0.000000
      3          9           0        4.000000    0.000000    0.000000
 ---------------------------------------------------------------------

 SCF Done:  E(UB3LYP) =  -100.768862634     a.u. after  135 cycles

 Alpha  occ. eigenvalues --  -24.76095  -1.22004  -0.55210  -0.46375  -0.46367
 Alpha  occ. eigenvalues --   -0.32605
 Alpha virt. eigenvalues --   -0.10045   0.26145   0.33747   0.86147   0.91022
 Alpha virt. eigenvalues --    0.91276   1.00924   1.22569   1.25285   1.25286
 Alpha virt. eigenvalues --    1.39588   1.39591   1.47009   2.14064   2.35730

  Beta  occ. eigenvalues --  -24.72941  -1.12933  -0.43215  -0.43205  -0.32574
  Beta virt. eigenvalues --   -0.25864  -0.10111   0.26148   0.33728   0.92524
  Beta virt. eigenvalues --    0.92750   0.95615   1.05069   1.22560   1.25308
  Beta virt. eigenvalues --    1.25310   1.39539   1.39539   1.46986   2.14262

 Mulliken charges and spin densities:
               1          2
     1  H    0.000254  -0.910362
     2  H   -0.000721   0.910417
     3  F    0.000466   0.999945
 Sum of Mulliken charges =   0.00000   1.00000

 Dipole moment (field-independent basis, Debye):
    X=              0.0132    Y=             -0.0000    Z=              0.0001  Tot=              0.0132
 Quadrupole moment (field-independent basis, Debye-Ang):
   XX=             -7.1542   YY=             -7.6336   ZZ=             -6.9264
   XY=             -0.0243   XZ=              0.0785   YZ=             -0.2420

  Exact polarizability:      18.405      -0.025       2.054       0.071      -0.130       2.434
 Approx polarizability:      18.788      -0.016       1.985       0.051      -0.163       2.462

 ******    2 imaginary frequencies (negative Signs) ******

                      1                      2                      3
                      A                      A                      A
 Frequencies --  -1094.1072               -47.7250               432.7920
 Red. masses --      1.0078                 1.1085                 1.0122
 Frc consts  --      0.7108                 0.0015                 0.1117
 IR Inten    --      0.0020                 0.0178                 0.0003

                      4
                      A
 Frequencies --    433.0020
 Red. masses --      1.0122
 Frc consts  --      0.1118
 IR Inten    --      0.0023

 - Thermochemistry -
 -------------------
 Temperature   298.150 Kelvin.  Pressure   1.00000 Atm.
 Atom     1 has atomic number  1 and mass   1.00783

 Molecular mass:    21.01405 amu.
 Principal axes and moments of inertia in atomic units:
                           1         2         3
     Eigenvalues --     0.00000 175.92524 175.92524
           X            1.00000  -0.00000   0.00000
           Y            0.00000   1.00000   0.00000
           Z            0.00000   0.00000   1.00000
 This molecule is a prolate symmetric top.
 Rotational symmetry number  1.
 Rotational temperature (Kelvin)      0.49233
 Rotational constant (GHZ):          10.258569
    2 imaginary frequencies ignored.
 Zero-point vibrational energy       5178.6 (Joules/Mol)
                                    1.23771 (Kcal/Mol)
 Warning -- explicit consideration of   2 degrees of freedom as
           vibrations may cause significant error
 Vibrational temperatures:    622.69   622.99
          (Kelvin)

 Zero-point correction=                           0.001972 (Hartree/Particle)
 Thermal correction to Energy=                    0.004890
 Thermal correction to Enthalpy=                  0.005834
 Thermal correction to Gibbs Free Energy=        -0.019282
 Sum of electronic and zero-point Energies=           -100.766890
 Sum of electronic and thermal Energies=              -100.763972
 Sum of electronic and thermal Enthalpies=            -100.763028
 Sum of electronic and thermal Free Energies=         -100.788144

                     E (Thermal)             CV                S
                      KCal/Mol        Cal/Mol-Kelvin    Cal/Mol-Kelvin
 Total                    3.069              7.765             52.862
 Electronic               0.000              0.000              1.377
 Translational            0.889              2.981             35.068
 Rotational               0.592              1.987             14.718
 Vibrational              1.587              2.797              1.698
 Vibration     1          0.794              1.399              0.850
 Vibration     2          0.794              1.398              0.849

 Normal termination of Gaussian 16 at Sat Aug 23 01:53:20 2025.
