 Gaussian 16, Revision C.01,
 Gaussian 16:  ES64L-G16RevC.01  3-Jul-2019

 -----------------------------------------
 # sp b3lyp/6-311g** Force nosymm scf=(qc)
 -----------------------------------------

 -------------------
 Title Card Required
 -------------------
 Symbolic Z-matrix:
 Charge =  0 Multiplicity = 2

                          Input orientation:
 ---------------------------------------------------------------------
 Center     Atomic      Atomic             Coordinates (Angstroms)
 Number     Number       Type             X           Y           Z
 ---------------------------------------------------------------------
      1          1           0        0.000000    0.000000    0.000000
      2          1           0       -3.000000    0.000000    0.000000
      3          9           0        2.150000    0.000000    0.000000
 ---------------------------------------------------------------------

 SCF Done:  E(UB3LYP) =  -100.778040785     a.u. after   18 cycles

 Alpha  occ. eigenvalues --  -24.66562  -1.08263  -0.37983  -0.37983  -0.37227
 Alpha  occ. eigenvalues --   -0.33354
 Alpha virt. eigenvalues --   -0.21518   0.21310   0.27664   0.91388   0.95780
 Alpha virt. eigenvalues --    0.95780   1.08494   1.21539   1.21539   1.23884
 Alpha virt. eigenvalues --    1.23884   1.24456   1.44917   2.12587   2.14615

  Beta  occ. eigenvalues --  -24.69116  -1.15451  -0.48153  -0.40511  -0.40511
  Beta virt. eigenvalues --   -0.13286  -0.04831   0.31596   0.39418   0.88891
  Beta virt. eigenvalues --    0.94796   0.94796   1.06467   1.37020   1.37020
  Beta virt. eigenvalues --    1.47241   1.47241   1.47629   1.54184   2.32428

 Mulliken charges and spin densities:
               1          2
     1  H    0.155867   0.808170
     2  H    0.004472   0.995636
     3  F   -0.160340  -0.803805
 Sum of Mulliken charges =   0.00000   1.00000

 Dipole moment (field-independent basis, Debye):
    X=             -1.7861    Y=             -0.0000    Z=              0.0000  Tot=              1.7861
 Quadrupole moment (field-independent basis, Debye-Ang):
   XX=             -9.9074   YY=             -7.5040   ZZ=             -7.5040
   XY=             -0.0000   XZ=              0.0000   YZ=             -0.0000

  Exact polarizability:      32.681      -0.000       2.044       0.000      -0.000       2.044
 Approx polarizability:      44.779      -0.000       1.934       0.000      -0.000       1.934

 ******    1 imaginary frequencies (negative Signs) ******

                      1                      2                      3
                      A                      A                      A
 Frequencies --   -899.5876               135.6610               376.1805
 Red. masses --      1.0617                 1.0499                 1.0224
 Frc consts  --      0.5062                 0.0114                 0.0852
 IR Inten    --     82.0907                 2.2516                22.0132

                      4
                      A
 Frequencies --    376.1805
 Red. masses --      1.0224
 Frc consts  --      0.0852
 IR Inten    --     22.0132

 - Thermochemistry -
 -------------------
 Temperature   298.150 Kelvin.  Pressure   1.00000 Atm.
 Atom     1 has atomic number  1 and mass   1.00783

 Molecular mass:    21.01405 amu.
 Principal axes and moments of inertia in atomic units:
                           1         2         3
     Eigenvalues --     0.00000 102.89290 102.89290
           X            1.00000  -0.00000   0.00000
           Y            0.00000   1.00000   0.00000
           Z            0.00000   0.00000   1.00000
 This molecule is a prolate symmetric top.
 Rotational symmetry number  1.
 Rotational temperature (Kelvin)      0.84179
 Rotational constant (GHZ):          17.539998
    1 imaginary frequencies ignored.
 Zero-point vibrational energy       5311.6 (Joules/Mol)
                                    1.26949 (Kcal/Mol)
 Warning -- explicit consideration of   3 degrees of freedom as
           vibrations may cause significant error
 Vibrational temperatures:    195.19   541.24   541.24
          (Kelvin)

 Zero-point correction=                           0.002023 (Hartree/Particle)
 Thermal correction to Energy=                    0.005719
 Thermal correction to Enthalpy=                  0.006663
 Thermal correction to Gibbs Free Energy=        -0.019503
 Sum of electronic and zero-point Energies=           -100.776018
 Sum of electronic and thermal Energies=              -100.772322
 Sum of electronic and thermal Enthalpies=            -100.771378
 Sum of electronic and thermal Free Energies=         -100.797544

                     E (Thermal)             CV                S
                      KCal/Mol        Cal/Mol-Kelvin    Cal/Mol-Kelvin
 Total                    3.589              9.927             55.070
 Electronic               0.000              0.000              1.377
 Translational            0.889              2.981             35.068
 Rotational               0.592              1.987             13.652
 Vibrational              2.107              4.959              4.973
 Vibration     1          0.613              1.918              2.864
 Vibration     2          0.747              1.521              1.054
 Vibration     3          0.747              1.521              1.054

 Normal termination of Gaussian 16 at Fri Aug 22 17:08:39 2025.
