 Gaussian 16, Revision C.01,
 Gaussian 16:  ES64L-G16RevC.01  3-Jul-2019

 -----------------------------------------
 # sp b3lyp/6-311g** Force nosymm scf=(qc)
 -----------------------------------------

 -------------------
 Title Card Required
 -------------------
 Symbolic Z-matrix:
 Charge =  0 Multiplicity = 2

                          Input orientation:
 ---------------------------------------------------------------------
 Center     Atomic      Atomic             Coordinates (Angstroms)
 Number     Number       Type             X           Y           Z
 ---------------------------------------------------------------------
      1          1           0        0.000000    0.000000    0.000000
      2          1           0       -3.200000    0.000000    0.000000
      3          9           0        3.750000    0.000000    0.000000
 ---------------------------------------------------------------------

 SCF Done:  E(UB3LYP) =  -100.759192808     a.u. after   33 cycles

 Alpha  occ. eigenvalues --  -24.75715  -1.21654  -0.54839  -0.46044  -0.46044
 Alpha  occ. eigenvalues --   -0.32333
 Alpha virt. eigenvalues --   -0.07340   0.24712   0.36874   0.86956   0.91275
 Alpha virt. eigenvalues --    0.91275   1.01326   1.25186   1.25186   1.25589
 Alpha virt. eigenvalues --    1.44714   1.44906   1.44906   2.15506   2.40246

  Beta  occ. eigenvalues --  -24.72580  -1.12642  -0.42901  -0.42901  -0.32615
  Beta virt. eigenvalues --   -0.25652  -0.07013   0.24520   0.37377   0.92770
  Beta virt. eigenvalues --    0.92770   0.96239   1.05414   1.24870   1.24870
  Beta virt. eigenvalues --    1.25252   1.45225   1.45415   1.45415   2.15604

 Mulliken charges and spin densities:
               1          2
     1  H    0.005224  -0.989397
     2  H    0.000239   0.995459
     3  F   -0.005462   0.993938
 Sum of Mulliken charges =  -0.00000   1.00000

 Dipole moment (field-independent basis, Debye):
    X=             -0.1093    Y=              0.0000    Z=              0.0000  Tot=              0.1093
 Quadrupole moment (field-independent basis, Debye-Ang):
   XX=             -7.0538   YY=             -7.6295   ZZ=             -7.6295
   XY=             -0.0000   XZ=              0.0000   YZ=             -0.0000

  Exact polarizability:      17.926       0.000       2.029      -0.000      -0.000       2.029
 Approx polarizability:      13.289      -0.000       1.934       0.000      -0.000       1.934

 ******    2 imaginary frequencies (negative Signs) ******

                      1                      2                      3
                      A                      A                      A
 Frequencies --   -275.1262               -96.4100                95.0186
 Red. masses --      1.0103                 1.1056                 1.0161
 Frc consts  --      0.0451                 0.0061                 0.0054
 IR Inten    --      2.6742                 1.5527                 0.0254

                      4
                      A
 Frequencies --     95.0186
 Red. masses --      1.0161
 Frc consts  --      0.0054
 IR Inten    --      0.0254

 - Thermochemistry -
 -------------------
 Temperature   298.150 Kelvin.  Pressure   1.00000 Atm.
 Atom     1 has atomic number  1 and mass   1.00783

 Molecular mass:    21.01405 amu.
 Principal axes and moments of inertia in atomic units:
                           1         2         3
     Eigenvalues --     0.00000 204.69040 204.69040
           X            1.00000  -0.00000   0.00000
           Y            0.00000   1.00000   0.00000
           Z            0.00000   0.00000   1.00000
 This molecule is a prolate symmetric top.
 Rotational symmetry number  1.
 Rotational temperature (Kelvin)      0.42315
 Rotational constant (GHZ):           8.816931
    2 imaginary frequencies ignored.
 Zero-point vibrational energy       1136.7 (Joules/Mol)
                                    0.27167 (Kcal/Mol)
 Warning -- explicit consideration of   2 degrees of freedom as
           vibrations may cause significant error
 Vibrational temperatures:    136.71   136.71
          (Kelvin)

 Zero-point correction=                           0.000433 (Hartree/Particle)
 Thermal correction to Energy=                    0.004282
 Thermal correction to Enthalpy=                  0.005226
 Thermal correction to Gibbs Free Energy=        -0.022603
 Sum of electronic and zero-point Energies=           -100.758760
 Sum of electronic and thermal Energies=              -100.754911
 Sum of electronic and thermal Enthalpies=            -100.753967
 Sum of electronic and thermal Free Energies=         -100.781796

                     E (Thermal)             CV                S
                      KCal/Mol        Cal/Mol-Kelvin    Cal/Mol-Kelvin
 Total                    2.687              8.874             58.572
 Electronic               0.000              0.000              1.377
 Translational            0.889              2.981             35.068
 Rotational               0.592              1.987             15.019
 Vibrational              1.206              3.905              7.108
 Vibration     1          0.603              1.953              3.554
 Vibration     2          0.603              1.953              3.554

 Normal termination of Gaussian 16 at Sat Aug 23 00:27:14 2025.
