 Gaussian 16, Revision C.01,
 Gaussian 16:  ES64L-G16RevC.01  3-Jul-2019

 -----------------------------------------
 # sp b3lyp/6-311g** Force nosymm scf=(qc)
 -----------------------------------------

 -------------------
 Title Card Required
 -------------------
 Symbolic Z-matrix:
 Charge =  0 Multiplicity = 2

                          Input orientation:
 ---------------------------------------------------------------------
 Center     Atomic      Atomic             Coordinates (Angstroms)
 Number     Number       Type             X           Y           Z
 ---------------------------------------------------------------------
      1          1           0        0.000000    0.000000    0.000000
      2          1           0       -3.100000    0.000000    0.000000
      3          9           0        2.050000    0.000000    0.000000
 ---------------------------------------------------------------------

 SCF Done:  E(UB3LYP) =  -100.783475176     a.u. after   19 cycles

 Alpha  occ. eigenvalues --  -24.65989  -1.07943  -0.37723  -0.37524  -0.37524
 Alpha  occ. eigenvalues --   -0.33502
 Alpha virt. eigenvalues --   -0.20948   0.20761   0.27683   0.90624   0.95691
 Alpha virt. eigenvalues --    0.95691   1.08368   1.21756   1.21756   1.23838
 Alpha virt. eigenvalues --    1.23838   1.24232   1.50561   2.12409   2.14453

  Beta  occ. eigenvalues --  -24.68420  -1.14755  -0.47417  -0.39924  -0.39924
  Beta virt. eigenvalues --   -0.13899  -0.05007   0.30282   0.39402   0.88991
  Beta virt. eigenvalues --    0.94931   0.94931   1.06164   1.35975   1.35975
  Beta virt. eigenvalues --    1.47048   1.47048   1.47430   1.58428   2.30702

 Mulliken charges and spin densities:
               1          2
     1  H    0.180220   0.768344
     2  H    0.003725   0.996383
     3  F   -0.183945  -0.764727
 Sum of Mulliken charges =   0.00000   1.00000

 Dipole moment (field-independent basis, Debye):
    X=             -1.9260    Y=              0.0000    Z=             -0.0000  Tot=              1.9260
 Quadrupole moment (field-independent basis, Debye-Ang):
   XX=            -10.0093   YY=             -7.4868   ZZ=             -7.4868
   XY=             -0.0000   XZ=             -0.0000   YZ=              0.0000

  Exact polarizability:      29.948      -0.000       2.055      -0.000       0.000       2.055
 Approx polarizability:      42.135      -0.000       1.943      -0.000      -0.000       1.943

 ******    1 imaginary frequencies (negative Signs) ******

                      1                      2                      3
                      A                      A                      A
 Frequencies --  -1037.1197               107.5816               438.5796
 Red. masses --      1.0603                 1.0513                 1.0236
 Frc consts  --      0.6719                 0.0072                 0.1160
 IR Inten    --     95.4783                 1.6067                29.6272

                      4
                      A
 Frequencies --    438.5796
 Red. masses --      1.0236
 Frc consts  --      0.1160
 IR Inten    --     29.6272

 - Thermochemistry -
 -------------------
 Temperature   298.150 Kelvin.  Pressure   1.00000 Atm.
 Atom     1 has atomic number  1 and mass   1.00783

 Molecular mass:    21.01405 amu.
 Principal axes and moments of inertia in atomic units:
                           1         2         3
     Eigenvalues --     0.00000 101.63159 101.63159
           X            1.00000  -0.00000   0.00000
           Y            0.00000   1.00000   0.00000
           Z            0.00000   0.00000   1.00000
 This molecule is a prolate symmetric top.
 Rotational symmetry number  1.
 Rotational temperature (Kelvin)      0.85223
 Rotational constant (GHZ):          17.757679
    1 imaginary frequencies ignored.
 Zero-point vibrational energy       5890.1 (Joules/Mol)
                                    1.40776 (Kcal/Mol)
 Warning -- explicit consideration of   3 degrees of freedom as
           vibrations may cause significant error
 Vibrational temperatures:    154.79   631.02   631.02
          (Kelvin)

 Zero-point correction=                           0.002243 (Hartree/Particle)
 Thermal correction to Energy=                    0.005871
 Thermal correction to Enthalpy=                  0.006816
 Thermal correction to Gibbs Free Energy=        -0.019339
 Sum of electronic and zero-point Energies=           -100.781232
 Sum of electronic and thermal Energies=              -100.777604
 Sum of electronic and thermal Enthalpies=            -100.776660
 Sum of electronic and thermal Free Energies=         -100.802814

                     E (Thermal)             CV                S
                      KCal/Mol        Cal/Mol-Kelvin    Cal/Mol-Kelvin
 Total                    3.684              9.683             55.047
 Electronic               0.000              0.000              1.377
 Translational            0.889              2.981             35.068
 Rotational               0.592              1.987             13.627
 Vibrational              2.203              4.715              4.974
 Vibration     1          0.606              1.943              3.312
 Vibration     2          0.799              1.386              0.831
 Vibration     3          0.799              1.386              0.831

 Normal termination of Gaussian 16 at Fri Aug 22 17:01:16 2025.
