 Gaussian 16, Revision C.01,
 Gaussian 16:  ES64L-G16RevC.01  3-Jul-2019

 -----------------------------------------
 # sp b3lyp/6-311g** Force nosymm scf=(qc)
 -----------------------------------------

 -------------------
 Title Card Required
 -------------------
 Symbolic Z-matrix:
 Charge =  0 Multiplicity = 2

                          Input orientation:
 ---------------------------------------------------------------------
 Center     Atomic      Atomic             Coordinates (Angstroms)
 Number     Number       Type             X           Y           Z
 ---------------------------------------------------------------------
      1          1           0        0.000000    0.000000    0.000000
      2          1           0       -3.750000    0.000000    0.000000
      3          9           0        2.200000    0.000000    0.000000
 ---------------------------------------------------------------------

 SCF Done:  E(UB3LYP) =  -100.776165779     a.u. after   16 cycles

 Alpha  occ. eigenvalues --  -24.67105  -1.08641  -0.38428  -0.38428  -0.36780
 Alpha  occ. eigenvalues --   -0.33014
 Alpha virt. eigenvalues --   -0.21930   0.20603   0.27598   0.91300   0.95602
 Alpha virt. eigenvalues --    0.95602   1.08170   1.21505   1.21505   1.24457
 Alpha virt. eigenvalues --    1.24457   1.24464   1.42050   2.10258   2.15784

  Beta  occ. eigenvalues --  -24.69726  -1.16037  -0.48782  -0.41027  -0.41027
  Beta virt. eigenvalues --   -0.12503  -0.04559   0.30867   0.40119   0.88374
  Beta virt. eigenvalues --    0.94520   0.94520   1.05975   1.37584   1.37584
  Beta virt. eigenvalues --    1.47954   1.47954   1.48096   1.51883   2.32077

 Mulliken charges and spin densities:
               1          2
     1  H    0.144610   0.826251
     2  H    0.000587   0.999426
     3  F   -0.145197  -0.825677
 Sum of Mulliken charges =   0.00000   1.00000

 Dipole moment (field-independent basis, Debye):
    X=             -1.6105    Y=              0.0000    Z=              0.0000  Tot=              1.6105
 Quadrupole moment (field-independent basis, Debye-Ang):
   XX=             -9.8744   YY=             -7.5182   ZZ=             -7.5182
   XY=              0.0000   XZ=              0.0000   YZ=              0.0000

  Exact polarizability:      27.660       0.000       2.041      -0.000      -0.000       2.041
 Approx polarizability:      38.677      -0.000       1.929      -0.000       0.000       1.929

 ******    1 imaginary frequencies (negative Signs) ******

                      1                      2                      3
                      A                      A                      A
 Frequencies --   -855.4542                53.8539               358.8127
 Red. masses --      1.0589                 1.0526                 1.0255
 Frc consts  --      0.4566                 0.0018                 0.0778
 IR Inten    --    102.3454                 0.0570                20.0898

                      4
                      A
 Frequencies --    358.8127
 Red. masses --      1.0255
 Frc consts  --      0.0778
 IR Inten    --     20.0898

 - Thermochemistry -
 -------------------
 Temperature   298.150 Kelvin.  Pressure   1.00000 Atm.
 Atom     1 has atomic number  1 and mass   1.00783

 Molecular mass:    21.01405 amu.
 Principal axes and moments of inertia in atomic units:
                           1         2         3
     Eigenvalues --     0.00000 133.36812 133.36812
           X            1.00000  -0.00000   0.00000
           Y            0.00000   1.00000   0.00000
           Z            0.00000   0.00000   1.00000
 This molecule is a prolate symmetric top.
 Rotational symmetry number  1.
 Rotational temperature (Kelvin)      0.64943
 Rotational constant (GHZ):          13.532029
    1 imaginary frequencies ignored.
 Zero-point vibrational energy       4614.5 (Joules/Mol)
                                    1.10289 (Kcal/Mol)
 Warning -- explicit consideration of   3 degrees of freedom as
           vibrations may cause significant error
 Vibrational temperatures:     77.48   516.25   516.25
          (Kelvin)

 Zero-point correction=                           0.001758 (Hartree/Particle)
 Thermal correction to Energy=                    0.005648
 Thermal correction to Enthalpy=                  0.006592
 Thermal correction to Gibbs Free Energy=        -0.020746
 Sum of electronic and zero-point Energies=           -100.774408
 Sum of electronic and thermal Energies=              -100.770518
 Sum of electronic and thermal Enthalpies=            -100.769573
 Sum of electronic and thermal Free Energies=         -100.796912

                     E (Thermal)             CV                S
                      KCal/Mol        Cal/Mol-Kelvin    Cal/Mol-Kelvin
 Total                    3.544             10.058             57.538
 Electronic               0.000              0.000              1.377
 Translational            0.889              2.981             35.068
 Rotational               0.592              1.987             14.167
 Vibrational              2.063              5.090              6.925
 Vibration     1          0.596              1.976              4.671
 Vibration     2          0.734              1.557              1.127
 Vibration     3          0.734              1.557              1.127

 Normal termination of Gaussian 16 at Fri Aug 22 17:13:18 2025.
