 Gaussian 16, Revision C.01,
 Gaussian 16:  ES64L-G16RevC.01  3-Jul-2019

 -----------------------------------------
 # sp b3lyp/6-311g** Force nosymm scf=(qc)
 -----------------------------------------

 -------------------
 Title Card Required
 -------------------
 Symbolic Z-matrix:
 Charge =  0 Multiplicity = 2

                          Input orientation:
 ---------------------------------------------------------------------
 Center     Atomic      Atomic             Coordinates (Angstroms)
 Number     Number       Type             X           Y           Z
 ---------------------------------------------------------------------
      1          1           0        0.000000    0.000000    0.000000
      2          1           0       -2.200000    0.000000    0.000000
      3          9           0        1.850000    0.000000    0.000000
 ---------------------------------------------------------------------

 SCF Done:  E(UB3LYP) =  -100.806571803     a.u. after   18 cycles

 Alpha  occ. eigenvalues --  -24.66754  -1.13032  -0.45748  -0.38477  -0.38477
 Alpha  occ. eigenvalues --   -0.36188
 Alpha virt. eigenvalues --   -0.13987   0.23854   0.29754   0.91734   0.95063
 Alpha virt. eigenvalues --    0.95063   1.05858   1.21583   1.21583   1.27312
 Alpha virt. eigenvalues --    1.33911   1.33911   1.66863   2.11407   2.27705

  Beta  occ. eigenvalues --  -24.64679  -1.07293  -0.38488  -0.36446  -0.36446
  Beta virt. eigenvalues --   -0.20134  -0.10787   0.25254   0.33048   0.93530
  Beta virt. eigenvalues --    0.95312   0.95312   1.08639   1.23987   1.23987
  Beta virt. eigenvalues --    1.38288   1.38288   1.42094   1.62404   2.12552

 Mulliken charges and spin densities:
               1          2
     1  H    0.201827  -0.588654
     2  H    0.035160   0.936886
     3  F   -0.236987   0.651768
 Sum of Mulliken charges =   0.00000   1.00000

 Dipole moment (field-independent basis, Debye):
    X=             -2.5221    Y=             -0.0000    Z=             -0.0000  Tot=              2.5221
 Quadrupole moment (field-independent basis, Debye-Ang):
   XX=             -9.1149   YY=             -7.4915   ZZ=             -7.4915
   XY=             -0.0000   XZ=             -0.0000   YZ=              0.0000

  Exact polarizability:      40.921      -0.000       2.092      -0.000       0.000       2.092
 Approx polarizability:      50.335      -0.000       1.991      -0.000      -0.000       1.991

 ******    2 imaginary frequencies (negative Signs) ******

                      1                      2                      3
                      A                      A                      A
 Frequencies --  -1570.6840              -518.1475               656.5358
 Red. masses --      1.0369                 1.0753                 1.0202
 Frc consts  --      1.5072                 0.1701                 0.2591
 IR Inten    --     92.2125                21.2925                29.9680

                      4
                      A
 Frequencies --    656.5358
 Red. masses --      1.0202
 Frc consts  --      0.2591
 IR Inten    --     29.9680

 - Thermochemistry -
 -------------------
 Temperature   298.150 Kelvin.  Pressure   1.00000 Atm.
 Atom     1 has atomic number  1 and mass   1.00783

 Molecular mass:    21.01405 amu.
 Principal axes and moments of inertia in atomic units:
                           1         2         3
     Eigenvalues --     0.00000  65.34190  65.34190
           X            1.00000  -0.00000   0.00000
           Y            0.00000   1.00000   0.00000
           Z            0.00000   0.00000   1.00000
 This molecule is a prolate symmetric top.
 Rotational symmetry number  1.
 Rotational temperature (Kelvin)      1.32555
 Rotational constant (GHZ):          27.619969
    2 imaginary frequencies ignored.
 Zero-point vibrational energy       7853.9 (Joules/Mol)
                                    1.87713 (Kcal/Mol)
 Vibrational temperatures:    944.61   944.61
          (Kelvin)

 Zero-point correction=                           0.002991 (Hartree/Particle)
 Thermal correction to Energy=                    0.005615
 Thermal correction to Enthalpy=                  0.006559
 Thermal correction to Gibbs Free Energy=        -0.017159
 Sum of electronic and zero-point Energies=           -100.803580
 Sum of electronic and thermal Energies=              -100.800957
 Sum of electronic and thermal Enthalpies=            -100.800013
 Sum of electronic and thermal Free Energies=         -100.823731

                     E (Thermal)             CV                S
                      KCal/Mol        Cal/Mol-Kelvin    Cal/Mol-Kelvin
 Total                    3.523              6.797             49.919
 Electronic               0.000              0.000              1.377
 Translational            0.889              2.981             35.068
 Rotational               0.592              1.987             12.749
 Vibrational              2.042              1.829              0.724

 Normal termination of Gaussian 16 at Fri Aug 22 16:46:55 2025.
