 Gaussian 16, Revision C.01,
 Gaussian 16:  ES64L-G16RevC.01  3-Jul-2019

 -----------------------------------------
 # sp b3lyp/6-311g** Force nosymm scf=(qc)
 -----------------------------------------

 -------------------
 Title Card Required
 -------------------
 Symbolic Z-matrix:
 Charge =  0 Multiplicity = 2

                          Input orientation:
 ---------------------------------------------------------------------
 Center     Atomic      Atomic             Coordinates (Angstroms)
 Number     Number       Type             X           Y           Z
 ---------------------------------------------------------------------
      1          1           0        0.000000    0.000000    0.000000
      2          1           0       -2.350000    0.000000    0.000000
      3          9           0        3.750000    0.000000    0.000000
 ---------------------------------------------------------------------

 SCF Done:  E(UB3LYP) =  -100.764639757     a.u. after   28 cycles

 Alpha  occ. eigenvalues --  -24.75775  -1.21710  -0.54899  -0.46096  -0.46096
 Alpha  occ. eigenvalues --   -0.32671
 Alpha virt. eigenvalues --   -0.09806   0.25892   0.34111   0.86934   0.91231
 Alpha virt. eigenvalues --    0.91231   1.01283   1.25060   1.25060   1.25915
 Alpha virt. eigenvalues --    1.40614   1.40614   1.43723   2.15202   2.35826

  Beta  occ. eigenvalues --  -24.72638  -1.12691  -0.42952  -0.42952  -0.32825
  Beta virt. eigenvalues --   -0.25699  -0.09544   0.25722   0.34501   0.92727
  Beta virt. eigenvalues --    0.92727   0.96238   1.05385   1.24884   1.24884
  Beta virt. eigenvalues --    1.25730   1.40998   1.40998   1.44078   2.15477

 Mulliken charges and spin densities:
               1          2
     1  H    0.002817  -0.947148
     2  H    0.001942   0.952586
     3  F   -0.004759   0.994562
 Sum of Mulliken charges =   0.00000   1.00000

 Dipole moment (field-independent basis, Debye):
    X=             -0.1133    Y=             -0.0000    Z=             -0.0000  Tot=              0.1133
 Quadrupole moment (field-independent basis, Debye-Ang):
   XX=             -6.7397   YY=             -7.6817   ZZ=             -7.6817
   XY=             -0.0000   XZ=             -0.0000   YZ=              0.0000

  Exact polarizability:      28.181      -0.000       2.015      -0.000       0.000       2.015
 Approx polarizability:      21.513      -0.000       1.930      -0.000       0.000       1.930

 ******    2 imaginary frequencies (negative Signs) ******

                      1                      2                      3
                      A                      A                      A
 Frequencies --   -822.0790              -101.0485               310.4418
 Red. masses --      1.0079                 1.1085                 1.0133
 Frc consts  --      0.4013                 0.0067                 0.0575
 IR Inten    --      2.0492                 2.2516                 0.0040

                      4
                      A
 Frequencies --    310.4418
 Red. masses --      1.0133
 Frc consts  --      0.0575
 IR Inten    --      0.0040

 - Thermochemistry -
 -------------------
 Temperature   298.150 Kelvin.  Pressure   1.00000 Atm.
 Atom     1 has atomic number  1 and mass   1.00783

 Molecular mass:    21.01405 amu.
 Principal axes and moments of inertia in atomic units:
                           1         2         3
     Eigenvalues --     0.00000 167.78341 167.78341
           X            1.00000  -0.00000   0.00000
           Y            0.00000   1.00000   0.00000
           Z            0.00000   0.00000   1.00000
 This molecule is a prolate symmetric top.
 Rotational symmetry number  1.
 Rotational temperature (Kelvin)      0.51622
 Rotational constant (GHZ):          10.756375
    2 imaginary frequencies ignored.
 Zero-point vibrational energy       3713.7 (Joules/Mol)
                                    0.88760 (Kcal/Mol)
 Warning -- explicit consideration of   2 degrees of freedom as
           vibrations may cause significant error
 Vibrational temperatures:    446.66   446.66
          (Kelvin)

 Zero-point correction=                           0.001414 (Hartree/Particle)
 Thermal correction to Energy=                    0.004589
 Thermal correction to Enthalpy=                  0.005534
 Thermal correction to Gibbs Free Energy=        -0.020023
 Sum of electronic and zero-point Energies=           -100.763225
 Sum of electronic and thermal Energies=              -100.760050
 Sum of electronic and thermal Enthalpies=            -100.759106
 Sum of electronic and thermal Free Energies=         -100.784663

                     E (Thermal)             CV                S
                      KCal/Mol        Cal/Mol-Kelvin    Cal/Mol-Kelvin
 Total                    2.880              8.276             53.789
 Electronic               0.000              0.000              1.377
 Translational            0.889              2.981             35.068
 Rotational               0.592              1.987             14.623
 Vibrational              1.399              3.308              2.720
 Vibration     1          0.699              1.654              1.360
 Vibration     2          0.699              1.654              1.360

 Normal termination of Gaussian 16 at Sat Aug 23 00:25:52 2025.
