 Gaussian 16, Revision C.01,
 Gaussian 16:  ES64L-G16RevC.01  3-Jul-2019

 -----------------------------------------
 # sp b3lyp/6-311g** Force nosymm scf=(qc)
 -----------------------------------------

 -------------------
 Title Card Required
 -------------------
 Symbolic Z-matrix:
 Charge =  0 Multiplicity = 2

                          Input orientation:
 ---------------------------------------------------------------------
 Center     Atomic      Atomic             Coordinates (Angstroms)
 Number     Number       Type             X           Y           Z
 ---------------------------------------------------------------------
      1          1           0        0.000000    0.000000    0.000000
      2          1           0       -0.850000    0.000000    0.000000
      3          9           0        0.750000    0.000000    0.000000
 ---------------------------------------------------------------------

 SCF Done:  E(UB3LYP) =  -100.860968541     a.u. after    6 cycles

 Alpha  occ. eigenvalues --  -24.65818  -1.29449  -0.64995  -0.43497  -0.43497
 Alpha  occ. eigenvalues --   -0.33209
 Alpha virt. eigenvalues --    0.16489   0.18434   0.70381   0.87741   0.87741
 Alpha virt. eigenvalues --    0.93796   1.08889   1.08889   1.45251   1.74408
 Alpha virt. eigenvalues --    1.74408   1.75896   2.18116   2.37589   3.77399

  Beta  occ. eigenvalues --  -24.65101  -1.27416  -0.60971  -0.42884  -0.42884
  Beta virt. eigenvalues --   -0.13804   0.17346   0.23263   0.75692   0.89605
  Beta virt. eigenvalues --    0.89605   0.95466   1.14798   1.14798   1.46740
  Beta virt. eigenvalues --    1.80034   1.80034   1.83217   2.24321   2.47842

 Mulliken charges and spin densities:
               1          2
     1  H    0.261264  -0.017987
     2  H   -0.041292   0.885237
     3  F   -0.219972   0.132750
 Sum of Mulliken charges =   0.00000   1.00000

 Dipole moment (field-independent basis, Debye):
    X=             -1.1967    Y=              0.0000    Z=              0.0000  Tot=              1.1967
 Quadrupole moment (field-independent basis, Debye-Ang):
   XX=             -7.4849   YY=             -6.4901   ZZ=             -6.4901
   XY=              0.0000   XZ=              0.0000   YZ=             -0.0000

  Exact polarizability:       9.215       0.000       2.551      -0.000       0.000       2.551
 Approx polarizability:       9.460      -0.000       2.617       0.000       0.000       2.617

 ******    2 imaginary frequencies (negative Signs) ******

                      1                      2                      3
                      A                      A                      A
 Frequencies --  -3134.2902             -3134.2902              2673.5758
 Red. masses --      1.0195                 1.0195                 1.0602
 Frc consts  --      5.9011                 5.9011                 4.4650
 IR Inten    --    102.6711               102.6711               126.2012

                      4
                      A
 Frequencies --   7516.0900
 Red. masses --      1.0514
 Frc consts  --     34.9940
 IR Inten    --     51.8664

 - Thermochemistry -
 -------------------
 Temperature   298.150 Kelvin.  Pressure   1.00000 Atm.
 Atom     1 has atomic number  1 and mass   1.00783

 Molecular mass:    21.01405 amu.
 Principal axes and moments of inertia in atomic units:
                           1         2         3
     Eigenvalues --     0.00000  10.28468  10.28468
           X            1.00000  -0.00000   0.00000
           Y            0.00000   1.00000   0.00000
           Z            0.00000   0.00000   1.00000
 This molecule is a prolate symmetric top.
 Rotational symmetry number  1.
 Rotational temperature (Kelvin)      8.42164
 Rotational constant (GHZ):         175.478553
    2 imaginary frequencies ignored.
 Zero-point vibrational energy      60947.7 (Joules/Mol)
                                   14.56686 (Kcal/Mol)
 Vibrational temperatures:   3846.68 10813.98
          (Kelvin)

 Zero-point correction=                           0.023214 (Hartree/Particle)
 Thermal correction to Energy=                    0.025574
 Thermal correction to Enthalpy=                  0.026518
 Thermal correction to Gibbs Free Energy=         0.004890
 Sum of electronic and zero-point Energies=           -100.837755
 Sum of electronic and thermal Energies=              -100.835394
 Sum of electronic and thermal Enthalpies=            -100.834450
 Sum of electronic and thermal Free Energies=         -100.856078

                     E (Thermal)             CV                S
                      KCal/Mol        Cal/Mol-Kelvin    Cal/Mol-Kelvin
 Total                   16.048              4.969             45.521
 Electronic               0.000              0.000              1.377
 Translational            0.889              2.981             35.068
 Rotational               0.592              1.987              9.075
 Vibrational             14.567              0.001              0.000

 Normal termination of Gaussian 16 at Fri Aug 22 15:47:57 2025.
