 Gaussian 16, Revision C.01,
 Gaussian 16:  ES64L-G16RevC.01  3-Jul-2019

 -----------------------------------------
 # sp b3lyp/6-311g** Force nosymm scf=(qc)
 -----------------------------------------

 -------------------
 Title Card Required
 -------------------
 Symbolic Z-matrix:
 Charge =  0 Multiplicity = 2

                          Input orientation:
 ---------------------------------------------------------------------
 Center     Atomic      Atomic             Coordinates (Angstroms)
 Number     Number       Type             X           Y           Z
 ---------------------------------------------------------------------
      1          1           0        0.000000    0.000000    0.000000
      2          1           0       -3.950000    0.000000    0.000000
      3          9           0        3.550000    0.000000    0.000000
 ---------------------------------------------------------------------

 SCF Done:  E(UB3LYP) =  -100.758794545     a.u. after   28 cycles

 Alpha  occ. eigenvalues --  -24.75458  -1.21416  -0.54581  -0.45826  -0.45826
 Alpha  occ. eigenvalues --   -0.32282
 Alpha virt. eigenvalues --   -0.06056   0.24145   0.37453   0.87437   0.91437
 Alpha virt. eigenvalues --    0.91437   1.01692   1.25213   1.25213   1.25237
 Alpha virt. eigenvalues --    1.46817   1.46817   1.47534   2.14564   2.42730

  Beta  occ. eigenvalues --  -24.72339  -1.12453  -0.42701  -0.42701  -0.32751
  Beta virt. eigenvalues --   -0.25518  -0.05860   0.23864   0.38193   0.92928
  Beta virt. eigenvalues --    0.92928   0.96605   1.05716   1.24681   1.24681
  Beta virt. eigenvalues --    1.24689   1.46662   1.46765   1.46765   2.14689

 Mulliken charges and spin densities:
               1          2
     1  H    0.010105  -0.988146
     2  H    0.000049   0.999298
     3  F   -0.010154   0.988848
 Sum of Mulliken charges =  -0.00000   1.00000

 Dipole moment (field-independent basis, Debye):
    X=             -0.1864    Y=             -0.0000    Z=              0.0000  Tot=              0.1864
 Quadrupole moment (field-independent basis, Debye-Ang):
   XX=             -7.3576   YY=             -7.6176   ZZ=             -7.6176
   XY=             -0.0000   XZ=              0.0000   YZ=             -0.0000

  Exact polarizability:      21.497      -0.000       2.038       0.000       0.000       2.038
 Approx polarizability:      16.760      -0.000       1.935       0.000       0.000       1.935

 ******    2 imaginary frequencies (negative Signs) ******

                      1                      2                      3
                      A                      A                      A
 Frequencies --   -206.5484               -69.8557                53.8148
 Red. masses --      1.0438                 1.0680                 1.0193
 Frc consts  --      0.0262                 0.0031                 0.0017
 IR Inten    --      9.5518                 0.2117                 0.0908

                      4
                      A
 Frequencies --     53.8148
 Red. masses --      1.0193
 Frc consts  --      0.0017
 IR Inten    --      0.0908

 - Thermochemistry -
 -------------------
 Temperature   298.150 Kelvin.  Pressure   1.00000 Atm.
 Atom     1 has atomic number  1 and mass   1.00783

 Molecular mass:    21.01405 amu.
 Principal axes and moments of inertia in atomic units:
                           1         2         3
     Eigenvalues --     0.00000 226.72500 226.72500
           X            1.00000  -0.00000   0.00000
           Y            0.00000   1.00000   0.00000
           Z            0.00000   0.00000   1.00000
 This molecule is a prolate symmetric top.
 Rotational symmetry number  1.
 Rotational temperature (Kelvin)      0.38202
 Rotational constant (GHZ):           7.960045
    2 imaginary frequencies ignored.
 Zero-point vibrational energy        643.8 (Joules/Mol)
                                    0.15386 (Kcal/Mol)
 Warning -- explicit consideration of   2 degrees of freedom as
           vibrations may cause significant error
 Vibrational temperatures:     77.43    77.43
          (Kelvin)

 Zero-point correction=                           0.000245 (Hartree/Particle)
 Thermal correction to Energy=                    0.004259
 Thermal correction to Enthalpy=                  0.005204
 Thermal correction to Gibbs Free Energy=        -0.023785
 Sum of electronic and zero-point Energies=           -100.758549
 Sum of electronic and thermal Energies=              -100.754535
 Sum of electronic and thermal Enthalpies=            -100.753591
 Sum of electronic and thermal Free Energies=         -100.782579

                     E (Thermal)             CV                S
                      KCal/Mol        Cal/Mol-Kelvin    Cal/Mol-Kelvin
 Total                    2.673              8.920             61.011
 Electronic               0.000              0.000              1.377
 Translational            0.889              2.981             35.068
 Rotational               0.592              1.987             15.222
 Vibrational              1.192              3.952              9.344
 Vibration     1          0.596              1.976              4.672
 Vibration     2          0.596              1.976              4.672

 Normal termination of Gaussian 16 at Fri Aug 22 22:42:06 2025.
