 Gaussian 16, Revision C.01,
 Gaussian 16:  ES64L-G16RevC.01  3-Jul-2019

 -----------------------------------------
 # sp b3lyp/6-311g** Force nosymm scf=(qc)
 -----------------------------------------

 -------------------
 Title Card Required
 -------------------
 Symbolic Z-matrix:
 Charge =  0 Multiplicity = 2

                          Input orientation:
 ---------------------------------------------------------------------
 Center     Atomic      Atomic             Coordinates (Angstroms)
 Number     Number       Type             X           Y           Z
 ---------------------------------------------------------------------
      1          1           0        0.000000    0.000000    0.000000
      2          1           0       -1.000000    0.000000    0.000000
      3          9           0        2.150000    0.000000    0.000000
 ---------------------------------------------------------------------

 SCF Done:  E(UB3LYP) =  -100.909158605     a.u. after    9 cycles

 Alpha  occ. eigenvalues --  -24.74458  -1.20536  -0.53964  -0.45038  -0.45038
 Alpha  occ. eigenvalues --   -0.40600
 Alpha virt. eigenvalues --    0.00521   0.21293   0.38687   0.89396   0.91401
 Alpha virt. eigenvalues --    0.91401   1.07587   1.07587   1.10644   1.44140
 Alpha virt. eigenvalues --    1.64187   1.64187   2.20890   2.34804   2.58923

  Beta  occ. eigenvalues --  -24.71461  -1.11984  -0.42048  -0.42048  -0.40457
  Beta virt. eigenvalues --   -0.25612   0.01465   0.21823   0.39117   0.92783
  Beta virt. eigenvalues --    0.92783   0.97291   1.08236   1.08236   1.13895
  Beta virt. eigenvalues --    1.45894   1.64637   1.64637   2.21779   2.35444

 Mulliken charges and spin densities:
               1          2
     1  H    0.007094  -0.040611
     2  H    0.034326   0.097476
     3  F   -0.041420   0.943135
 Sum of Mulliken charges =   0.00000   1.00000

 Dipole moment (field-independent basis, Debye):
    X=             -0.5981    Y=             -0.0000    Z=             -0.0000  Tot=              0.5981
 Quadrupole moment (field-independent basis, Debye-Ang):
   XX=             -6.2435   YY=             -7.2257   ZZ=             -7.2257
   XY=              0.0000   XZ=             -0.0000   YZ=              0.0000

  Exact polarizability:      28.678       0.000       2.136      -0.000       0.000       2.136
 Approx polarizability:      35.022       0.000       2.165       0.000       0.000       2.165

 ******    1 imaginary frequencies (negative Signs) ******

                      1                      2                      3
                      A                      A                      A
 Frequencies --   -348.6878              1466.8911              1466.8911
 Red. masses --      1.1073                 1.0113                 1.0113
 Frc consts  --      0.0793                 1.2821                 1.2821
 IR Inten    --     69.0663                 0.0659                 0.0659

                      4
                      A
 Frequencies --   1611.5279
 Red. masses --      1.0088
 Frc consts  --      1.5436
 IR Inten    --    366.4177

 - Thermochemistry -
 -------------------
 Temperature   298.150 Kelvin.  Pressure   1.00000 Atm.
 Atom     1 has atomic number  1 and mass   1.00783

 Molecular mass:    21.01405 amu.
 Principal axes and moments of inertia in atomic units:
                           1         2         3
     Eigenvalues --     0.00000  47.49905  47.49905
           X            1.00000  -0.00000   0.00000
           Y            0.00000   1.00000   0.00000
           Z            0.00000   0.00000   1.00000
 This molecule is a prolate symmetric top.
 Rotational symmetry number  1.
 Rotational temperature (Kelvin)      1.82349
 Rotational constant (GHZ):          37.995311
    1 imaginary frequencies ignored.
 Zero-point vibrational energy      27187.0 (Joules/Mol)
                                    6.49785 (Kcal/Mol)
 Vibrational temperatures:   2110.53  2110.53  2318.63
          (Kelvin)

 Zero-point correction=                           0.010355 (Hartree/Particle)
 Thermal correction to Energy=                    0.012730
 Thermal correction to Enthalpy=                  0.013674
 Thermal correction to Gibbs Free Energy=        -0.009415
 Sum of electronic and zero-point Energies=           -100.898804
 Sum of electronic and thermal Energies=              -100.896429
 Sum of electronic and thermal Enthalpies=            -100.895485
 Sum of electronic and thermal Free Energies=         -100.918574

                     E (Thermal)             CV                S
                      KCal/Mol        Cal/Mol-Kelvin    Cal/Mol-Kelvin
 Total                    7.988              5.187             48.596
 Electronic               0.000              0.000              1.377
 Translational            0.889              2.981             35.068
 Rotational               0.592              1.987             12.116
 Vibrational              6.507              0.219              0.034

 Normal termination of Gaussian 16 at Fri Aug 22 17:06:42 2025.
