 Gaussian 16, Revision C.01,
 Gaussian 16:  ES64L-G16RevC.01  3-Jul-2019

 -----------------------------------------
 # sp b3lyp/6-311g** Force nosymm scf=(qc)
 -----------------------------------------

 -------------------
 Title Card Required
 -------------------
 Symbolic Z-matrix:
 Charge =  0 Multiplicity = 2

                          Input orientation:
 ---------------------------------------------------------------------
 Center     Atomic      Atomic             Coordinates (Angstroms)
 Number     Number       Type             X           Y           Z
 ---------------------------------------------------------------------
      1          1           0        0.000000    0.000000    0.000000
      2          1           0       -1.700000    0.000000    0.000000
      3          9           0        0.750000    0.000000    0.000000
 ---------------------------------------------------------------------

 SCF Done:  E(UB3LYP) =  -100.920155532     a.u. after    6 cycles

 Alpha  occ. eigenvalues --  -24.63267  -1.25407  -0.57742  -0.41052  -0.41052
 Alpha  occ. eigenvalues --   -0.35989
 Alpha virt. eigenvalues --    0.11449   0.22715   0.47145   0.93967   0.93967
 Alpha virt. eigenvalues --    0.96798   1.20017   1.20017   1.23081   1.43265
 Alpha virt. eigenvalues --    1.43265   1.55964   2.03159   2.16016   2.79527

  Beta  occ. eigenvalues --  -24.63182  -1.25174  -0.57255  -0.40986  -0.40986
  Beta virt. eigenvalues --   -0.12061   0.12991   0.31622   0.49785   0.94013
  Beta virt. eigenvalues --    0.94013   0.96991   1.31418   1.35257   1.35257
  Beta virt. eigenvalues --    1.46831   1.46831   1.62993   2.06821   2.34889

 Mulliken charges and spin densities:
               1          2
     1  H    0.249736   0.012359
     2  H    0.014966   0.971700
     3  F   -0.264702   0.015942
 Sum of Mulliken charges =   0.00000   1.00000

 Dipole moment (field-independent basis, Debye):
    X=             -1.7729    Y=              0.0000    Z=             -0.0000  Tot=              1.7729
 Quadrupole moment (field-independent basis, Debye-Ang):
   XX=             -7.1398   YY=             -6.6490   ZZ=             -6.6490
   XY=              0.0000   XZ=              0.0000   YZ=             -0.0000

  Exact polarizability:       7.619      -0.000       2.524      -0.000       0.000       2.524
 Approx polarizability:       7.538      -0.000       2.524      -0.000       0.000       2.524

 ******    2 imaginary frequencies (negative Signs) ******

                      1                      2                      3
                      A                      A                      A
 Frequencies --  -2650.6742             -2650.6742               544.7516
 Red. masses --      1.0301                 1.0301                 1.0533
 Frc consts  --      4.2642                 4.2642                 0.1842
 IR Inten    --    154.1161               154.1161                 0.0763

                      4
                      A
 Frequencies --   7567.0876
 Red. masses --      1.0582
 Frc consts  --     35.7021
 IR Inten    --    164.3517

 - Thermochemistry -
 -------------------
 Temperature   298.150 Kelvin.  Pressure   1.00000 Atm.
 Atom     1 has atomic number  1 and mass   1.00783

 Molecular mass:    21.01405 amu.
 Principal axes and moments of inertia in atomic units:
                           1         2         3
     Eigenvalues --     0.00000  21.86000  21.86000
           X            1.00000  -0.00000   0.00000
           Y            0.00000   1.00000   0.00000
           Z            0.00000   0.00000   1.00000
 This molecule is a prolate symmetric top.
 Rotational symmetry number  1.
 Rotational temperature (Kelvin)      3.96221
 Rotational constant (GHZ):          82.559081
    2 imaginary frequencies ignored.
 Zero-point vibrational energy      48519.6 (Joules/Mol)
                                   11.59646 (Kcal/Mol)
 Warning -- explicit consideration of   1 degrees of freedom as
           vibrations may cause significant error
 Vibrational temperatures:    783.78 10887.35
          (Kelvin)

 Zero-point correction=                           0.018480 (Hartree/Particle)
 Thermal correction to Energy=                    0.021034
 Thermal correction to Enthalpy=                  0.021978
 Thermal correction to Gibbs Free Energy=        -0.000626
 Sum of electronic and zero-point Energies=           -100.901675
 Sum of electronic and thermal Energies=              -100.899122
 Sum of electronic and thermal Enthalpies=            -100.898178
 Sum of electronic and thermal Free Energies=         -100.920782

                     E (Thermal)             CV                S
                      KCal/Mol        Cal/Mol-Kelvin    Cal/Mol-Kelvin
 Total                   13.199              6.119             47.574
 Electronic               0.000              0.000              1.377
 Translational            0.889              2.981             35.068
 Rotational               0.592              1.987             10.574
 Vibrational             11.718              1.151              0.555
 Vibration     1          0.900              1.151              0.555

 Normal termination of Gaussian 16 at Fri Aug 22 15:48:33 2025.
