 Gaussian 16, Revision C.01,
 Gaussian 16:  ES64L-G16RevC.01  3-Jul-2019

 -----------------------------------------
 # sp b3lyp/6-311g** Force nosymm scf=(qc)
 -----------------------------------------

 -------------------
 Title Card Required
 -------------------
 Symbolic Z-matrix:
 Charge =  0 Multiplicity = 2

                          Input orientation:
 ---------------------------------------------------------------------
 Center     Atomic      Atomic             Coordinates (Angstroms)
 Number     Number       Type             X           Y           Z
 ---------------------------------------------------------------------
      1          1           0        0.000000    0.000000    0.000000
      2          1           0       -0.700000    0.000000    0.000000
      3          9           0        1.650000    0.000000    0.000000
 ---------------------------------------------------------------------

 SCF Done:  E(UB3LYP) =  -100.933951053     a.u. after    7 cycles

 Alpha  occ. eigenvalues --  -24.72882  -1.19471  -0.55688  -0.44589  -0.43958
 Alpha  occ. eigenvalues --   -0.43958
 Alpha virt. eigenvalues --    0.09294   0.20027   0.44884   0.89315   0.89315
 Alpha virt. eigenvalues --    0.96464   1.08426   1.08426   1.23538   1.69770
 Alpha virt. eigenvalues --    1.84645   1.84645   1.90163   2.44386   3.37863

  Beta  occ. eigenvalues --  -24.70032  -1.11506  -0.47471  -0.41153  -0.41153
  Beta virt. eigenvalues --   -0.24320   0.10305   0.20800   0.46419   0.90530
  Beta virt. eigenvalues --    0.90530   1.03355   1.09966   1.09966   1.27084
  Beta virt. eigenvalues --    1.72079   1.85453   1.85453   1.91019   2.46090

 Mulliken charges and spin densities:
               1          2
     1  H    0.074251  -0.036999
     2  H    0.021280   0.160373
     3  F   -0.095531   0.876626
 Sum of Mulliken charges =   0.00000   1.00000

 Dipole moment (field-independent basis, Debye):
    X=             -0.8214    Y=             -0.0000    Z=             -0.0000  Tot=              0.8214
 Quadrupole moment (field-independent basis, Debye-Ang):
   XX=             -6.5267   YY=             -6.7778   ZZ=             -6.7778
   XY=             -0.0000   XZ=             -0.0000   YZ=             -0.0000

  Exact polarizability:      18.438       0.000       2.207       0.000      -0.000       2.207
 Approx polarizability:      22.112       0.000       2.258      -0.000      -0.000       2.258

 ******    3 imaginary frequencies (negative Signs) ******

                      1                      2                      3
                      A                      A                      A
 Frequencies --  -1427.5583             -1427.5583              -114.8775
 Red. masses --      1.0108                 1.0108                 1.1084
 Frc consts  --      1.2137                 1.2137                 0.0086
 IR Inten    --      0.0098                 0.0098                65.2069

                      4
                      A
 Frequencies --   4913.0645
 Red. masses --      1.0079
 Frc consts  --     14.3341
 IR Inten    --    528.3146

 - Thermochemistry -
 -------------------
 Temperature   298.150 Kelvin.  Pressure   1.00000 Atm.
 Atom     1 has atomic number  1 and mass   1.00783

 Molecular mass:    21.01405 amu.
 Principal axes and moments of inertia in atomic units:
                           1         2         3
     Eigenvalues --     0.00000  26.91211  26.91211
           X            1.00000  -0.00000   0.00000
           Y            0.00000   1.00000   0.00000
           Z            0.00000   0.00000   1.00000
 This molecule is a prolate symmetric top.
 Rotational symmetry number  1.
 Rotational temperature (Kelvin)      3.21840
 Rotational constant (GHZ):          67.060549
    3 imaginary frequencies ignored.
 Zero-point vibrational energy      29386.7 (Joules/Mol)
                                    7.02358 (Kcal/Mol)
 Vibrational temperatures:   7068.80
          (Kelvin)

 Zero-point correction=                           0.011193 (Hartree/Particle)
 Thermal correction to Energy=                    0.013553
 Thermal correction to Enthalpy=                  0.014497
 Thermal correction to Gibbs Free Energy=        -0.008039
 Sum of electronic and zero-point Energies=           -100.922758
 Sum of electronic and thermal Energies=              -100.920398
 Sum of electronic and thermal Enthalpies=            -100.919454
 Sum of electronic and thermal Free Energies=         -100.941990

                     E (Thermal)             CV                S
                      KCal/Mol        Cal/Mol-Kelvin    Cal/Mol-Kelvin
 Total                    8.505              4.968             47.432
 Electronic               0.000              0.000              1.377
 Translational            0.889              2.981             35.068
 Rotational               0.592              1.987             10.987
 Vibrational              7.024              0.000              0.000

 Normal termination of Gaussian 16 at Fri Aug 22 16:33:08 2025.
