 Gaussian 16, Revision C.01,
 Gaussian 16:  ES64L-G16RevC.01  3-Jul-2019

 -----------------------------------------
 # sp b3lyp/6-311g** Force nosymm scf=(qc)
 -----------------------------------------

 -------------------
 Title Card Required
 -------------------
 Symbolic Z-matrix:
 Charge =  0 Multiplicity = 2

                          Input orientation:
 ---------------------------------------------------------------------
 Center     Atomic      Atomic             Coordinates (Angstroms)
 Number     Number       Type             X           Y           Z
 ---------------------------------------------------------------------
      1          1           0        0.000000    0.000000    0.000000
      2          1           0       -0.650000    0.000000    0.000000
      3          9           0        3.400000    0.000000    0.000000
 ---------------------------------------------------------------------

 SCF Done:  E(UB3LYP) =  -100.926838001     a.u. after  323 cycles

 Alpha  occ. eigenvalues --  -24.76391  -1.22234  -0.55434  -0.46660  -0.46586
 Alpha  occ. eigenvalues --   -0.45290
 Alpha virt. eigenvalues --    0.07670   0.19210   0.49909   0.85989   0.90864
 Alpha virt. eigenvalues --    0.93334   1.02801   1.09536   1.09540   1.59557
 Alpha virt. eigenvalues --    1.85366   1.89337   1.89342   2.37663   3.64798

  Beta  occ. eigenvalues --  -24.73232  -1.13153  -0.45353  -0.43428  -0.43419
  Beta virt. eigenvalues --   -0.26068   0.07696   0.19225   0.49989   0.92364
  Beta virt. eigenvalues --    0.94930   0.95451   1.06730   1.09535   1.09539
  Beta virt. eigenvalues --    1.59568   1.85397   1.89337   1.89341   2.37665

 Mulliken charges and spin densities:
               1          2
     1  H   -0.003398  -0.000719
     2  H   -0.001950   0.000081
     3  F    0.005348   1.000638
 Sum of Mulliken charges =   0.00000   1.00000

 Dipole moment (field-independent basis, Debye):
    X=              0.0572    Y=             -0.0000    Z=             -0.0000  Tot=              0.0572
 Quadrupole moment (field-independent basis, Debye-Ang):
   XX=             -6.1265   YY=             -5.9501   ZZ=             -6.8140
   XY=              0.0000   XZ=             -0.0000   YZ=             -0.0074

  Exact polarizability:       7.117       0.000       2.364      -0.000      -0.004       1.900
 Approx polarizability:       7.857       0.000       2.562      -0.000      -0.005       1.981

 ******    2 imaginary frequencies (negative Signs) ******

                      1                      2                      3
                      A                      A                      A
 Frequencies --  -1952.0169             -1951.3853                30.0167
 Red. masses --      1.0086                 1.0086                 1.1085
 Frc consts  --      2.2643                 2.2628                 0.0006
 IR Inten    --      0.0067                 0.0057                 0.1519

                      4
                      A
 Frequencies --   5976.0835
 Red. masses --      1.0078
 Frc consts  --     21.2065
 IR Inten    --      0.0857

 - Thermochemistry -
 -------------------
 Temperature   298.150 Kelvin.  Pressure   1.00000 Atm.
 Atom     1 has atomic number  1 and mass   1.00783

 Molecular mass:    21.01405 amu.
 Principal axes and moments of inertia in atomic units:
                           1         2         3
     Eigenvalues --     0.00000  91.05716  91.05716
           X            1.00000  -0.00000   0.00000
           Y            0.00000   1.00000   0.00000
           Z            0.00000   0.00000   1.00000
 This molecule is a prolate symmetric top.
 Rotational symmetry number  1.
 Rotational temperature (Kelvin)      0.95120
 Rotational constant (GHZ):          19.819871
    2 imaginary frequencies ignored.
 Zero-point vibrational energy      35924.5 (Joules/Mol)
                                    8.58615 (Kcal/Mol)
 Warning -- explicit consideration of   1 degrees of freedom as
           vibrations may cause significant error
 Vibrational temperatures:     43.19  8598.25
          (Kelvin)

 Zero-point correction=                           0.013683 (Hartree/Particle)
 Thermal correction to Energy=                    0.016921
 Thermal correction to Enthalpy=                  0.017865
 Thermal correction to Gibbs Free Energy=        -0.008592
 Sum of electronic and zero-point Energies=           -100.913155
 Sum of electronic and thermal Energies=              -100.909917
 Sum of electronic and thermal Enthalpies=            -100.908973
 Sum of electronic and thermal Free Energies=         -100.935430

                     E (Thermal)             CV                S
                      KCal/Mol        Cal/Mol-Kelvin    Cal/Mol-Kelvin
 Total                   10.618              6.952             55.683
 Electronic               0.000              0.000              1.377
 Translational            0.889              2.981             35.068
 Rotational               0.592              1.987             13.409
 Vibrational              9.137              1.984              5.828
 Vibration     1          0.594              1.984              5.828

 Normal termination of Gaussian 16 at Fri Aug 22 21:06:19 2025.
