 Gaussian 16, Revision C.01,
 Gaussian 16:  ES64L-G16RevC.01  3-Jul-2019

 -----------------------------------------
 # sp b3lyp/6-311g** Force nosymm scf=(qc)
 -----------------------------------------

 -------------------
 Title Card Required
 -------------------
 Symbolic Z-matrix:
 Charge =  0 Multiplicity = 2

                          Input orientation:
 ---------------------------------------------------------------------
 Center     Atomic      Atomic             Coordinates (Angstroms)
 Number     Number       Type             X           Y           Z
 ---------------------------------------------------------------------
      1          1           0        0.000000    0.000000    0.000000
      2          1           0       -1.550000    0.000000    0.000000
      3          9           0        2.500000    0.000000    0.000000
 ---------------------------------------------------------------------

 SCF Done:  E(UB3LYP) =  -100.817104685     a.u. after   18 cycles

 Alpha  occ. eigenvalues --  -24.73122  -1.19255  -0.52297  -0.43882  -0.43882
 Alpha  occ. eigenvalues --   -0.35767
 Alpha virt. eigenvalues --   -0.11171   0.23842   0.30998   0.89001   0.92752
 Alpha virt. eigenvalues --    0.92752   1.03347   1.13546   1.19111   1.19111
 Alpha virt. eigenvalues --    1.38491   1.38491   1.76114   2.18561   2.44842

  Beta  occ. eigenvalues --  -24.70194  -1.10893  -0.40958  -0.40958  -0.35311
  Beta virt. eigenvalues --   -0.24709  -0.10464   0.25120   0.30929   0.94152
  Beta virt. eigenvalues --    0.94152   0.95540   1.06007   1.17170   1.19753
  Beta virt. eigenvalues --    1.19753   1.39009   1.39009   1.76804   2.19583

 Mulliken charges and spin densities:
               1          2
     1  H    0.023182  -0.389807
     2  H    0.038841   0.464031
     3  F   -0.062024   0.925777
 Sum of Mulliken charges =  -0.00000   1.00000

 Dipole moment (field-independent basis, Debye):
    X=             -1.0733    Y=             -0.0000    Z=             -0.0000  Tot=              1.0733
 Quadrupole moment (field-independent basis, Debye-Ang):
   XX=             -7.0454   YY=             -7.6767   ZZ=             -7.6767
   XY=             -0.0000   XZ=             -0.0000   YZ=             -0.0000

  Exact polarizability:      59.917      -0.000       2.044      -0.000       0.000       2.044
 Approx polarizability:      81.928       0.000       2.014       0.000      -0.000       2.014

 ******    2 imaginary frequencies (negative Signs) ******

                      1                      2                      3
                      A                      A                      A
 Frequencies --  -2073.6813              -323.3573              1074.9472
 Red. masses --      1.0084                 1.1078                 1.0132
 Frc consts  --      2.5549                 0.0682                 0.6898
 IR Inten    --    513.4132                36.2675                 0.0262

                      4
                      A
 Frequencies --   1074.9472
 Red. masses --      1.0132
 Frc consts  --      0.6898
 IR Inten    --      0.0262

 - Thermochemistry -
 -------------------
 Temperature   298.150 Kelvin.  Pressure   1.00000 Atm.
 Atom     1 has atomic number  1 and mass   1.00783

 Molecular mass:    21.01405 amu.
 Principal axes and moments of inertia in atomic units:
                           1         2         3
     Eigenvalues --     0.00000  74.12127  74.12127
           X            1.00000  -0.00000   0.00000
           Y            0.00000   1.00000   0.00000
           Z            0.00000   0.00000   1.00000
 This molecule is a prolate symmetric top.
 Rotational symmetry number  1.
 Rotational temperature (Kelvin)      1.16854
 Rotational constant (GHZ):          24.348492
    2 imaginary frequencies ignored.
 Zero-point vibrational energy      12859.2 (Joules/Mol)
                                    3.07343 (Kcal/Mol)
 Vibrational temperatures:   1546.61  1546.61
          (Kelvin)

 Zero-point correction=                           0.004898 (Hartree/Particle)
 Thermal correction to Energy=                    0.007313
 Thermal correction to Enthalpy=                  0.008258
 Thermal correction to Gibbs Free Energy=        -0.015301
 Sum of electronic and zero-point Energies=           -100.812207
 Sum of electronic and thermal Energies=              -100.809791
 Sum of electronic and thermal Enthalpies=            -100.808847
 Sum of electronic and thermal Free Energies=         -100.832406

                     E (Thermal)             CV                S
                      KCal/Mol        Cal/Mol-Kelvin    Cal/Mol-Kelvin
 Total                    4.589              5.572             49.583
 Electronic               0.000              0.000              1.377
 Translational            0.889              2.981             35.068
 Rotational               0.592              1.987             13.000
 Vibrational              3.108              0.604              0.138

 Normal termination of Gaussian 16 at Fri Aug 22 17:44:17 2025.
