 Gaussian 16, Revision C.01,
 Gaussian 16:  ES64L-G16RevC.01  3-Jul-2019

 -----------------------------------------
 # sp b3lyp/6-311g** Force nosymm scf=(qc)
 -----------------------------------------

 -------------------
 Title Card Required
 -------------------
 Symbolic Z-matrix:
 Charge =  0 Multiplicity = 2

                          Input orientation:
 ---------------------------------------------------------------------
 Center     Atomic      Atomic             Coordinates (Angstroms)
 Number     Number       Type             X           Y           Z
 ---------------------------------------------------------------------
      1          1           0        0.000000    0.000000    0.000000
      2          1           0       -2.100000    0.000000    0.000000
      3          9           0        1.550000    0.000000    0.000000
 ---------------------------------------------------------------------

 SCF Done:  E(UB3LYP) =  -100.849351977     a.u. after   11 cycles

 Alpha  occ. eigenvalues --  -24.64156  -1.10106  -0.43820  -0.36973  -0.36285
 Alpha  occ. eigenvalues --   -0.36285
 Alpha virt. eigenvalues --   -0.12638   0.23352   0.27469   0.94380   0.94380
 Alpha virt. eigenvalues --    1.01047   1.06304   1.20414   1.20414   1.29974
 Alpha virt. eigenvalues --    1.33254   1.33254   1.74016   2.10016   2.24964

  Beta  occ. eigenvalues --  -24.63293  -1.07803  -0.41247  -0.35461  -0.35461
  Beta virt. eigenvalues --   -0.18271  -0.08423   0.25558   0.32931   0.94151
  Beta virt. eigenvalues --    0.94151   1.03317   1.08137   1.29340   1.29340
  Beta virt. eigenvalues --    1.38217   1.38217   1.44022   1.73140   2.14801

 Mulliken charges and spin densities:
               1          2
     1  H    0.298931  -0.211892
     2  H    0.041194   0.940931
     3  F   -0.340125   0.270961
 Sum of Mulliken charges =   0.00000   1.00000

 Dipole moment (field-independent basis, Debye):
    X=             -2.9986    Y=              0.0000    Z=             -0.0000  Tot=              2.9986
 Quadrupole moment (field-independent basis, Debye-Ang):
   XX=             -9.0009   YY=             -7.3415   ZZ=             -7.3415
   XY=              0.0000   XZ=             -0.0000   YZ=              0.0000

  Exact polarizability:      30.407       0.000       2.198      -0.000      -0.000       2.198
 Approx polarizability:      42.692       0.000       2.122      -0.000      -0.000       2.122

 ******    2 imaginary frequencies (negative Signs) ******

                      1                      2                      3
                      A                      A                      A
 Frequencies --  -1940.2022              -413.8008               937.7136
 Red. masses --      1.0405                 1.0715                 1.0220
 Frc consts  --      2.3077                 0.1081                 0.5295
 IR Inten    --      0.1795                 4.1817                67.8305

                      4
                      A
 Frequencies --    937.7136
 Red. masses --      1.0220
 Frc consts  --      0.5295
 IR Inten    --     67.8305

 - Thermochemistry -
 -------------------
 Temperature   298.150 Kelvin.  Pressure   1.00000 Atm.
 Atom     1 has atomic number  1 and mass   1.00783

 Molecular mass:    21.01405 amu.
 Principal axes and moments of inertia in atomic units:
                           1         2         3
     Eigenvalues --     0.00000  51.92712  51.92712
           X            1.00000  -0.00000   0.00000
           Y            0.00000   1.00000   0.00000
           Z            0.00000   0.00000   1.00000
 This molecule is a prolate symmetric top.
 Rotational symmetry number  1.
 Rotational temperature (Kelvin)      1.66799
 Rotational constant (GHZ):          34.755274
    2 imaginary frequencies ignored.
 Zero-point vibrational energy      11217.5 (Joules/Mol)
                                    2.68106 (Kcal/Mol)
 Vibrational temperatures:   1349.16  1349.16
          (Kelvin)

 Zero-point correction=                           0.004273 (Hartree/Particle)
 Thermal correction to Energy=                    0.006727
 Thermal correction to Enthalpy=                  0.007671
 Thermal correction to Gibbs Free Energy=        -0.015600
 Sum of electronic and zero-point Energies=           -100.845079
 Sum of electronic and thermal Energies=              -100.842625
 Sum of electronic and thermal Enthalpies=            -100.841681
 Sum of electronic and thermal Free Energies=         -100.864952

                     E (Thermal)             CV                S
                      KCal/Mol        Cal/Mol-Kelvin    Cal/Mol-Kelvin
 Total                    4.221              5.869             48.978
 Electronic               0.000              0.000              1.377
 Translational            0.889              2.981             35.068
 Rotational               0.592              1.987             12.293
 Vibrational              2.740              0.901              0.240

 Normal termination of Gaussian 16 at Fri Aug 22 16:28:22 2025.
