 Gaussian 16, Revision C.01,
 Gaussian 16:  ES64L-G16RevC.01  3-Jul-2019

 -----------------------------------------
 # sp b3lyp/6-311g** Force nosymm scf=(qc)
 -----------------------------------------

 -------------------
 Title Card Required
 -------------------
 Symbolic Z-matrix:
 Charge =  0 Multiplicity = 2

                          Input orientation:
 ---------------------------------------------------------------------
 Center     Atomic      Atomic             Coordinates (Angstroms)
 Number     Number       Type             X           Y           Z
 ---------------------------------------------------------------------
      1          1           0        0.000000    0.000000    0.000000
      2          1           0       -1.100000    0.000000    0.000000
      3          9           0        3.250000    0.000000    0.000000
 ---------------------------------------------------------------------

 SCF Done:  E(UB3LYP) =  -100.890064311     a.u. after   25 cycles

 Alpha  occ. eigenvalues --  -24.76508  -1.22352  -0.55548  -0.46764  -0.46700
 Alpha  occ. eigenvalues --   -0.37433
 Alpha virt. eigenvalues --   -0.01761   0.22195   0.36300   0.85881   0.90755
 Alpha virt. eigenvalues --    0.93000   1.02475   1.10862   1.10866   1.29823
 Alpha virt. eigenvalues --    1.59976   1.59981   2.17188   2.34614   2.55686

  Beta  occ. eigenvalues --  -24.73349  -1.13271  -0.43602  -0.43533  -0.37425
  Beta virt. eigenvalues --   -0.26181  -0.01749   0.22211   0.36359   0.92255
  Beta virt. eigenvalues --    0.94579   0.95342   1.06466   1.10861   1.10866
  Beta virt. eigenvalues --    1.29832   1.59976   1.59981   2.17199   2.34618

 Mulliken charges and spin densities:
               1          2
     1  H   -0.001140  -0.000374
     2  H   -0.004240  -0.000288
     3  F    0.005380   1.000662
 Sum of Mulliken charges =  -0.00000   1.00000

 Dipole moment (field-independent basis, Debye):
    X=              0.0715    Y=              0.0000    Z=             -0.0000  Tot=              0.0715
 Quadrupole moment (field-independent basis, Debye-Ang):
   XX=             -6.1968   YY=             -6.5776   ZZ=             -7.3438
   XY=              0.0000   XZ=             -0.0000   YZ=             -0.1996

  Exact polarizability:      14.261       0.000       2.512      -0.000      -0.107       2.101
 Approx polarizability:      19.847       0.000       2.663      -0.000      -0.134       2.148

                      1                      2                      3
                      A                      A                      A
 Frequencies --     17.5134              1027.4060              1527.7404
 Red. masses --      1.1085                 1.0078                 1.0099
 Frc consts  --      0.0002                 0.6268                 1.3888
 IR Inten    --      0.2704                 0.3490                 0.0002

                      4
                      A
 Frequencies --   1528.7575
 Red. masses --      1.0099
 Frc consts  --      1.3906
 IR Inten    --      0.0004

 - Thermochemistry -
 -------------------
 Temperature   298.150 Kelvin.  Pressure   1.00000 Atm.
 Atom     1 has atomic number  1 and mass   1.00783

 Molecular mass:    21.01405 amu.
 Principal axes and moments of inertia in atomic units:
                           1         2         3
     Eigenvalues --     0.00000  96.14699  96.14699
           X            1.00000  -0.00000   0.00000
           Y            0.00000   1.00000   0.00000
           Z            0.00000   0.00000   1.00000
 This molecule is a prolate symmetric top.
 Rotational symmetry number  1.
 Rotational temperature (Kelvin)      0.90085
 Rotational constant (GHZ):          18.770647
 Zero-point vibrational energy      24531.9 (Joules/Mol)
                                    5.86327 (Kcal/Mol)
 Warning -- explicit consideration of   1 degrees of freedom as
           vibrations may cause significant error
 Vibrational temperatures:     25.20  1478.21  2198.08  2199.54
          (Kelvin)

 Zero-point correction=                           0.009344 (Hartree/Particle)
 Thermal correction to Energy=                    0.012651
 Thermal correction to Enthalpy=                  0.013595
 Thermal correction to Gibbs Free Energy=        -0.013471
 Sum of electronic and zero-point Energies=           -100.880721
 Sum of electronic and thermal Energies=              -100.877413
 Sum of electronic and thermal Enthalpies=            -100.876469
 Sum of electronic and thermal Free Energies=         -100.903535

                     E (Thermal)             CV                S
                      KCal/Mol        Cal/Mol-Kelvin    Cal/Mol-Kelvin
 Total                    7.939              7.438             56.965
 Electronic               0.000              0.000              1.377
 Translational            0.889              2.981             35.068
 Rotational               0.592              1.987             13.517
 Vibrational              6.457              2.470              7.002
 Vibration     1          0.593              1.986              6.898

 Normal termination of Gaussian 16 at Fri Aug 22 20:28:27 2025.
