 Gaussian 16, Revision C.01,
 Gaussian 16:  ES64L-G16RevC.01  3-Jul-2019

 -----------------------------------------
 # sp b3lyp/6-311g** Force nosymm scf=(qc)
 -----------------------------------------

 -------------------
 Title Card Required
 -------------------
 Symbolic Z-matrix:
 Charge =  0 Multiplicity = 2

                          Input orientation:
 ---------------------------------------------------------------------
 Center     Atomic      Atomic             Coordinates (Angstroms)
 Number     Number       Type             X           Y           Z
 ---------------------------------------------------------------------
      1          1           0        0.000000    0.000000    0.000000
      2          1           0       -2.300000    0.000000    0.000000
      3          9           0        2.150000    0.000000    0.000000
 ---------------------------------------------------------------------

 SCF Done:  E(UB3LYP) =  -100.784890922     a.u. after   19 cycles

 Alpha  occ. eigenvalues --  -24.69299  -1.15609  -0.48349  -0.40644  -0.40644
 Alpha  occ. eigenvalues --   -0.35013
 Alpha virt. eigenvalues --   -0.13433   0.24391   0.31724   0.88940   0.94715
 Alpha virt. eigenvalues --    0.94715   1.06246   1.22739   1.22739   1.27176
 Alpha virt. eigenvalues --    1.35238   1.35238   1.52536   2.12702   2.30010

  Beta  occ. eigenvalues --  -24.66727  -1.08366  -0.38097  -0.38097  -0.36778
  Beta virt. eigenvalues --   -0.21799  -0.10684   0.25837   0.33636   0.92561
  Beta virt. eigenvalues --    0.95735   0.95735   1.08896   1.22121   1.22121
  Beta virt. eigenvalues --    1.39496   1.39496   1.42287   1.45233   2.12553

 Mulliken charges and spin densities:
               1          2
     1  H    0.129283  -0.758000
     2  H    0.024083   0.948305
     3  F   -0.153366   0.809695
 Sum of Mulliken charges =  -0.00000   1.00000

 Dipole moment (field-independent basis, Debye):
    X=             -1.9146    Y=              0.0000    Z=              0.0000  Tot=              1.9146
 Quadrupole moment (field-independent basis, Debye-Ang):
   XX=             -9.0461   YY=             -7.5694   ZZ=             -7.5694
   XY=              0.0000   XZ=              0.0000   YZ=             -0.0000

  Exact polarizability:      45.048       0.000       2.036       0.000      -0.000       2.036
 Approx polarizability:      51.163      -0.000       1.935      -0.000       0.000       1.935

 ******    2 imaginary frequencies (negative Signs) ******

                      1                      2                      3
                      A                      A                      A
 Frequencies --  -1149.7044              -459.8743               475.9329
 Red. masses --      1.0261                 1.0872                 1.0188
 Frc consts  --      0.7991                 0.1355                 0.1360
 IR Inten    --     73.5051                32.0332                12.6924

                      4
                      A
 Frequencies --    475.9329
 Red. masses --      1.0188
 Frc consts  --      0.1360
 IR Inten    --     12.6924

 - Thermochemistry -
 -------------------
 Temperature   298.150 Kelvin.  Pressure   1.00000 Atm.
 Atom     1 has atomic number  1 and mass   1.00783

 Molecular mass:    21.01405 amu.
 Principal axes and moments of inertia in atomic units:
                           1         2         3
     Eigenvalues --     0.00000  80.38703  80.38703
           X            1.00000  -0.00000   0.00000
           Y            0.00000   1.00000   0.00000
           Z            0.00000   0.00000   1.00000
 This molecule is a prolate symmetric top.
 Rotational symmetry number  1.
 Rotational temperature (Kelvin)      1.07746
 Rotational constant (GHZ):          22.450653
    2 imaginary frequencies ignored.
 Zero-point vibrational energy       5693.4 (Joules/Mol)
                                    1.36076 (Kcal/Mol)
 Warning -- explicit consideration of   2 degrees of freedom as
           vibrations may cause significant error
 Vibrational temperatures:    684.76   684.76
          (Kelvin)

 Zero-point correction=                           0.002169 (Hartree/Particle)
 Thermal correction to Energy=                    0.005014
 Thermal correction to Enthalpy=                  0.005958
 Thermal correction to Gibbs Free Energy=        -0.018297
 Sum of electronic and zero-point Energies=           -100.782722
 Sum of electronic and thermal Energies=              -100.779877
 Sum of electronic and thermal Enthalpies=            -100.778933
 Sum of electronic and thermal Free Energies=         -100.803188

                     E (Thermal)             CV                S
                      KCal/Mol        Cal/Mol-Kelvin    Cal/Mol-Kelvin
 Total                    3.146              7.575             51.049
 Electronic               0.000              0.000              1.377
 Translational            0.889              2.981             35.068
 Rotational               0.592              1.987             13.161
 Vibrational              1.665              2.607              1.442
 Vibration     1          0.833              1.303              0.721
 Vibration     2          0.833              1.303              0.721

 Normal termination of Gaussian 16 at Fri Aug 22 17:07:56 2025.
