 Gaussian 16, Revision C.01,
 Gaussian 16:  ES64L-G16RevC.01  3-Jul-2019

 -----------------------------------------
 # sp b3lyp/6-311g** Force nosymm scf=(qc)
 -----------------------------------------

 -------------------
 Title Card Required
 -------------------
 Symbolic Z-matrix:
 Charge =  0 Multiplicity = 2

                          Input orientation:
 ---------------------------------------------------------------------
 Center     Atomic      Atomic             Coordinates (Angstroms)
 Number     Number       Type             X           Y           Z
 ---------------------------------------------------------------------
      1          1           0        0.000000    0.000000    0.000000
      2          1           0       -0.600000    0.000000    0.000000
      3          9           0        2.700000    0.000000    0.000000
 ---------------------------------------------------------------------

 SCF Done:  E(UB3LYP) =  -100.915298468     a.u. after   47 cycles

 Alpha  occ. eigenvalues --  -24.76736  -1.22516  -0.55701  -0.47462  -0.46849
 Alpha  occ. eigenvalues --   -0.45807
 Alpha virt. eigenvalues --    0.09289   0.19401   0.53095   0.85782   0.90651
 Alpha virt. eigenvalues --    0.93752   1.10456   1.10470   1.10711   1.61133
 Alpha virt. eigenvalues --    1.83156   1.93005   1.93020   2.38619   3.64571

  Beta  occ. eigenvalues --  -24.73572  -1.13424  -0.46566  -0.43677  -0.43527
  Beta virt. eigenvalues --   -0.26315   0.09373   0.19457   0.53211   0.92148
  Beta virt. eigenvalues --    0.95232   0.95688   1.10459   1.10469   1.14223
  Beta virt. eigenvalues --    1.61145   1.83176   1.93004   1.93019   2.38630

 Mulliken charges and spin densities:
               1          2
     1  H   -0.009865  -0.002205
     2  H   -0.003639   0.000205
     3  F    0.013504   1.002000
 Sum of Mulliken charges =   0.00000   1.00000

 Dipole moment (field-independent basis, Debye):
    X=              0.1199    Y=              0.0000    Z=              0.0000  Tot=              0.1199
 Quadrupole moment (field-independent basis, Debye-Ang):
   XX=             -5.9831   YY=             -6.3164   ZZ=             -6.3171
   XY=             -0.0000   XZ=             -0.0000   YZ=              0.4316

  Exact polarizability:       6.965      -0.000       2.113      -0.000       0.225       2.113
 Approx polarizability:       7.462      -0.000       2.256      -0.000       0.284       2.255

 ******    2 imaginary frequencies (negative Signs) ******

                      1                      2                      3
                      A                      A                      A
 Frequencies --  -2750.3611             -2750.3530               137.2625
 Red. masses --      1.0088                 1.0088                 1.1085
 Frc consts  --      4.4962                 4.4962                 0.0123
 IR Inten    --      0.0672                 0.0535                 0.2677

                      4
                      A
 Frequencies --   7042.3441
 Red. masses --      1.0078
 Frc consts  --     29.4490
 IR Inten    --      1.0578

 - Thermochemistry -
 -------------------
 Temperature   298.150 Kelvin.  Pressure   1.00000 Atm.
 Atom     1 has atomic number  1 and mass   1.00783

 Molecular mass:    21.01405 amu.
 Principal axes and moments of inertia in atomic units:
                           1         2         3
     Eigenvalues --     0.00000  59.21613  59.21613
           X            1.00000  -0.00000   0.00000
           Y            0.00000   1.00000   0.00000
           Z            0.00000   0.00000   1.00000
 This molecule is a prolate symmetric top.
 Rotational symmetry number  1.
 Rotational temperature (Kelvin)      1.46267
 Rotational constant (GHZ):          30.477191
    2 imaginary frequencies ignored.
 Zero-point vibrational energy      42943.6 (Joules/Mol)
                                   10.26376 (Kcal/Mol)
 Warning -- explicit consideration of   1 degrees of freedom as
           vibrations may cause significant error
 Vibrational temperatures:    197.49 10132.36
          (Kelvin)

 Zero-point correction=                           0.016356 (Hartree/Particle)
 Thermal correction to Energy=                    0.019383
 Thermal correction to Enthalpy=                  0.020327
 Thermal correction to Gibbs Free Energy=        -0.004305
 Sum of electronic and zero-point Energies=           -100.898942
 Sum of electronic and thermal Energies=              -100.895916
 Sum of electronic and thermal Enthalpies=            -100.894972
 Sum of electronic and thermal Free Energies=         -100.919603

                     E (Thermal)             CV                S
                      KCal/Mol        Cal/Mol-Kelvin    Cal/Mol-Kelvin
 Total                   12.163              6.884             51.841
 Electronic               0.000              0.000              1.377
 Translational            0.889              2.981             35.068
 Rotational               0.592              1.987             12.554
 Vibrational             10.682              1.916              2.842
 Vibration     1          0.614              1.916              2.842

 Normal termination of Gaussian 16 at Fri Aug 22 18:17:11 2025.
