 Gaussian 16, Revision C.01,
 Gaussian 16:  ES64L-G16RevC.01  3-Jul-2019

 -----------------------------------------
 # sp b3lyp/6-311g** Force nosymm scf=(qc)
 -----------------------------------------

 -------------------
 Title Card Required
 -------------------
 Symbolic Z-matrix:
 Charge =  0 Multiplicity = 2

                          Input orientation:
 ---------------------------------------------------------------------
 Center     Atomic      Atomic             Coordinates (Angstroms)
 Number     Number       Type             X           Y           Z
 ---------------------------------------------------------------------
      1          1           0        0.000000    0.000000    0.000000
      2          1           0       -2.050000    0.000000    0.000000
      3          9           0        3.950000    0.000000    0.000000
 ---------------------------------------------------------------------

 SCF Done:  E(UB3LYP) =  -100.772196484     a.u. after   78 cycles

 Alpha  occ. eigenvalues --  -24.76116  -1.22024  -0.55229  -0.46396  -0.46387
 Alpha  occ. eigenvalues --   -0.32675
 Alpha virt. eigenvalues --   -0.10331   0.26152   0.33194   0.86127   0.91005
 Alpha virt. eigenvalues --    0.91310   1.00928   1.19388   1.25292   1.25292
 Alpha virt. eigenvalues --    1.38836   1.38838   1.49853   2.13604   2.36213

  Beta  occ. eigenvalues --  -24.72962  -1.12952  -0.43236  -0.43224  -0.32648
  Beta virt. eigenvalues --   -0.25883  -0.10393   0.26149   0.33187   0.92507
  Beta virt. eigenvalues --    0.92782   0.95596   1.05070   1.19373   1.25309
  Beta virt. eigenvalues --    1.25312   1.38793   1.38793   1.49840   2.13801

 Mulliken charges and spin densities:
               1          2
     1  H    0.000356  -0.876574
     2  H   -0.000951   0.876608
     3  F    0.000594   0.999966
 Sum of Mulliken charges =   0.00000   1.00000

 Dipole moment (field-independent basis, Debye):
    X=              0.0166    Y=             -0.0000    Z=              0.0000  Tot=              0.0166
 Quadrupole moment (field-independent basis, Debye-Ang):
   XX=             -7.0640   YY=             -7.5534   ZZ=             -7.0281
   XY=             -0.0000   XZ=              0.0000   YZ=             -0.3435

  Exact polarizability:      20.544      -0.000       2.104       0.000      -0.185       2.386
 Approx polarizability:      22.414      -0.000       2.052       0.000      -0.232       2.406

 ******    2 imaginary frequencies (negative Signs) ******

                      1                      2                      3
                      A                      A                      A
 Frequencies --  -1260.7289               -45.7725               511.3986
 Red. masses --      1.0078                 1.1085                 1.0119
 Frc consts  --      0.9438                 0.0014                 0.1559
 IR Inten    --      0.0005                 0.0219                 0.0005

                      4
                      A
 Frequencies --    511.5702
 Red. masses --      1.0119
 Frc consts  --      0.1560
 IR Inten    --      0.0003

 - Thermochemistry -
 -------------------
 Temperature   298.150 Kelvin.  Pressure   1.00000 Atm.
 Atom     1 has atomic number  1 and mass   1.00783

 Molecular mass:    21.01405 amu.
 Principal axes and moments of inertia in atomic units:
                           1         2         3
     Eigenvalues --     0.00000 168.62932 168.62932
           X            1.00000  -0.00000   0.00000
           Y            0.00000   1.00000   0.00000
           Z            0.00000   0.00000   1.00000
 This molecule is a prolate symmetric top.
 Rotational symmetry number  1.
 Rotational temperature (Kelvin)      0.51364
 Rotational constant (GHZ):          10.702416
    2 imaginary frequencies ignored.
 Zero-point vibrational energy       6118.7 (Joules/Mol)
                                    1.46241 (Kcal/Mol)
 Warning -- explicit consideration of   2 degrees of freedom as
           vibrations may cause significant error
 Vibrational temperatures:    735.79   736.04
          (Kelvin)

 Zero-point correction=                           0.002330 (Hartree/Particle)
 Thermal correction to Energy=                    0.005122
 Thermal correction to Enthalpy=                  0.006067
 Thermal correction to Gibbs Free Energy=        -0.018801
 Sum of electronic and zero-point Energies=           -100.769866
 Sum of electronic and thermal Energies=              -100.767074
 Sum of electronic and thermal Enthalpies=            -100.766130
 Sum of electronic and thermal Free Energies=         -100.790998

                     E (Thermal)             CV                S
                      KCal/Mol        Cal/Mol-Kelvin    Cal/Mol-Kelvin
 Total                    3.214              7.417             52.339
 Electronic               0.000              0.000              1.377
 Translational            0.889              2.981             35.068
 Rotational               0.592              1.987             14.633
 Vibrational              1.733              2.449              1.260
 Vibration     1          0.867              1.225              0.630
 Vibration     2          0.867              1.224              0.630

 Normal termination of Gaussian 16 at Sat Aug 23 01:37:06 2025.
