 Gaussian 16, Revision C.01,
 Gaussian 16:  ES64L-G16RevC.01  3-Jul-2019

 -----------------------------------------
 # sp b3lyp/6-311g** Force nosymm scf=(qc)
 -----------------------------------------

 -------------------
 Title Card Required
 -------------------
 Symbolic Z-matrix:
 Charge =  0 Multiplicity = 2

                          Input orientation:
 ---------------------------------------------------------------------
 Center     Atomic      Atomic             Coordinates (Angstroms)
 Number     Number       Type             X           Y           Z
 ---------------------------------------------------------------------
      1          1           0        0.000000    0.000000    0.000000
      2          1           0       -3.050000    0.000000    0.000000
      3          9           0        2.050000    0.000000    0.000000
 ---------------------------------------------------------------------

 SCF Done:  E(UB3LYP) =  -100.783441559     a.u. after   20 cycles

 Alpha  occ. eigenvalues --  -24.65961  -1.07921  -0.37743  -0.37501  -0.37501
 Alpha  occ. eigenvalues --   -0.33527
 Alpha virt. eigenvalues --   -0.20931   0.20882   0.27621   0.90695   0.95709
 Alpha virt. eigenvalues --    0.95709   1.08403   1.21759   1.21759   1.23784
 Alpha virt. eigenvalues --    1.23784   1.24259   1.50586   2.12501   2.14446

  Beta  occ. eigenvalues --  -24.68390  -1.14727  -0.47385  -0.39898  -0.39898
  Beta virt. eigenvalues --   -0.13945  -0.05033   0.30401   0.39297   0.89055
  Beta virt. eigenvalues --    0.94950   0.94950   1.06224   1.35968   1.35968
  Beta virt. eigenvalues --    1.46989   1.46989   1.47399   1.58460   2.30763

 Mulliken charges and spin densities:
               1          2
     1  H    0.180213   0.768133
     2  H    0.004231   0.995891
     3  F   -0.184444  -0.764025
 Sum of Mulliken charges =   0.00000   1.00000

 Dipole moment (field-independent basis, Debye):
    X=             -1.9377    Y=             -0.0000    Z=             -0.0000  Tot=              1.9377
 Quadrupole moment (field-independent basis, Debye-Ang):
   XX=            -10.0057   YY=             -7.4863   ZZ=             -7.4863
   XY=             -0.0000   XZ=             -0.0000   YZ=              0.0000

  Exact polarizability:      30.514      -0.000       2.055      -0.000       0.000       2.055
 Approx polarizability:      42.804      -0.000       1.944      -0.000      -0.000       1.944

 ******    1 imaginary frequencies (negative Signs) ******

                      1                      2                      3
                      A                      A                      A
 Frequencies --  -1035.6909               115.6684               437.8939
 Red. masses --      1.0606                 1.0510                 1.0234
 Frc consts  --      0.6703                 0.0083                 0.1156
 IR Inten    --     92.6191                 2.0106                29.4815

                      4
                      A
 Frequencies --    437.8939
 Red. masses --      1.0234
 Frc consts  --      0.1156
 IR Inten    --     29.4815

 - Thermochemistry -
 -------------------
 Temperature   298.150 Kelvin.  Pressure   1.00000 Atm.
 Atom     1 has atomic number  1 and mass   1.00783

 Molecular mass:    21.01405 amu.
 Principal axes and moments of inertia in atomic units:
                           1         2         3
     Eigenvalues --     0.00000  99.91095  99.91095
           X            1.00000  -0.00000   0.00000
           Y            0.00000   1.00000   0.00000
           Z            0.00000   0.00000   1.00000
 This molecule is a prolate symmetric top.
 Rotational symmetry number  1.
 Rotational temperature (Kelvin)      0.86691
 Rotational constant (GHZ):          18.063498
    1 imaginary frequencies ignored.
 Zero-point vibrational energy       5930.2 (Joules/Mol)
                                    1.41736 (Kcal/Mol)
 Warning -- explicit consideration of   3 degrees of freedom as
           vibrations may cause significant error
 Vibrational temperatures:    166.42   630.03   630.03
          (Kelvin)

 Zero-point correction=                           0.002259 (Hartree/Particle)
 Thermal correction to Energy=                    0.005873
 Thermal correction to Enthalpy=                  0.006817
 Thermal correction to Gibbs Free Energy=        -0.019257
 Sum of electronic and zero-point Energies=           -100.781183
 Sum of electronic and thermal Energies=              -100.777569
 Sum of electronic and thermal Enthalpies=            -100.776625
 Sum of electronic and thermal Free Energies=         -100.802698

                     E (Thermal)             CV                S
                      KCal/Mol        Cal/Mol-Kelvin    Cal/Mol-Kelvin
 Total                    3.685              9.680             54.877
 Electronic               0.000              0.000              1.377
 Translational            0.889              2.981             35.068
 Rotational               0.592              1.987             13.593
 Vibrational              2.204              4.712              4.838
 Vibration     1          0.608              1.936              3.171
 Vibration     2          0.798              1.388              0.833
 Vibration     3          0.798              1.388              0.833

 Normal termination of Gaussian 16 at Fri Aug 22 17:01:14 2025.
