 Gaussian 16, Revision C.01,
 Gaussian 16:  ES64L-G16RevC.01  3-Jul-2019

 -----------------------------------------
 # sp b3lyp/6-311g** Force nosymm scf=(qc)
 -----------------------------------------

 -------------------
 Title Card Required
 -------------------
 Symbolic Z-matrix:
 Charge =  0 Multiplicity = 2

                          Input orientation:
 ---------------------------------------------------------------------
 Center     Atomic      Atomic             Coordinates (Angstroms)
 Number     Number       Type             X           Y           Z
 ---------------------------------------------------------------------
      1          1           0        0.000000    0.000000    0.000000
      2          1           0       -0.600000    0.000000    0.000000
      3          9           0        2.750000    0.000000    0.000000
 ---------------------------------------------------------------------

 SCF Done:  E(UB3LYP) =  -100.915295685     a.u. after   55 cycles

 Alpha  occ. eigenvalues --  -24.76709  -1.22492  -0.55679  -0.47387  -0.46827
 Alpha  occ. eigenvalues --   -0.45878
 Alpha virt. eigenvalues --    0.09197   0.19331   0.52996   0.85804   0.90673
 Alpha virt. eigenvalues --    0.93804   1.10075   1.10433   1.10445   1.61176
 Alpha virt. eigenvalues --    1.83257   1.92982   1.92996   2.38437   3.64594

  Beta  occ. eigenvalues --  -24.73546  -1.13400  -0.46549  -0.43655  -0.43540
  Beta virt. eigenvalues --   -0.26294   0.09277   0.19383   0.53113   0.92171
  Beta virt. eigenvalues --    0.95255   0.95742   1.10434   1.10444   1.13583
  Beta virt. eigenvalues --    1.61190   1.83282   1.92981   1.92995   2.38447

 Mulliken charges and spin densities:
               1          2
     1  H   -0.009562  -0.002105
     2  H   -0.003364   0.000214
     3  F    0.012926   1.001891
 Sum of Mulliken charges =   0.00000   1.00000

 Dipole moment (field-independent basis, Debye):
    X=              0.1147    Y=              0.0000    Z=              0.0000  Tot=              0.1147
 Quadrupole moment (field-independent basis, Debye-Ang):
   XX=             -5.9857   YY=             -6.3170   ZZ=             -6.3157
   XY=             -0.0000   XZ=             -0.0000   YZ=              0.4316

  Exact polarizability:       6.948      -0.000       2.111      -0.000       0.226       2.111
 Approx polarizability:       7.447      -0.000       2.253      -0.000       0.285       2.254

 ******    2 imaginary frequencies (negative Signs) ******

                      1                      2                      3
                      A                      A                      A
 Frequencies --  -2751.1627             -2751.0498               116.2401
 Red. masses --      1.0088                 1.0088                 1.1085
 Frc consts  --      4.4987                 4.4983                 0.0088
 IR Inten    --      0.0614                 0.0506                 0.2455

                      4
                      A
 Frequencies --   7042.1737
 Red. masses --      1.0078
 Frc consts  --     29.4475
 IR Inten    --      0.8545

 - Thermochemistry -
 -------------------
 Temperature   298.150 Kelvin.  Pressure   1.00000 Atm.
 Atom     1 has atomic number  1 and mass   1.00783

 Molecular mass:    21.01405 amu.
 Principal axes and moments of inertia in atomic units:
                           1         2         3
     Eigenvalues --     0.00000  61.18467  61.18467
           X            1.00000  -0.00000   0.00000
           Y            0.00000   1.00000   0.00000
           Z            0.00000   0.00000   1.00000
 This molecule is a prolate symmetric top.
 Rotational symmetry number  1.
 Rotational temperature (Kelvin)      1.41561
 Rotational constant (GHZ):          29.496623
    2 imaginary frequencies ignored.
 Zero-point vibrational energy      42816.8 (Joules/Mol)
                                   10.23347 (Kcal/Mol)
 Warning -- explicit consideration of   1 degrees of freedom as
           vibrations may cause significant error
 Vibrational temperatures:    167.24 10132.12
          (Kelvin)

 Zero-point correction=                           0.016308 (Hartree/Particle)
 Thermal correction to Energy=                    0.019373
 Thermal correction to Enthalpy=                  0.020317
 Thermal correction to Gibbs Free Energy=        -0.004498
 Sum of electronic and zero-point Energies=           -100.898988
 Sum of electronic and thermal Energies=              -100.895923
 Sum of electronic and thermal Enthalpies=            -100.894979
 Sum of electronic and thermal Free Energies=         -100.919793

                     E (Thermal)             CV                S
                      KCal/Mol        Cal/Mol-Kelvin    Cal/Mol-Kelvin
 Total                   12.156              6.904             52.226
 Electronic               0.000              0.000              1.377
 Translational            0.889              2.981             35.068
 Rotational               0.592              1.987             12.619
 Vibrational             10.675              1.936              3.162
 Vibration     1          0.608              1.936              3.162

 Normal termination of Gaussian 16 at Fri Aug 22 18:28:02 2025.
