 Gaussian 16, Revision C.01,
 Gaussian 16:  ES64L-G16RevC.01  3-Jul-2019

 -----------------------------------------
 # sp b3lyp/6-311g** Force nosymm scf=(qc)
 -----------------------------------------

 -------------------
 Title Card Required
 -------------------
 Symbolic Z-matrix:
 Charge =  0 Multiplicity = 2

                          Input orientation:
 ---------------------------------------------------------------------
 Center     Atomic      Atomic             Coordinates (Angstroms)
 Number     Number       Type             X           Y           Z
 ---------------------------------------------------------------------
      1          1           0        0.000000    0.000000    0.000000
      2          1           0       -1.600000    0.000000    0.000000
      3          9           0        3.700000    0.000000    0.000000
 ---------------------------------------------------------------------

 SCF Done:  E(UB3LYP) =  -100.806045237     a.u. after  139 cycles

 Alpha  occ. eigenvalues --  -24.76275  -1.22167  -0.55370  -0.46550  -0.46525
 Alpha  occ. eigenvalues --   -0.33273
 Alpha virt. eigenvalues --   -0.10253   0.25412   0.30569   0.86006   0.90883
 Alpha virt. eigenvalues --    0.91592   1.01012   1.06697   1.22401   1.22402
 Alpha virt. eigenvalues --    1.39501   1.39504   1.74549   2.19410   2.43899

  Beta  occ. eigenvalues --  -24.73120  -1.13094  -0.43391  -0.43362  -0.33266
  Beta virt. eigenvalues --   -0.26018  -0.10279   0.25393   0.30620   0.92385
  Beta virt. eigenvalues --    0.93055   0.95473   1.05127   1.06700   1.22395
  Beta virt. eigenvalues --    1.22397   1.39495   1.39496   1.74576   2.19541

 Mulliken charges and spin densities:
               1          2
     1  H    0.000816  -0.452392
     2  H   -0.002330   0.452333
     3  F    0.001514   1.000059
 Sum of Mulliken charges =   0.00000   1.00000

 Dipole moment (field-independent basis, Debye):
    X=              0.0340    Y=             -0.0000    Z=              0.0000  Tot=              0.0340
 Quadrupole moment (field-independent basis, Debye-Ang):
   XX=             -6.4374   YY=             -7.0069   ZZ=             -7.6689
   XY=             -0.0001   XZ=              0.0000   YZ=             -0.2780

  Exact polarizability:      23.547      -0.000       2.437       0.000      -0.149       2.082
 Approx polarizability:      41.159      -0.000       2.519       0.000      -0.187       2.073

 ******    2 imaginary frequencies (negative Signs) ******

                      1                      2                      3
                      A                      A                      A
 Frequencies --  -2061.9338               -52.7034              1057.1956
 Red. masses --      1.0078                 1.1085                 1.0109
 Frc consts  --      2.5246                 0.0018                 0.6657
 IR Inten    --      0.0293                 0.0881                 0.0020

                      4
                      A
 Frequencies --   1058.3399
 Red. masses --      1.0109
 Frc consts  --      0.6671
 IR Inten    --      0.0008

 - Thermochemistry -
 -------------------
 Temperature   298.150 Kelvin.  Pressure   1.00000 Atm.
 Atom     1 has atomic number  1 and mass   1.00783

 Molecular mass:    21.01405 amu.
 Principal axes and moments of inertia in atomic units:
                           1         2         3
     Eigenvalues --     0.00000 136.38542 136.38542
           X            1.00000  -0.00000   0.00000
           Y            0.00000   1.00000   0.00000
           Z            0.00000   0.00000   1.00000
 This molecule is a prolate symmetric top.
 Rotational symmetry number  1.
 Rotational temperature (Kelvin)      0.63507
 Rotational constant (GHZ):          13.232655
    2 imaginary frequencies ignored.
 Zero-point vibrational energy      12653.7 (Joules/Mol)
                                    3.02431 (Kcal/Mol)
 Vibrational temperatures:   1521.07  1522.72
          (Kelvin)

 Zero-point correction=                           0.004820 (Hartree/Particle)
 Thermal correction to Energy=                    0.007239
 Thermal correction to Enthalpy=                  0.008183
 Thermal correction to Gibbs Free Energy=        -0.015956
 Sum of electronic and zero-point Energies=           -100.801226
 Sum of electronic and thermal Energies=              -100.798806
 Sum of electronic and thermal Enthalpies=            -100.797862
 Sum of electronic and thermal Free Energies=         -100.822001

                     E (Thermal)             CV                S
                      KCal/Mol        Cal/Mol-Kelvin    Cal/Mol-Kelvin
 Total                    4.542              5.604             50.805
 Electronic               0.000              0.000              1.377
 Translational            0.889              2.981             35.068
 Rotational               0.592              1.987             14.212
 Vibrational              3.061              0.636              0.148

 Normal termination of Gaussian 16 at Fri Aug 22 23:57:59 2025.
