 Gaussian 16, Revision C.01,
 Gaussian 16:  ES64L-G16RevC.01  3-Jul-2019

 -----------------------------------------
 # sp b3lyp/6-311g** Force nosymm scf=(qc)
 -----------------------------------------

 -------------------
 Title Card Required
 -------------------
 Symbolic Z-matrix:
 Charge =  0 Multiplicity = 2

                          Input orientation:
 ---------------------------------------------------------------------
 Center     Atomic      Atomic             Coordinates (Angstroms)
 Number     Number       Type             X           Y           Z
 ---------------------------------------------------------------------
      1          1           0        0.000000    0.000000    0.000000
      2          1           0       -3.000000    0.000000    0.000000
      3          9           0        2.950000    0.000000    0.000000
 ---------------------------------------------------------------------

 SCF Done:  E(UB3LYP) =  -100.762279105     a.u. after   21 cycles

 Alpha  occ. eigenvalues --  -24.73920  -1.19991  -0.53038  -0.44535  -0.44535
 Alpha  occ. eigenvalues --   -0.32755
 Alpha virt. eigenvalues --   -0.09188   0.24623   0.35028   0.89615   0.92375
 Alpha virt. eigenvalues --    0.92375   1.04234   1.24784   1.24784   1.25597
 Alpha virt. eigenvalues --    1.42306   1.42306   1.42844   2.15452   2.38683

  Beta  occ. eigenvalues --  -24.70905  -1.11354  -0.41518  -0.41518  -0.33885
  Beta virt. eigenvalues --   -0.24684  -0.07657   0.24688   0.36691   0.93832
  Beta virt. eigenvalues --    0.93832   0.98261   1.07989   1.23479   1.23479
  Beta virt. eigenvalues --    1.24563   1.44610   1.44641   1.44641   2.15835

 Mulliken charges and spin densities:
               1          2
     1  H    0.038805  -0.947866
     2  H    0.001745   0.992625
     3  F   -0.040550   0.955241
 Sum of Mulliken charges =  -0.00000   1.00000

 Dipole moment (field-independent basis, Debye):
    X=             -0.6391    Y=             -0.0000    Z=             -0.0000  Tot=              0.6391
 Quadrupole moment (field-independent basis, Debye-Ang):
   XX=             -8.2948   YY=             -7.6196   ZZ=             -7.6196
   XY=             -0.0000   XZ=             -0.0000   YZ=             -0.0000

  Exact polarizability:      35.337      -0.000       2.021      -0.000      -0.000       2.021
 Approx polarizability:      35.361      -0.000       1.924      -0.000       0.000       1.924

 ******    2 imaginary frequencies (negative Signs) ******

                      1                      2                      3
                      A                      A                      A
 Frequencies --   -458.3497              -190.9532               169.4162
 Red. masses --      1.0278                 1.0853                 1.0181
 Frc consts  --      0.1272                 0.0233                 0.0172
 IR Inten    --     38.1777                 5.5334                 1.3445

                      4
                      A
 Frequencies --    169.4162
 Red. masses --      1.0181
 Frc consts  --      0.0172
 IR Inten    --      1.3445

 - Thermochemistry -
 -------------------
 Temperature   298.150 Kelvin.  Pressure   1.00000 Atm.
 Atom     1 has atomic number  1 and mass   1.00783

 Molecular mass:    21.01405 amu.
 Principal axes and moments of inertia in atomic units:
                           1         2         3
     Eigenvalues --     0.00000 145.06208 145.06208
           X            1.00000  -0.00000   0.00000
           Y            0.00000   1.00000   0.00000
           Z            0.00000   0.00000   1.00000
 This molecule is a prolate symmetric top.
 Rotational symmetry number  1.
 Rotational temperature (Kelvin)      0.59708
 Rotational constant (GHZ):          12.441165
    2 imaginary frequencies ignored.
 Zero-point vibrational energy       2026.7 (Joules/Mol)
                                    0.48439 (Kcal/Mol)
 Warning -- explicit consideration of   2 degrees of freedom as
           vibrations may cause significant error
 Vibrational temperatures:    243.75   243.75
          (Kelvin)

 Zero-point correction=                           0.000772 (Hartree/Particle)
 Thermal correction to Energy=                    0.004353
 Thermal correction to Enthalpy=                  0.005297
 Thermal correction to Gibbs Free Energy=        -0.021151
 Sum of electronic and zero-point Energies=           -100.761507
 Sum of electronic and thermal Energies=              -100.757926
 Sum of electronic and thermal Enthalpies=            -100.756982
 Sum of electronic and thermal Free Energies=         -100.783430

                     E (Thermal)             CV                S
                      KCal/Mol        Cal/Mol-Kelvin    Cal/Mol-Kelvin
 Total                    2.731              8.728             55.664
 Electronic               0.000              0.000              1.377
 Translational            0.889              2.981             35.068
 Rotational               0.592              1.987             14.334
 Vibrational              1.250              3.760              4.884
 Vibration     1          0.625              1.880              2.442
 Vibration     2          0.625              1.880              2.442

 Normal termination of Gaussian 16 at Fri Aug 22 19:18:27 2025.
