 Gaussian 16, Revision C.01,
 Gaussian 16:  ES64L-G16RevC.01  3-Jul-2019

 -----------------------------------------
 # sp b3lyp/6-311g** Force nosymm scf=(qc)
 -----------------------------------------

 -------------------
 Title Card Required
 -------------------
 Symbolic Z-matrix:
 Charge =  0 Multiplicity = 2

                          Input orientation:
 ---------------------------------------------------------------------
 Center     Atomic      Atomic             Coordinates (Angstroms)
 Number     Number       Type             X           Y           Z
 ---------------------------------------------------------------------
      1          1           0        0.000000    0.000000    0.000000
      2          1           0       -2.600000    0.000000    0.000000
      3          9           0        1.100000    0.000000    0.000000
 ---------------------------------------------------------------------

 SCF Done:  E(UB3LYP) =  -100.948870560     a.u. after    5 cycles

 Alpha  occ. eigenvalues --  -24.64160  -1.13762  -0.49561  -0.37986  -0.37986
 Alpha  occ. eigenvalues --   -0.34965
 Alpha virt. eigenvalues --   -0.01674   0.24842   0.30593   0.93681   0.93681
 Alpha virt. eigenvalues --    0.99656   1.21073   1.22577   1.22577   1.34260
 Alpha virt. eigenvalues --    1.35345   1.35345   1.80524   2.13777   2.32556

  Beta  occ. eigenvalues --  -24.64135  -1.13699  -0.49458  -0.37963  -0.37963
  Beta virt. eigenvalues --   -0.10166   0.00259   0.30590   0.37029   0.93683
  Beta virt. eigenvalues --    0.93683   0.99711   1.29240   1.35300   1.35300
  Beta virt. eigenvalues --    1.44344   1.44344   1.47179   1.80758   2.32285

 Mulliken charges and spin densities:
               1          2
     1  H    0.335478   0.001530
     2  H    0.007095   0.990774
     3  F   -0.342573   0.007696
 Sum of Mulliken charges =   0.00000   1.00000

 Dipole moment (field-independent basis, Debye):
    X=             -2.2523    Y=             -0.0000    Z=             -0.0000  Tot=              2.2523
 Quadrupole moment (field-independent basis, Debye-Ang):
   XX=             -8.2978   YY=             -7.0442   ZZ=             -7.0442
   XY=             -0.0000   XZ=             -0.0000   YZ=             -0.0000

  Exact polarizability:      10.229       0.000       2.386      -0.000       0.000       2.386
 Approx polarizability:      12.437       0.000       2.353       0.000       0.000       2.353

 ******    1 imaginary frequencies (negative Signs) ******

                      1                      2                      3
                      A                      A                      A
 Frequencies --   -124.5955              1165.1079              1165.1079
 Red. masses --      1.0521                 1.0308                 1.0308
 Frc consts  --      0.0096                 0.8244                 0.8244
 IR Inten    --      1.4468               144.7661               144.7661

                      4
                      A
 Frequencies --   1919.5973
 Red. masses --      1.0594
 Frc consts  --      2.3001
 IR Inten    --    114.0111

 - Thermochemistry -
 -------------------
 Temperature   298.150 Kelvin.  Pressure   1.00000 Atm.
 Atom     1 has atomic number  1 and mass   1.00783

 Molecular mass:    21.01405 amu.
 Principal axes and moments of inertia in atomic units:
                           1         2         3
     Eigenvalues --     0.00000  49.64836  49.64836
           X            1.00000  -0.00000   0.00000
           Y            0.00000   1.00000   0.00000
           Z            0.00000   0.00000   1.00000
 This molecule is a prolate symmetric top.
 Rotational symmetry number  1.
 Rotational temperature (Kelvin)      1.74455
 Rotational constant (GHZ):          36.350467
    1 imaginary frequencies ignored.
 Zero-point vibrational energy      25419.5 (Joules/Mol)
                                    6.07541 (Kcal/Mol)
 Vibrational temperatures:   1676.33  1676.33  2761.87
          (Kelvin)

 Zero-point correction=                           0.009682 (Hartree/Particle)
 Thermal correction to Energy=                    0.012082
 Thermal correction to Enthalpy=                  0.013026
 Thermal correction to Gibbs Free Energy=        -0.010135
 Sum of electronic and zero-point Energies=           -100.939189
 Sum of electronic and thermal Energies=              -100.936789
 Sum of electronic and thermal Enthalpies=            -100.935845
 Sum of electronic and thermal Free Energies=         -100.959006

                     E (Thermal)             CV                S
                      KCal/Mol        Cal/Mol-Kelvin    Cal/Mol-Kelvin
 Total                    7.581              5.442             48.746
 Electronic               0.000              0.000              1.377
 Translational            0.889              2.981             35.068
 Rotational               0.592              1.987             12.204
 Vibrational              6.100              0.474              0.097

 Normal termination of Gaussian 16 at Fri Aug 22 16:05:44 2025.
