 Gaussian 16, Revision C.01,
 Gaussian 16:  ES64L-G16RevC.01  3-Jul-2019

 -----------------------------------------
 # sp b3lyp/6-311g** Force nosymm scf=(qc)
 -----------------------------------------

 -------------------
 Title Card Required
 -------------------
 Symbolic Z-matrix:
 Charge =  0 Multiplicity = 2

                          Input orientation:
 ---------------------------------------------------------------------
 Center     Atomic      Atomic             Coordinates (Angstroms)
 Number     Number       Type             X           Y           Z
 ---------------------------------------------------------------------
      1          1           0        0.000000    0.000000    0.000000
      2          1           0       -2.050000    0.000000    0.000000
      3          9           0        1.800000    0.000000    0.000000
 ---------------------------------------------------------------------

 SCF Done:  E(UB3LYP) =  -100.814810831     a.u. after   14 cycles

 Alpha  occ. eigenvalues --  -24.66322  -1.12594  -0.45425  -0.38111  -0.38111
 Alpha  occ. eigenvalues --   -0.36867
 Alpha virt. eigenvalues --   -0.13578   0.23609   0.29522   0.91893   0.95021
 Alpha virt. eigenvalues --    0.95021   1.05252   1.20928   1.20928   1.28883
 Alpha virt. eigenvalues --    1.33842   1.33842   1.68636   2.10939   2.28727

  Beta  occ. eigenvalues --  -24.64356  -1.07177  -0.38731  -0.36192  -0.36192
  Beta virt. eigenvalues --   -0.20223  -0.10801   0.25482   0.32059   0.93897
  Beta virt. eigenvalues --    0.95165   0.95165   1.08381   1.24774   1.24774
  Beta virt. eigenvalues --    1.36763   1.36763   1.41550   1.65635   2.12517

 Mulliken charges and spin densities:
               1          2
     1  H    0.205967  -0.527773
     2  H    0.045223   0.910482
     3  F   -0.251190   0.617291
 Sum of Mulliken charges =   0.00000   1.00000

 Dipole moment (field-independent basis, Debye):
    X=             -2.6608    Y=              0.0000    Z=              0.0000  Tot=              2.6608
 Quadrupole moment (field-independent basis, Debye-Ang):
   XX=             -8.9225   YY=             -7.4741   ZZ=             -7.4741
   XY=              0.0000   XZ=              0.0000   YZ=             -0.0000

  Exact polarizability:      42.426       0.000       2.110       0.000      -0.000       2.110
 Approx polarizability:      53.330       0.000       2.015       0.000       0.000       2.015

 ******    2 imaginary frequencies (negative Signs) ******

                      1                      2                      3
                      A                      A                      A
 Frequencies --  -1752.4365              -571.7454               726.0245
 Red. masses --      1.0323                 1.0804                 1.0196
 Frc consts  --      1.8678                 0.2081                 0.3167
 IR Inten    --    106.3550                18.7248                28.8358

                      4
                      A
 Frequencies --    726.0245
 Red. masses --      1.0196
 Frc consts  --      0.3167
 IR Inten    --     28.8358

 - Thermochemistry -
 -------------------
 Temperature   298.150 Kelvin.  Pressure   1.00000 Atm.
 Atom     1 has atomic number  1 and mass   1.00783

 Molecular mass:    21.01405 amu.
 Principal axes and moments of inertia in atomic units:
                           1         2         3
     Eigenvalues --     0.00000  59.49705  59.49705
           X            1.00000  -0.00000   0.00000
           Y            0.00000   1.00000   0.00000
           Z            0.00000   0.00000   1.00000
 This molecule is a prolate symmetric top.
 Rotational symmetry number  1.
 Rotational temperature (Kelvin)      1.45577
 Rotational constant (GHZ):          30.333290
    2 imaginary frequencies ignored.
 Zero-point vibrational energy       8685.2 (Joules/Mol)
                                    2.07581 (Kcal/Mol)
 Vibrational temperatures:   1044.59  1044.59
          (Kelvin)

 Zero-point correction=                           0.003308 (Hartree/Particle)
 Thermal correction to Energy=                    0.005874
 Thermal correction to Enthalpy=                  0.006818
 Thermal correction to Gibbs Free Energy=        -0.016731
 Sum of electronic and zero-point Energies=           -100.811503
 Sum of electronic and thermal Energies=              -100.808937
 Sum of electronic and thermal Enthalpies=            -100.807993
 Sum of electronic and thermal Free Energies=         -100.831541

                     E (Thermal)             CV                S
                      KCal/Mol        Cal/Mol-Kelvin    Cal/Mol-Kelvin
 Total                    3.686              6.528             49.562
 Electronic               0.000              0.000              1.377
 Translational            0.889              2.981             35.068
 Rotational               0.592              1.987             12.563
 Vibrational              2.205              1.560              0.553

 Normal termination of Gaussian 16 at Fri Aug 22 16:43:34 2025.
