 Gaussian 16, Revision C.01,
 Gaussian 16:  ES64L-G16RevC.01  3-Jul-2019

 -----------------------------------------
 # sp b3lyp/6-311g** Force nosymm scf=(qc)
 -----------------------------------------

 -------------------
 Title Card Required
 -------------------
 Symbolic Z-matrix:
 Charge =  0 Multiplicity = 2

                          Input orientation:
 ---------------------------------------------------------------------
 Center     Atomic      Atomic             Coordinates (Angstroms)
 Number     Number       Type             X           Y           Z
 ---------------------------------------------------------------------
      1          1           0        0.000000    0.000000    0.000000
      2          1           0       -1.450000    0.000000    0.000000
      3          9           0        2.750000    0.000000    0.000000
 ---------------------------------------------------------------------

 SCF Done:  E(UB3LYP) =  -100.829275331     a.u. after   22 cycles

 Alpha  occ. eigenvalues --  -24.74874  -1.20884  -0.54033  -0.45358  -0.45358
 Alpha  occ. eigenvalues --   -0.35240
 Alpha virt. eigenvalues --   -0.09776   0.23967   0.30859   0.89821   0.91721
 Alpha virt. eigenvalues --    0.91721   1.05357   1.09099   1.17881   1.17881
 Alpha virt. eigenvalues --    1.42060   1.42060   1.85042   2.22783   2.48450

  Beta  occ. eigenvalues --  -24.71820  -1.12126  -0.42301  -0.42301  -0.34956
  Beta virt. eigenvalues --   -0.25592  -0.09326   0.24416   0.31246   0.93178
  Beta virt. eigenvalues --    0.93178   0.98053   1.07510   1.11756   1.18201
  Beta virt. eigenvalues --    1.18201   1.42337   1.42337   1.85463   2.23378

 Mulliken charges and spin densities:
               1          2
     1  H    0.001481  -0.165864
     2  H    0.024778   0.198930
     3  F   -0.026259   0.966935
 Sum of Mulliken charges =  -0.00000   1.00000

 Dipole moment (field-independent basis, Debye):
    X=             -0.5370    Y=             -0.0000    Z=             -0.0000  Tot=              0.5370
 Quadrupole moment (field-independent basis, Debye-Ang):
   XX=             -6.2494   YY=             -7.6862   ZZ=             -7.6862
   XY=             -0.0000   XZ=             -0.0000   YZ=              0.0000

  Exact polarizability:      51.617       0.000       1.985       0.000       0.000       1.985
 Approx polarizability:      68.897      -0.000       2.048      -0.000      -0.000       2.048

 ******    2 imaginary frequencies (negative Signs) ******

                      1                      2                      3
                      A                      A                      A
 Frequencies --  -1761.9913              -213.3319              1246.2734
 Red. masses --      1.0083                 1.1080                 1.0120
 Frc consts  --      1.8443                 0.0297                 0.9261
 IR Inten    --    494.3636                17.4493                 0.2630

                      4
                      A
 Frequencies --   1246.2736
 Red. masses --      1.0120
 Frc consts  --      0.9261
 IR Inten    --      0.2630

 - Thermochemistry -
 -------------------
 Temperature   298.150 Kelvin.  Pressure   1.00000 Atm.
 Atom     1 has atomic number  1 and mass   1.00783

 Molecular mass:    21.01405 amu.
 Principal axes and moments of inertia in atomic units:
                           1         2         3
     Eigenvalues --     0.00000  82.36667  82.36667
           X            1.00000  -0.00000   0.00000
           Y            0.00000   1.00000   0.00000
           Z            0.00000   0.00000   1.00000
 This molecule is a prolate symmetric top.
 Rotational symmetry number  1.
 Rotational temperature (Kelvin)      1.05157
 Rotational constant (GHZ):          21.911063
    2 imaginary frequencies ignored.
 Zero-point vibrational energy      14908.7 (Joules/Mol)
                                    3.56327 (Kcal/Mol)
 Vibrational temperatures:   1793.11  1793.11
          (Kelvin)

 Zero-point correction=                           0.005678 (Hartree/Particle)
 Thermal correction to Energy=                    0.008067
 Thermal correction to Enthalpy=                  0.009011
 Thermal correction to Gibbs Free Energy=        -0.014614
 Sum of electronic and zero-point Energies=           -100.823597
 Sum of electronic and thermal Energies=              -100.821209
 Sum of electronic and thermal Enthalpies=            -100.820264
 Sum of electronic and thermal Free Energies=         -100.843890

                     E (Thermal)             CV                S
                      KCal/Mol        Cal/Mol-Kelvin    Cal/Mol-Kelvin
 Total                    5.062              5.321             49.723
 Electronic               0.000              0.000              1.377
 Translational            0.889              2.981             35.068
 Rotational               0.592              1.987             13.210
 Vibrational              3.581              0.353              0.068

 Normal termination of Gaussian 16 at Fri Aug 22 18:32:55 2025.
