 Gaussian 16, Revision C.01,
 Gaussian 16:  ES64L-G16RevC.01  3-Jul-2019

 -----------------------------------------
 # sp b3lyp/6-311g** Force nosymm scf=(qc)
 -----------------------------------------

 -------------------
 Title Card Required
 -------------------
 Symbolic Z-matrix:
 Charge =  0 Multiplicity = 2

                          Input orientation:
 ---------------------------------------------------------------------
 Center     Atomic      Atomic             Coordinates (Angstroms)
 Number     Number       Type             X           Y           Z
 ---------------------------------------------------------------------
      1          1           0        0.000000    0.000000    0.000000
      2          1           0       -3.850000    0.000000    0.000000
      3          9           0        2.550000    0.000000    0.000000
 ---------------------------------------------------------------------

 SCF Done:  E(UB3LYP) =  -100.765983962     a.u. after   26 cycles

 Alpha  occ. eigenvalues --  -24.69120  -1.10027  -0.40060  -0.40060  -0.35166
 Alpha  occ. eigenvalues --   -0.32677
 Alpha virt. eigenvalues --   -0.23501   0.21275   0.27642   0.94868   0.94868
 Alpha virt. eigenvalues --    0.96474   1.08568   1.22247   1.22247   1.24783
 Alpha virt. eigenvalues --    1.24783   1.24784   1.28394   2.10856   2.16577

  Beta  occ. eigenvalues --  -24.71984  -1.18188  -0.51090  -0.42917  -0.42917
  Beta virt. eigenvalues --   -0.10182  -0.04173   0.33207   0.40474   0.89754
  Beta virt. eigenvalues --    0.93486   0.93486   1.06106   1.40878   1.40878
  Beta virt. eigenvalues --    1.44351   1.48557   1.48622   1.48622   2.37133

 Mulliken charges and spin densities:
               1          2
     1  H    0.083891   0.905839
     2  H    0.000309   0.999696
     3  F   -0.084201  -0.905535
 Sum of Mulliken charges =   0.00000   1.00000

 Dipole moment (field-independent basis, Debye):
    X=             -1.0993    Y=             -0.0000    Z=             -0.0000  Tot=              1.0993
 Quadrupole moment (field-independent basis, Debye-Ang):
   XX=             -9.2894   YY=             -7.5660   ZZ=             -7.5660
   XY=              0.0000   XZ=             -0.0000   YZ=             -0.0000

  Exact polarizability:      30.667       0.000       2.027      -0.000      -0.000       2.027
 Approx polarizability:      38.776       0.000       1.922      -0.000      -0.000       1.922

 ******    1 imaginary frequencies (negative Signs) ******

                      1                      2                      3
                      A                      A                      A
 Frequencies --   -571.7592                57.9723               221.5609
 Red. masses --      1.0596                 1.0520                 1.0236
 Frc consts  --      0.2041                 0.0021                 0.0296
 IR Inten    --     74.0803                 0.0087                 6.8511

                      4
                      A
 Frequencies --    221.5609
 Red. masses --      1.0236
 Frc consts  --      0.0296
 IR Inten    --      6.8511

 - Thermochemistry -
 -------------------
 Temperature   298.150 Kelvin.  Pressure   1.00000 Atm.
 Atom     1 has atomic number  1 and mass   1.00783

 Molecular mass:    21.01405 amu.
 Principal axes and moments of inertia in atomic units:
                           1         2         3
     Eigenvalues --     0.00000 156.99170 156.99170
           X            1.00000  -0.00000   0.00000
           Y            0.00000   1.00000   0.00000
           Z            0.00000   0.00000   1.00000
 This molecule is a prolate symmetric top.
 Rotational symmetry number  1.
 Rotational temperature (Kelvin)      0.55171
 Rotational constant (GHZ):          11.495775
    1 imaginary frequencies ignored.
 Zero-point vibrational energy       2997.2 (Joules/Mol)
                                    0.71635 (Kcal/Mol)
 Warning -- explicit consideration of   3 degrees of freedom as
           vibrations may cause significant error
 Vibrational temperatures:     83.41   318.78   318.78
          (Kelvin)

 Zero-point correction=                           0.001142 (Hartree/Particle)
 Thermal correction to Energy=                    0.005376
 Thermal correction to Enthalpy=                  0.006320
 Thermal correction to Gibbs Free Energy=        -0.021881
 Sum of electronic and zero-point Energies=           -100.764842
 Sum of electronic and thermal Energies=              -100.760608
 Sum of electronic and thermal Enthalpies=            -100.759664
 Sum of electronic and thermal Free Energies=         -100.787865

                     E (Thermal)             CV                S
                      KCal/Mol        Cal/Mol-Kelvin    Cal/Mol-Kelvin
 Total                    3.373             10.559             59.354
 Electronic               0.000              0.000              1.377
 Translational            0.889              2.981             35.068
 Rotational               0.592              1.987             14.491
 Vibrational              1.892              5.591              8.418
 Vibration     1          0.596              1.974              4.525
 Vibration     2          0.648              1.808              1.946
 Vibration     3          0.648              1.808              1.946

 Normal termination of Gaussian 16 at Fri Aug 22 17:55:39 2025.
