 Gaussian 16, Revision C.01,
 Gaussian 16:  ES64L-G16RevC.01  3-Jul-2019

 -----------------------------------------
 # sp b3lyp/6-311g** Force nosymm scf=(qc)
 -----------------------------------------

 -------------------
 Title Card Required
 -------------------
 Symbolic Z-matrix:
 Charge =  0 Multiplicity = 2

                          Input orientation:
 ---------------------------------------------------------------------
 Center     Atomic      Atomic             Coordinates (Angstroms)
 Number     Number       Type             X           Y           Z
 ---------------------------------------------------------------------
      1          1           0        0.000000    0.000000    0.000000
      2          1           0       -3.100000    0.000000    0.000000
      3          9           0        1.900000    0.000000    0.000000
 ---------------------------------------------------------------------

 SCF Done:  E(UB3LYP) =  -100.795386053     a.u. after   13 cycles

 Alpha  occ. eigenvalues --  -24.67404  -1.13683  -0.46313  -0.39050  -0.39050
 Alpha  occ. eigenvalues --   -0.33984
 Alpha virt. eigenvalues --   -0.14346   0.22464   0.30899   0.90580   0.94893
 Alpha virt. eigenvalues --    0.94893   1.05868   1.23552   1.23552   1.24065
 Alpha virt. eigenvalues --    1.34462   1.34462   1.65309   2.14114   2.27958

  Beta  occ. eigenvalues --  -24.65226  -1.07636  -0.38566  -0.36913  -0.36913
  Beta virt. eigenvalues --   -0.20064  -0.07950   0.22907   0.37057   0.91637
  Beta virt. eigenvalues --    0.95227   0.95227   1.08214   1.22719   1.22719
  Beta virt. eigenvalues --    1.44185   1.44644   1.44644   1.59627   2.12636

 Mulliken charges and spin densities:
               1          2
     1  H    0.218526  -0.678073
     2  H    0.004865   0.993287
     3  F   -0.223392   0.684785
 Sum of Mulliken charges =   0.00000   1.00000

 Dipole moment (field-independent basis, Debye):
    X=             -2.1560    Y=              0.0000    Z=              0.0000  Tot=              2.1560
 Quadrupole moment (field-independent basis, Debye-Ang):
   XX=             -9.9469   YY=             -7.4733   ZZ=             -7.4733
   XY=             -0.0000   XZ=             -0.0000   YZ=             -0.0000

  Exact polarizability:      27.342      -0.000       2.077      -0.000       0.000       2.077
 Approx polarizability:      38.562      -0.000       1.965       0.000       0.000       1.965

 ******    2 imaginary frequencies (negative Signs) ******

                      1                      2                      3
                      A                      A                      A
 Frequencies --  -1315.5675              -192.0449               558.0810
 Red. masses --      1.0558                 1.0557                 1.0248
 Frc consts  --      1.0766                 0.0229                 0.1881
 IR Inten    --    122.7434                 1.5814                43.1875

                      4
                      A
 Frequencies --    558.0810
 Red. masses --      1.0248
 Frc consts  --      0.1881
 IR Inten    --     43.1875

 - Thermochemistry -
 -------------------
 Temperature   298.150 Kelvin.  Pressure   1.00000 Atm.
 Atom     1 has atomic number  1 and mass   1.00783

 Molecular mass:    21.01405 amu.
 Principal axes and moments of inertia in atomic units:
                           1         2         3
     Eigenvalues --     0.00000  94.74982  94.74982
           X            1.00000  -0.00000   0.00000
           Y            0.00000   1.00000   0.00000
           Z            0.00000   0.00000   1.00000
 This molecule is a prolate symmetric top.
 Rotational symmetry number  1.
 Rotational temperature (Kelvin)      0.91413
 Rotational constant (GHZ):          19.047437
    2 imaginary frequencies ignored.
 Zero-point vibrational energy       6676.1 (Joules/Mol)
                                    1.59563 (Kcal/Mol)
 Warning -- explicit consideration of   2 degrees of freedom as
           vibrations may cause significant error
 Vibrational temperatures:    802.95   802.95
          (Kelvin)

 Zero-point correction=                           0.002543 (Hartree/Particle)
 Thermal correction to Energy=                    0.005272
 Thermal correction to Enthalpy=                  0.006217
 Thermal correction to Gibbs Free Energy=        -0.018010
 Sum of electronic and zero-point Energies=           -100.792843
 Sum of electronic and thermal Energies=              -100.790114
 Sum of electronic and thermal Enthalpies=            -100.789169
 Sum of electronic and thermal Free Energies=         -100.813396

                     E (Thermal)             CV                S
                      KCal/Mol        Cal/Mol-Kelvin    Cal/Mol-Kelvin
 Total                    3.308              7.212             50.989
 Electronic               0.000              0.000              1.377
 Translational            0.889              2.981             35.068
 Rotational               0.592              1.987             13.488
 Vibrational              1.827              2.244              1.055
 Vibration     1          0.914              1.122              0.528
 Vibration     2          0.914              1.122              0.528

 Normal termination of Gaussian 16 at Fri Aug 22 16:50:58 2025.
