 Gaussian 16, Revision C.01,
 Gaussian 16:  ES64L-G16RevC.01  3-Jul-2019

 -----------------------------------------
 # sp b3lyp/6-311g** Force nosymm scf=(qc)
 -----------------------------------------

 -------------------
 Title Card Required
 -------------------
 Symbolic Z-matrix:
 Charge =  0 Multiplicity = 2

                          Input orientation:
 ---------------------------------------------------------------------
 Center     Atomic      Atomic             Coordinates (Angstroms)
 Number     Number       Type             X           Y           Z
 ---------------------------------------------------------------------
      1          1           0        0.000000    0.000000    0.000000
      2          1           0       -1.800000    0.000000    0.000000
      3          9           0        1.700000    0.000000    0.000000
 ---------------------------------------------------------------------

 SCF Done:  E(UB3LYP) =  -100.834570604     a.u. after   12 cycles

 Alpha  occ. eigenvalues --  -24.65685  -1.12001  -0.45381  -0.37955  -0.37613
 Alpha  occ. eigenvalues --   -0.37613
 Alpha virt. eigenvalues --   -0.11984   0.22663   0.29149   0.91036   0.94692
 Alpha virt. eigenvalues --    0.94692   1.04090   1.19289   1.19289   1.33949
 Alpha virt. eigenvalues --    1.34751   1.34751   1.74100   2.13161   2.32795

  Beta  occ. eigenvalues --  -24.63917  -1.07165  -0.39387  -0.35896  -0.35896
  Beta virt. eigenvalues --   -0.20901  -0.09356   0.25456   0.30370   0.94022
  Beta virt. eigenvalues --    0.94718   0.94718   1.07603   1.25355   1.25355
  Beta virt. eigenvalues --    1.35644   1.35644   1.42323   1.74645   2.14793

 Mulliken charges and spin densities:
               1          2
     1  H    0.213841  -0.401065
     2  H    0.061723   0.846767
     3  F   -0.275564   0.554298
 Sum of Mulliken charges =   0.00000   1.00000

 Dipole moment (field-independent basis, Debye):
    X=             -2.8270    Y=             -0.0000    Z=             -0.0000  Tot=              2.8270
 Quadrupole moment (field-independent basis, Debye-Ang):
   XX=             -8.5839   YY=             -7.4137   ZZ=             -7.4137
   XY=             -0.0000   XZ=             -0.0000   YZ=             -0.0000

  Exact polarizability:      42.653      -0.000       2.163      -0.000       0.000       2.163
 Approx polarizability:      57.501      -0.000       2.080      -0.000      -0.000       2.080

 ******    2 imaginary frequencies (negative Signs) ******

                      1                      2                      3
                      A                      A                      A
 Frequencies --  -2141.4226              -605.9741               870.0090
 Red. masses --      1.0260                 1.0873                 1.0187
 Frc consts  --      2.7720                 0.2352                 0.4543
 IR Inten    --    194.5857                 5.6314                26.2706

                      4
                      A
 Frequencies --    870.0090
 Red. masses --      1.0187
 Frc consts  --      0.4543
 IR Inten    --     26.2706

 - Thermochemistry -
 -------------------
 Temperature   298.150 Kelvin.  Pressure   1.00000 Atm.
 Atom     1 has atomic number  1 and mass   1.00783

 Molecular mass:    21.01405 amu.
 Principal axes and moments of inertia in atomic units:
                           1         2         3
     Eigenvalues --     0.00000  49.82170  49.82170
           X            1.00000  -0.00000   0.00000
           Y            0.00000   1.00000   0.00000
           Z            0.00000   0.00000   1.00000
 This molecule is a prolate symmetric top.
 Rotational symmetry number  1.
 Rotational temperature (Kelvin)      1.73848
 Rotational constant (GHZ):          36.224000
    2 imaginary frequencies ignored.
 Zero-point vibrational energy      10407.6 (Joules/Mol)
                                    2.48748 (Kcal/Mol)
 Vibrational temperatures:   1251.75  1251.75
          (Kelvin)

 Zero-point correction=                           0.003964 (Hartree/Particle)
 Thermal correction to Energy=                    0.006445
 Thermal correction to Enthalpy=                  0.007390
 Thermal correction to Gibbs Free Energy=        -0.015878
 Sum of electronic and zero-point Energies=           -100.830607
 Sum of electronic and thermal Energies=              -100.828125
 Sum of electronic and thermal Enthalpies=            -100.827181
 Sum of electronic and thermal Free Energies=         -100.850449

                     E (Thermal)             CV                S
                      KCal/Mol        Cal/Mol-Kelvin    Cal/Mol-Kelvin
 Total                    4.045              6.053             48.971
 Electronic               0.000              0.000              1.377
 Translational            0.889              2.981             35.068
 Rotational               0.592              1.987             12.211
 Vibrational              2.563              1.085              0.315

 Normal termination of Gaussian 16 at Fri Aug 22 16:37:15 2025.
