 Gaussian 16, Revision C.01,
 Gaussian 16:  ES64L-G16RevC.01  3-Jul-2019

 -----------------------------------------
 # sp b3lyp/6-311g** Force nosymm scf=(qc)
 -----------------------------------------

 -------------------
 Title Card Required
 -------------------
 Symbolic Z-matrix:
 Charge =  0 Multiplicity = 2

                          Input orientation:
 ---------------------------------------------------------------------
 Center     Atomic      Atomic             Coordinates (Angstroms)
 Number     Number       Type             X           Y           Z
 ---------------------------------------------------------------------
      1          1           0        0.000000    0.000000    0.000000
      2          1           0       -1.800000    0.000000    0.000000
      3          9           0        2.200000    0.000000    0.000000
 ---------------------------------------------------------------------

 SCF Done:  E(UB3LYP) =  -100.800545948     a.u. after   12 cycles

 Alpha  occ. eigenvalues --  -24.70112  -1.16403  -0.49257  -0.41334  -0.41334
 Alpha  occ. eigenvalues --   -0.36305
 Alpha virt. eigenvalues --   -0.12862   0.23870   0.31299   0.86834   0.94320
 Alpha virt. eigenvalues --    0.94320   1.03580   1.21224   1.21224   1.23257
 Alpha virt. eigenvalues --    1.34374   1.34374   1.61014   2.12461   2.36562

  Beta  occ. eigenvalues --  -24.67448  -1.08875  -0.38690  -0.38690  -0.36303
  Beta virt. eigenvalues --   -0.22872  -0.11739   0.26308   0.30768   0.90962
  Beta virt. eigenvalues --    0.95480   0.95480   1.07315   1.22255   1.22255
  Beta virt. eigenvalues --    1.28514   1.35503   1.35503   1.61160   2.13226

 Mulliken charges and spin densities:
               1          2
     1  H    0.082701  -0.615092
     2  H    0.047979   0.775915
     3  F   -0.130680   0.839176
 Sum of Mulliken charges =   0.00000   1.00000

 Dipole moment (field-independent basis, Debye):
    X=             -1.8605    Y=             -0.0000    Z=              0.0000  Tot=              1.8605
 Quadrupole moment (field-independent basis, Debye-Ang):
   XX=             -8.1590   YY=             -7.6154   ZZ=             -7.6154
   XY=             -0.0000   XZ=              0.0000   YZ=              0.0000

  Exact polarizability:      57.725      -0.000       2.039       0.000      -0.000       2.039
 Approx polarizability:      72.794       0.000       1.967      -0.000       0.000       1.967

 ******    2 imaginary frequencies (negative Signs) ******

                      1                      2                      3
                      A                      A                      A
 Frequencies --  -1784.5608              -496.5861               760.7283
 Red. masses --      1.0105                 1.1053                 1.0157
 Frc consts  --      1.8960                 0.1606                 0.3463
 IR Inten    --    211.1243                47.0720                 3.0208

                      4
                      A
 Frequencies --    760.7283
 Red. masses --      1.0157
 Frc consts  --      0.3463
 IR Inten    --      3.0208

 - Thermochemistry -
 -------------------
 Temperature   298.150 Kelvin.  Pressure   1.00000 Atm.
 Atom     1 has atomic number  1 and mass   1.00783

 Molecular mass:    21.01405 amu.
 Principal axes and moments of inertia in atomic units:
                           1         2         3
     Eigenvalues --     0.00000  68.36833  68.36833
           X            1.00000  -0.00000   0.00000
           Y            0.00000   1.00000   0.00000
           Z            0.00000   0.00000   1.00000
 This molecule is a prolate symmetric top.
 Rotational symmetry number  1.
 Rotational temperature (Kelvin)      1.26687
 Rotational constant (GHZ):          26.397328
    2 imaginary frequencies ignored.
 Zero-point vibrational energy       9100.3 (Joules/Mol)
                                    2.17503 (Kcal/Mol)
 Vibrational temperatures:   1094.52  1094.52
          (Kelvin)

 Zero-point correction=                           0.003466 (Hartree/Particle)
 Thermal correction to Energy=                    0.006008
 Thermal correction to Enthalpy=                  0.006952
 Thermal correction to Gibbs Free Energy=        -0.016695
 Sum of electronic and zero-point Energies=           -100.797080
 Sum of electronic and thermal Energies=              -100.794538
 Sum of electronic and thermal Enthalpies=            -100.793594
 Sum of electronic and thermal Free Energies=         -100.817241

                     E (Thermal)             CV                S
                      KCal/Mol        Cal/Mol-Kelvin    Cal/Mol-Kelvin
 Total                    3.770              6.403             49.768
 Electronic               0.000              0.000              1.377
 Translational            0.889              2.981             35.068
 Rotational               0.592              1.987             12.839
 Vibrational              2.289              1.435              0.483

 Normal termination of Gaussian 16 at Fri Aug 22 17:11:28 2025.
