 Gaussian 16, Revision C.01,
 Gaussian 16:  ES64L-G16RevC.01  3-Jul-2019

 -----------------------------------------
 # sp b3lyp/6-311g** Force nosymm scf=(qc)
 -----------------------------------------

 -------------------
 Title Card Required
 -------------------
 Symbolic Z-matrix:
 Charge =  0 Multiplicity = 2

                          Input orientation:
 ---------------------------------------------------------------------
 Center     Atomic      Atomic             Coordinates (Angstroms)
 Number     Number       Type             X           Y           Z
 ---------------------------------------------------------------------
      1          1           0        0.000000    0.000000    0.000000
      2          1           0       -1.350000    0.000000    0.000000
      3          9           0        1.550000    0.000000    0.000000
 ---------------------------------------------------------------------

 SCF Done:  E(UB3LYP) =  -100.882625379     a.u. after   12 cycles

 Alpha  occ. eigenvalues --  -24.66423  -1.13203  -0.48633  -0.39168  -0.38517
 Alpha  occ. eigenvalues --   -0.38517
 Alpha virt. eigenvalues --   -0.05094   0.20569   0.30060   0.92687   0.92687
 Alpha virt. eigenvalues --    0.97237   1.03949   1.12533   1.12533   1.45073
 Alpha virt. eigenvalues --    1.45073   1.50105   1.95969   2.21603   2.47717

  Beta  occ. eigenvalues --  -24.64574  -1.08182  -0.41386  -0.36730  -0.36730
  Beta virt. eigenvalues --   -0.22707  -0.01981   0.23199   0.31104   0.93056
  Beta virt. eigenvalues --    0.93056   1.02375   1.07037   1.17317   1.17317
  Beta virt. eigenvalues --    1.46776   1.46776   1.54585   1.99779   2.25054

 Mulliken charges and spin densities:
               1          2
     1  H    0.198473  -0.209778
     2  H    0.071861   0.638113
     3  F   -0.270334   0.571664
 Sum of Mulliken charges =   0.00000   1.00000

 Dipole moment (field-independent basis, Debye):
    X=             -2.5127    Y=             -0.0000    Z=              0.0000  Tot=              2.5127
 Quadrupole moment (field-independent basis, Debye-Ang):
   XX=             -7.9185   YY=             -7.2299   ZZ=             -7.2299
   XY=             -0.0000   XZ=              0.0000   YZ=             -0.0000

  Exact polarizability:      36.737      -0.000       2.309       0.000      -0.000       2.309
 Approx polarizability:      56.000      -0.000       2.259       0.000       0.000       2.259

 ******    2 imaginary frequencies (negative Signs) ******

                      1                      2                      3
                      A                      A                      A
 Frequencies --  -2629.0771              -317.7317              1148.6699
 Red. masses --      1.0214                 1.0925                 1.0164
 Frc consts  --      4.1598                 0.0650                 0.7901
 IR Inten    --    750.1402                 8.4030                14.4060

                      4
                      A
 Frequencies --   1148.6699
 Red. masses --      1.0164
 Frc consts  --      0.7901
 IR Inten    --     14.4060

 - Thermochemistry -
 -------------------
 Temperature   298.150 Kelvin.  Pressure   1.00000 Atm.
 Atom     1 has atomic number  1 and mass   1.00783

 Molecular mass:    21.01405 amu.
 Principal axes and moments of inertia in atomic units:
                           1         2         3
     Eigenvalues --     0.00000  35.49623  35.49623
           X            1.00000  -0.00000   0.00000
           Y            0.00000   1.00000   0.00000
           Z            0.00000   0.00000   1.00000
 This molecule is a prolate symmetric top.
 Rotational symmetry number  1.
 Rotational temperature (Kelvin)      2.44009
 Rotational constant (GHZ):          50.843178
    2 imaginary frequencies ignored.
 Zero-point vibrational energy      13741.1 (Joules/Mol)
                                    3.28421 (Kcal/Mol)
 Vibrational temperatures:   1652.68  1652.68
          (Kelvin)

 Zero-point correction=                           0.005234 (Hartree/Particle)
 Thermal correction to Energy=                    0.007635
 Thermal correction to Enthalpy=                  0.008580
 Thermal correction to Gibbs Free Energy=        -0.014267
 Sum of electronic and zero-point Energies=           -100.877392
 Sum of electronic and thermal Energies=              -100.874990
 Sum of electronic and thermal Enthalpies=            -100.874046
 Sum of electronic and thermal Free Energies=         -100.896892

                     E (Thermal)             CV                S
                      KCal/Mol        Cal/Mol-Kelvin    Cal/Mol-Kelvin
 Total                    4.791              5.450             48.084
 Electronic               0.000              0.000              1.377
 Translational            0.889              2.981             35.068
 Rotational               0.592              1.987             11.537
 Vibrational              3.310              0.482              0.102

 Normal termination of Gaussian 16 at Fri Aug 22 16:27:40 2025.
