 Gaussian 16, Revision C.01,
 Gaussian 16:  ES64L-G16RevC.01  3-Jul-2019

 -----------------------------------------
 # sp b3lyp/6-311g** Force nosymm scf=(qc)
 -----------------------------------------

 -------------------
 Title Card Required
 -------------------
 Symbolic Z-matrix:
 Charge =  0 Multiplicity = 2

                          Input orientation:
 ---------------------------------------------------------------------
 Center     Atomic      Atomic             Coordinates (Angstroms)
 Number     Number       Type             X           Y           Z
 ---------------------------------------------------------------------
      1          1           0        0.000000    0.000000    0.000000
      2          1           0       -3.100000    0.000000    0.000000
      3          9           0        1.300000    0.000000    0.000000
 ---------------------------------------------------------------------

 SCF Done:  E(UB3LYP) =  -100.901406976     a.u. after    7 cycles

 Alpha  occ. eigenvalues --  -24.64324  -1.11080  -0.46040  -0.37029  -0.37029
 Alpha  occ. eigenvalues --   -0.34358
 Alpha virt. eigenvalues --   -0.08786   0.22162   0.28267   0.93045   0.93045
 Alpha virt. eigenvalues --    1.02082   1.21622   1.23166   1.23166   1.23807
 Alpha virt. eigenvalues --    1.33854   1.33854   1.71024   2.13942   2.24966

  Beta  occ. eigenvalues --  -24.64307  -1.11037  -0.45988  -0.37014  -0.37014
  Beta virt. eigenvalues --   -0.10503  -0.05693   0.25674   0.37801   0.93042
  Beta virt. eigenvalues --    0.93042   1.02128   1.22034   1.33808   1.33808
  Beta virt. eigenvalues --    1.45336   1.45771   1.45771   1.71127   2.24907

 Mulliken charges and spin densities:
               1          2
     1  H    0.356164  -0.001253
     2  H    0.003582   0.995968
     3  F   -0.359746   0.005284
 Sum of Mulliken charges =   0.00000   1.00000

 Dipole moment (field-independent basis, Debye):
    X=             -2.4444    Y=             -0.0000    Z=             -0.0000  Tot=              2.4444
 Quadrupole moment (field-independent basis, Debye-Ang):
   XX=             -9.0894   YY=             -7.2000   ZZ=             -7.2000
   XY=             -0.0000   XZ=             -0.0000   YZ=              0.0000

  Exact polarizability:      12.393       0.000       2.284       0.000       0.000       2.284
 Approx polarizability:      18.405      -0.000       2.229       0.000       0.000       2.229

 ******    2 imaginary frequencies (negative Signs) ******

                      1                      2                      3
                      A                      A                      A
 Frequencies --   -628.9457               -99.3823              1152.7509
 Red. masses --      1.0531                 1.0585                 1.0309
 Frc consts  --      0.2454                 0.0062                 0.8071
 IR Inten    --     72.1229                 0.0914               132.0098

                      4
                      A
 Frequencies --   1152.7509
 Red. masses --      1.0309
 Frc consts  --      0.8071
 IR Inten    --    132.0098

 - Thermochemistry -
 -------------------
 Temperature   298.150 Kelvin.  Pressure   1.00000 Atm.
 Atom     1 has atomic number  1 and mass   1.00783

 Molecular mass:    21.01405 amu.
 Principal axes and moments of inertia in atomic units:
                           1         2         3
     Eigenvalues --     0.00000  70.15113  70.15113
           X            1.00000  -0.00000   0.00000
           Y            0.00000   1.00000   0.00000
           Z            0.00000   0.00000   1.00000
 This molecule is a prolate symmetric top.
 Rotational symmetry number  1.
 Rotational temperature (Kelvin)      1.23468
 Rotational constant (GHZ):          25.726473
    2 imaginary frequencies ignored.
 Zero-point vibrational energy      13790.0 (Joules/Mol)
                                    3.29588 (Kcal/Mol)
 Vibrational temperatures:   1658.55  1658.55
          (Kelvin)

 Zero-point correction=                           0.005252 (Hartree/Particle)
 Thermal correction to Energy=                    0.007653
 Thermal correction to Enthalpy=                  0.008597
 Thermal correction to Gibbs Free Energy=        -0.014891
 Sum of electronic and zero-point Energies=           -100.896155
 Sum of electronic and thermal Energies=              -100.893754
 Sum of electronic and thermal Enthalpies=            -100.892810
 Sum of electronic and thermal Free Energies=         -100.916298

                     E (Thermal)             CV                S
                      KCal/Mol        Cal/Mol-Kelvin    Cal/Mol-Kelvin
 Total                    4.802              5.444             49.436
 Electronic               0.000              0.000              1.377
 Translational            0.889              2.981             35.068
 Rotational               0.592              1.987             12.891
 Vibrational              3.321              0.476              0.100

 Normal termination of Gaussian 16 at Fri Aug 22 16:15:48 2025.
