 Gaussian 16, Revision C.01,
 Gaussian 16:  ES64L-G16RevC.01  3-Jul-2019

 -----------------------------------------
 # sp b3lyp/6-311g** Force nosymm scf=(qc)
 -----------------------------------------

 -------------------
 Title Card Required
 -------------------
 Symbolic Z-matrix:
 Charge =  0 Multiplicity = 2

                          Input orientation:
 ---------------------------------------------------------------------
 Center     Atomic      Atomic             Coordinates (Angstroms)
 Number     Number       Type             X           Y           Z
 ---------------------------------------------------------------------
      1          1           0        0.000000    0.000000    0.000000
      2          1           0       -0.650000    0.000000    0.000000
      3          9           0        1.600000    0.000000    0.000000
 ---------------------------------------------------------------------

 SCF Done:  E(UB3LYP) =  -100.926783504     a.u. after    6 cycles

 Alpha  occ. eigenvalues --  -24.72758  -1.19469  -0.56598  -0.44881  -0.43915
 Alpha  occ. eigenvalues --   -0.43915
 Alpha virt. eigenvalues --    0.10368   0.19872   0.47065   0.88985   0.88985
 Alpha virt. eigenvalues --    0.96728   1.09346   1.09346   1.27436   1.69002
 Alpha virt. eigenvalues --    1.86003   1.88265   1.88265   2.46580   3.53726

  Beta  occ. eigenvalues --  -24.69912  -1.11551  -0.48831  -0.41123  -0.41123
  Beta virt. eigenvalues --   -0.24022   0.11286   0.20622   0.48819   0.90201
  Beta virt. eigenvalues --    0.90201   1.03463   1.10957   1.10957   1.31106
  Beta virt. eigenvalues --    1.71340   1.86858   1.89099   1.89099   2.48474

 Mulliken charges and spin densities:
               1          2
     1  H    0.087036  -0.032891
     2  H    0.013464   0.162291
     3  F   -0.100499   0.870600
 Sum of Mulliken charges =   0.00000   1.00000

 Dipole moment (field-independent basis, Debye):
    X=             -0.8114    Y=             -0.0000    Z=              0.0000  Tot=              0.8114
 Quadrupole moment (field-independent basis, Debye-Ang):
   XX=             -6.5257   YY=             -6.7021   ZZ=             -6.7021
   XY=             -0.0000   XZ=              0.0000   YZ=             -0.0000

  Exact polarizability:      16.837      -0.000       2.211       0.000      -0.000       2.211
 Approx polarizability:      19.951       0.000       2.265       0.000      -0.000       2.265

 ******    2 imaginary frequencies (negative Signs) ******

                      1                      2                      3
                      A                      A                      A
 Frequencies --  -2132.9305             -2132.9305               259.0906
 Red. masses --      1.0106                 1.0106                 1.1085
 Frc consts  --      2.7089                 2.7089                 0.0438
 IR Inten    --      0.0149                 0.0149                60.1716

                      4
                      A
 Frequencies --   5814.1377
 Red. masses --      1.0079
 Frc consts  --     20.0735
 IR Inten    --    500.0246

 - Thermochemistry -
 -------------------
 Temperature   298.150 Kelvin.  Pressure   1.00000 Atm.
 Atom     1 has atomic number  1 and mass   1.00783

 Molecular mass:    21.01405 amu.
 Principal axes and moments of inertia in atomic units:
                           1         2         3
     Eigenvalues --     0.00000  24.87498  24.87498
           X            1.00000  -0.00000   0.00000
           Y            0.00000   1.00000   0.00000
           Z            0.00000   0.00000   1.00000
 This molecule is a prolate symmetric top.
 Rotational symmetry number  1.
 Rotational temperature (Kelvin)      3.48197
 Rotational constant (GHZ):          72.552478
    2 imaginary frequencies ignored.
 Zero-point vibrational energy      36326.0 (Joules/Mol)
                                    8.68212 (Kcal/Mol)
 Warning -- explicit consideration of   1 degrees of freedom as
           vibrations may cause significant error
 Vibrational temperatures:    372.77  8365.25
          (Kelvin)

 Zero-point correction=                           0.013836 (Hartree/Particle)
 Thermal correction to Energy=                    0.016670
 Thermal correction to Enthalpy=                  0.017614
 Thermal correction to Gibbs Free Energy=        -0.005640
 Sum of electronic and zero-point Energies=           -100.912948
 Sum of electronic and thermal Energies=              -100.910113
 Sum of electronic and thermal Enthalpies=            -100.909169
 Sum of electronic and thermal Free Energies=         -100.932424

                     E (Thermal)             CV                S
                      KCal/Mol        Cal/Mol-Kelvin    Cal/Mol-Kelvin
 Total                   10.461              6.715             48.944
 Electronic               0.000              0.000              1.377
 Translational            0.889              2.981             35.068
 Rotational               0.592              1.987             10.830
 Vibrational              8.979              1.747              1.668
 Vibration     1          0.668              1.747              1.668

 Normal termination of Gaussian 16 at Fri Aug 22 16:29:58 2025.
