 Gaussian 16, Revision C.01,
 Gaussian 16:  ES64L-G16RevC.01  3-Jul-2019

 -----------------------------------------
 # sp b3lyp/6-311g** Force nosymm scf=(qc)
 -----------------------------------------

 -------------------
 Title Card Required
 -------------------
 Symbolic Z-matrix:
 Charge =  0 Multiplicity = 2

                          Input orientation:
 ---------------------------------------------------------------------
 Center     Atomic      Atomic             Coordinates (Angstroms)
 Number     Number       Type             X           Y           Z
 ---------------------------------------------------------------------
      1          1           0        0.000000    0.000000    0.000000
      2          1           0       -1.750000    0.000000    0.000000
      3          9           0        0.650000    0.000000    0.000000
 ---------------------------------------------------------------------

 SCF Done:  E(UB3LYP) =  -100.798585793     a.u. after    7 cycles

 Alpha  occ. eigenvalues --  -24.62872  -1.31337  -0.60084  -0.42312  -0.42312
 Alpha  occ. eigenvalues --   -0.35599
 Alpha virt. eigenvalues --    0.12118   0.23068   0.52834   0.92856   0.92856
 Alpha virt. eigenvalues --    0.94983   1.20983   1.20983   1.26348   1.47799
 Alpha virt. eigenvalues --    1.47799   1.58745   2.00201   2.16911   3.15573

  Beta  occ. eigenvalues --  -24.62814  -1.31164  -0.59794  -0.42271  -0.42271
  Beta virt. eigenvalues --   -0.11088   0.13489   0.32678   0.55572   0.92883
  Beta virt. eigenvalues --    0.92883   0.95124   1.34172   1.38473   1.38473
  Beta virt. eigenvalues --    1.49712   1.49712   1.66895   2.02179   2.40714

 Mulliken charges and spin densities:
               1          2
     1  H    0.235617   0.013427
     2  H    0.012042   0.978951
     3  F   -0.247659   0.007623
 Sum of Mulliken charges =   0.00000   1.00000

 Dipole moment (field-independent basis, Debye):
    X=             -1.5864    Y=              0.0000    Z=              0.0000  Tot=              1.5864
 Quadrupole moment (field-independent basis, Debye-Ang):
   XX=             -6.8921   YY=             -6.5531   ZZ=             -6.5531
   XY=              0.0000   XZ=             -0.0000   YZ=             -0.0000

  Exact polarizability:       6.481       0.000       2.508      -0.000       0.000       2.508
 Approx polarizability:       6.282      -0.000       2.508       0.000       0.000       2.508

 ******    2 imaginary frequencies (negative Signs) ******

                      1                      2                      3
                      A                      A                      A
 Frequencies --  -4504.1729             -4504.1729               560.4621
 Red. masses --      1.0329                 1.0329                 1.0533
 Frc consts  --     12.3460                12.3460                 0.1949
 IR Inten    --    177.0269               177.0269                 0.2866

                      4
                      A
 Frequencies --  10869.4902
 Red. masses --      1.0582
 Frc consts  --     73.6617
 IR Inten    --    134.0198

 - Thermochemistry -
 -------------------
 Temperature   298.150 Kelvin.  Pressure   1.00000 Atm.
 Atom     1 has atomic number  1 and mass   1.00783

 Molecular mass:    21.01405 amu.
 Principal axes and moments of inertia in atomic units:
                           1         2         3
     Eigenvalues --     0.00000  20.64519  20.64519
           X            1.00000  -0.00000   0.00000
           Y            0.00000   1.00000   0.00000
           Z            0.00000   0.00000   1.00000
 This molecule is a prolate symmetric top.
 Rotational symmetry number  1.
 Rotational temperature (Kelvin)      4.19536
 Rotational constant (GHZ):          87.417012
    2 imaginary frequencies ignored.
 Zero-point vibrational energy      68366.3 (Joules/Mol)
                                   16.33994 (Kcal/Mol)
 Warning -- explicit consideration of   1 degrees of freedom as
           vibrations may cause significant error
 Vibrational temperatures:    806.38 15638.77
          (Kelvin)

 Zero-point correction=                           0.026039 (Hartree/Particle)
 Thermal correction to Energy=                    0.028583
 Thermal correction to Enthalpy=                  0.029527
 Thermal correction to Gibbs Free Energy=         0.006992
 Sum of electronic and zero-point Energies=           -100.772546
 Sum of electronic and thermal Energies=              -100.770003
 Sum of electronic and thermal Enthalpies=            -100.769059
 Sum of electronic and thermal Free Energies=         -100.791593

                     E (Thermal)             CV                S
                      KCal/Mol        Cal/Mol-Kelvin    Cal/Mol-Kelvin
 Total                   17.936              6.085             47.428
 Electronic               0.000              0.000              1.377
 Translational            0.889              2.981             35.068
 Rotational               0.592              1.987             10.460
 Vibrational             16.455              1.117              0.523
 Vibration     1          0.916              1.117              0.523

 Normal termination of Gaussian 16 at Fri Aug 22 15:43:54 2025.
