 Gaussian 16, Revision C.01,
 Gaussian 16:  ES64L-G16RevC.01  3-Jul-2019

 -----------------------------------------
 # sp b3lyp/6-311g** Force nosymm scf=(qc)
 -----------------------------------------

 -------------------
 Title Card Required
 -------------------
 Symbolic Z-matrix:
 Charge =  0 Multiplicity = 2

                          Input orientation:
 ---------------------------------------------------------------------
 Center     Atomic      Atomic             Coordinates (Angstroms)
 Number     Number       Type             X           Y           Z
 ---------------------------------------------------------------------
      1          1           0        0.000000    0.000000    0.000000
      2          1           0       -2.150000    0.000000    0.000000
      3          9           0        2.900000    0.000000    0.000000
 ---------------------------------------------------------------------

 SCF Done:  E(UB3LYP) =  -100.771767731     a.u. after   21 cycles

 Alpha  occ. eigenvalues --  -24.73862  -1.19932  -0.52978  -0.44482  -0.44482
 Alpha  occ. eigenvalues --   -0.33660
 Alpha virt. eigenvalues --   -0.11661   0.25426   0.32466   0.89955   0.92414
 Alpha virt. eigenvalues --    0.92414   1.04600   1.22141   1.24216   1.24216
 Alpha virt. eigenvalues --    1.37368   1.37368   1.45092   2.12906   2.35381

  Beta  occ. eigenvalues --  -24.70854  -1.11317  -0.41473  -0.41473  -0.34048
  Beta virt. eigenvalues --   -0.24695  -0.10717   0.25994   0.33206   0.93868
  Beta virt. eigenvalues --    0.93868   0.98570   1.08492   1.21850   1.23715
  Beta virt. eigenvalues --    1.23715   1.38894   1.38894   1.46327   2.14102

 Mulliken charges and spin densities:
               1          2
     1  H    0.028034  -0.867669
     2  H    0.013708   0.914797
     3  F   -0.041742   0.952872
 Sum of Mulliken charges =  -0.00000   1.00000

 Dipole moment (field-independent basis, Debye):
    X=             -0.7613    Y=             -0.0000    Z=             -0.0000  Tot=              0.7613
 Quadrupole moment (field-independent basis, Debye-Ang):
   XX=             -7.7367   YY=             -7.6839   ZZ=             -7.6839
   XY=             -0.0000   XZ=             -0.0000   YZ=              0.0000

  Exact polarizability:      55.599      -0.000       2.006      -0.000      -0.000       2.006
 Approx polarizability:      50.777      -0.000       1.924      -0.000       0.000       1.924

 ******    2 imaginary frequencies (negative Signs) ******

                      1                      2                      3
                      A                      A                      A
 Frequencies --  -1122.3786              -268.2570               437.3601
 Red. masses --      1.0083                 1.1079                 1.0147
 Frc consts  --      0.7484                 0.0470                 0.1144
 IR Inten    --     31.6801                31.3527                 0.4469

                      4
                      A
 Frequencies --    437.3601
 Red. masses --      1.0147
 Frc consts  --      0.1144
 IR Inten    --      0.4469

 - Thermochemistry -
 -------------------
 Temperature   298.150 Kelvin.  Pressure   1.00000 Atm.
 Atom     1 has atomic number  1 and mass   1.00783

 Molecular mass:    21.01405 amu.
 Principal axes and moments of inertia in atomic units:
                           1         2         3
     Eigenvalues --     0.00000 111.14219 111.14219
           X            1.00000  -0.00000   0.00000
           Y            0.00000   1.00000   0.00000
           Z            0.00000   0.00000   1.00000
 This molecule is a prolate symmetric top.
 Rotational symmetry number  1.
 Rotational temperature (Kelvin)      0.77931
 Rotational constant (GHZ):          16.238129
    2 imaginary frequencies ignored.
 Zero-point vibrational energy       5232.0 (Joules/Mol)
                                    1.25048 (Kcal/Mol)
 Warning -- explicit consideration of   2 degrees of freedom as
           vibrations may cause significant error
 Vibrational temperatures:    629.26   629.26
          (Kelvin)

 Zero-point correction=                           0.001993 (Hartree/Particle)
 Thermal correction to Energy=                    0.004903
 Thermal correction to Enthalpy=                  0.005847
 Thermal correction to Gibbs Free Energy=        -0.018822
 Sum of electronic and zero-point Energies=           -100.769775
 Sum of electronic and thermal Energies=              -100.766865
 Sum of electronic and thermal Enthalpies=            -100.765921
 Sum of electronic and thermal Free Energies=         -100.790590

                     E (Thermal)             CV                S
                      KCal/Mol        Cal/Mol-Kelvin    Cal/Mol-Kelvin
 Total                    3.077              7.746             51.920
 Electronic               0.000              0.000              1.377
 Translational            0.889              2.981             35.068
 Rotational               0.592              1.987             13.805
 Vibrational              1.595              2.777              1.670
 Vibration     1          0.798              1.389              0.835
 Vibration     2          0.798              1.389              0.835

 Normal termination of Gaussian 16 at Fri Aug 22 19:03:18 2025.
