 Gaussian 16, Revision C.01,
 Gaussian 16:  ES64L-G16RevC.01  3-Jul-2019

 -----------------------------------------
 # sp b3lyp/6-311g** Force nosymm scf=(qc)
 -----------------------------------------

 -------------------
 Title Card Required
 -------------------
 Symbolic Z-matrix:
 Charge =  0 Multiplicity = 2

                          Input orientation:
 ---------------------------------------------------------------------
 Center     Atomic      Atomic             Coordinates (Angstroms)
 Number     Number       Type             X           Y           Z
 ---------------------------------------------------------------------
      1          1           0        0.000000    0.000000    0.000000
      2          1           0       -0.550000    0.000000    0.000000
      3          9           0        3.650000    0.000000    0.000000
 ---------------------------------------------------------------------

 SCF Done:  E(UB3LYP) =  -100.894142240     a.u. after  434 cycles

 Alpha  occ. eigenvalues --  -24.76274  -1.22138  -0.55340  -0.47899  -0.46510
 Alpha  occ. eigenvalues --   -0.46494
 Alpha virt. eigenvalues --    0.09219   0.18593   0.53611   0.86059   0.90935
 Alpha virt. eigenvalues --    0.92820   1.01923   1.11070   1.11073   1.61201
 Alpha virt. eigenvalues --    1.82169   1.96195   1.96198   2.36516   3.64886

  Beta  occ. eigenvalues --  -24.73116  -1.13060  -0.47891  -0.43350  -0.43329
  Beta virt. eigenvalues --   -0.25981   0.09238   0.18602   0.53678   0.92435
  Beta virt. eigenvalues --    0.94340   0.95523   1.05959   1.11070   1.11073
  Beta virt. eigenvalues --    1.61209   1.82191   1.96194   1.96198   2.36517

 Mulliken charges and spin densities:
               1          2
     1  H   -0.002206  -0.000505
     2  H   -0.001279   0.000112
     3  F    0.003484   1.000393
 Sum of Mulliken charges =   0.00000   1.00000

 Dipole moment (field-independent basis, Debye):
    X=              0.0397    Y=              0.0000    Z=             -0.0000  Tot=              0.0397
 Quadrupole moment (field-independent basis, Debye-Ang):
   XX=             -6.1475   YY=             -5.8000   ZZ=             -6.6641
   XY=             -0.0000   XZ=             -0.0000   YZ=              0.0064

  Exact polarizability:       5.890      -0.000       2.299       0.000       0.003       1.834
 Approx polarizability:       6.317      -0.000       2.498      -0.000       0.004       1.916

 ******    3 imaginary frequencies (negative Signs) ******

                      1                      2                      3
                      A                      A                      A
 Frequencies --  -3697.7062             -3697.3769               -40.8559
 Red. masses --      1.0083                 1.0083                 1.1085
 Frc consts  --      8.1229                 8.1215                 0.0011
 IR Inten    --      0.0040                 0.0035                 0.1019

                      4
                      A
 Frequencies --   8343.1715
 Red. masses --      1.0078
 Frc consts  --     41.3331
 IR Inten    --      0.0422

 - Thermochemistry -
 -------------------
 Temperature   298.150 Kelvin.  Pressure   1.00000 Atm.
 Atom     1 has atomic number  1 and mass   1.00783

 Molecular mass:    21.01405 amu.
 Principal axes and moments of inertia in atomic units:
                           1         2         3
     Eigenvalues --     0.00000 100.79783 100.79783
           X            1.00000  -0.00000   0.00000
           Y            0.00000   1.00000   0.00000
           Z            0.00000   0.00000   1.00000
 This molecule is a prolate symmetric top.
 Rotational symmetry number  1.
 Rotational temperature (Kelvin)      0.85928
 Rotational constant (GHZ):          17.904564
    3 imaginary frequencies ignored.
 Zero-point vibrational energy      49903.2 (Joules/Mol)
                                   11.92716 (Kcal/Mol)
 Vibrational temperatures:  12003.96
          (Kelvin)

 Zero-point correction=                           0.019007 (Hartree/Particle)
 Thermal correction to Energy=                    0.021368
 Thermal correction to Enthalpy=                  0.022312
 Thermal correction to Gibbs Free Energy=        -0.001472
 Sum of electronic and zero-point Energies=           -100.875135
 Sum of electronic and thermal Energies=              -100.872775
 Sum of electronic and thermal Enthalpies=            -100.871830
 Sum of electronic and thermal Free Energies=         -100.895614

                     E (Thermal)             CV                S
                      KCal/Mol        Cal/Mol-Kelvin    Cal/Mol-Kelvin
 Total                   13.408              4.968             50.056
 Electronic               0.000              0.000              1.377
 Translational            0.889              2.981             35.068
 Rotational               0.592              1.987             13.611
 Vibrational             11.927              0.000              0.000

 Normal termination of Gaussian 16 at Fri Aug 22 23:10:21 2025.
