 Gaussian 16, Revision C.01,
 Gaussian 16:  ES64L-G16RevC.01  3-Jul-2019

 -----------------------------------------
 # sp b3lyp/6-311g** Force nosymm scf=(qc)
 -----------------------------------------

 -------------------
 Title Card Required
 -------------------
 Symbolic Z-matrix:
 Charge =  0 Multiplicity = 2

                          Input orientation:
 ---------------------------------------------------------------------
 Center     Atomic      Atomic             Coordinates (Angstroms)
 Number     Number       Type             X           Y           Z
 ---------------------------------------------------------------------
      1          1           0        0.000000    0.000000    0.000000
      2          1           0       -1.350000    0.000000    0.000000
      3          9           0        3.500000    0.000000    0.000000
 ---------------------------------------------------------------------

 SCF Done:  E(UB3LYP) =  -100.845178124     a.u. after  210 cycles

 Alpha  occ. eigenvalues --  -24.76386  -1.22260  -0.55459  -0.46655  -0.46614
 Alpha  occ. eigenvalues --   -0.34786
 Alpha virt. eigenvalues --   -0.07129   0.23918   0.31957   0.85938   0.90814
 Alpha virt. eigenvalues --    0.92074   1.01317   1.13052   1.16673   1.16676
 Alpha virt. eigenvalues --    1.47242   1.47245   1.94376   2.27254   2.51582

  Beta  occ. eigenvalues --  -24.73229  -1.13183  -0.43490  -0.43448  -0.34784
  Beta virt. eigenvalues --   -0.26101  -0.07125   0.23926   0.31987   0.92314
  Beta virt. eigenvalues --    0.93578   0.95403   1.05419   1.13064   1.16673
  Beta virt. eigenvalues --    1.16676   1.47242   1.47245   1.94382   2.27256

 Mulliken charges and spin densities:
               1          2
     1  H    0.000404   0.000037
     2  H   -0.003248  -0.000375
     3  F    0.002844   1.000337
 Sum of Mulliken charges =   0.00000   1.00000

 Dipole moment (field-independent basis, Debye):
    X=              0.0492    Y=              0.0000    Z=             -0.0000  Tot=              0.0492
 Quadrupole moment (field-independent basis, Debye-Ang):
   XX=             -6.2527   YY=             -7.6402   ZZ=             -6.7759
   XY=              0.0000   XZ=             -0.0000   YZ=             -0.0037

  Exact polarizability:      19.321       0.000       2.066      -0.000      -0.002       2.531
 Approx polarizability:      32.646       0.000       2.076      -0.000      -0.003       2.658

 ******    2 imaginary frequencies (negative Signs) ******

                      1                      2                      3
                      A                      A                      A
 Frequencies --  -1087.4625               -44.7318              1352.7045
 Red. masses --      1.0078                 1.1085                 1.0104
 Frc consts  --      0.7022                 0.0013                 1.0893
 IR Inten    --      0.2210                 0.1806                 0.0021

                      4
                      A
 Frequencies --   1353.5557
 Red. masses --      1.0104
 Frc consts  --      1.0907
 IR Inten    --      0.0018

 - Thermochemistry -
 -------------------
 Temperature   298.150 Kelvin.  Pressure   1.00000 Atm.
 Atom     1 has atomic number  1 and mass   1.00783

 Molecular mass:    21.01405 amu.
 Principal axes and moments of inertia in atomic units:
                           1         2         3
     Eigenvalues --     0.00000 116.71095 116.71095
           X            1.00000  -0.00000   0.00000
           Y            0.00000   1.00000   0.00000
           Z            0.00000   0.00000   1.00000
 This molecule is a prolate symmetric top.
 Rotational symmetry number  1.
 Rotational temperature (Kelvin)      0.74212
 Rotational constant (GHZ):          15.463341
    2 imaginary frequencies ignored.
 Zero-point vibrational energy      16187.0 (Joules/Mol)
                                    3.86879 (Kcal/Mol)
 Vibrational temperatures:   1946.24  1947.46
          (Kelvin)

 Zero-point correction=                           0.006165 (Hartree/Particle)
 Thermal correction to Energy=                    0.008544
 Thermal correction to Enthalpy=                  0.009488
 Thermal correction to Gibbs Free Energy=        -0.014455
 Sum of electronic and zero-point Energies=           -100.839013
 Sum of electronic and thermal Energies=              -100.836634
 Sum of electronic and thermal Enthalpies=            -100.835690
 Sum of electronic and thermal Free Energies=         -100.859633

                     E (Thermal)             CV                S
                      KCal/Mol        Cal/Mol-Kelvin    Cal/Mol-Kelvin
 Total                    5.361              5.216             50.391
 Electronic               0.000              0.000              1.377
 Translational            0.889              2.981             35.068
 Rotational               0.592              1.987             13.902
 Vibrational              3.880              0.248              0.044

 Normal termination of Gaussian 16 at Fri Aug 22 22:00:26 2025.
