 Gaussian 16, Revision C.01,
 Gaussian 16:  ES64L-G16RevC.01  3-Jul-2019

 -----------------------------------------
 # sp b3lyp/6-311g** Force nosymm scf=(qc)
 -----------------------------------------

 -------------------
 Title Card Required
 -------------------
 Symbolic Z-matrix:
 Charge =  0 Multiplicity = 2

                          Input orientation:
 ---------------------------------------------------------------------
 Center     Atomic      Atomic             Coordinates (Angstroms)
 Number     Number       Type             X           Y           Z
 ---------------------------------------------------------------------
      1          1           0        0.000000    0.000000    0.000000
      2          1           0       -0.600000    0.000000    0.000000
      3          9           0        2.350000    0.000000    0.000000
 ---------------------------------------------------------------------

 SCF Done:  E(UB3LYP) =  -100.914761003     a.u. after  126 cycles

 Alpha  occ. eigenvalues --  -24.76932  -1.22722  -0.55887  -0.48211  -0.47034
 Alpha  occ. eigenvalues --   -0.45062
 Alpha virt. eigenvalues --    0.10084   0.20044   0.52808   0.85517   0.90363
 Alpha virt. eigenvalues --    0.93754   1.10728   1.10770   1.14268   1.61724
 Alpha virt. eigenvalues --    1.82779   1.93273   1.93307   2.40641   3.64357

  Beta  occ. eigenvalues --  -24.73768  -1.13629  -0.46916  -0.43861  -0.43179
  Beta virt. eigenvalues --   -0.26498   0.10206   0.20137   0.52901   0.91851
  Beta virt. eigenvalues --    0.94917   0.95591   1.10770   1.10774   1.17837
  Beta virt. eigenvalues --    1.61751   1.82787   1.93277   1.93306   2.40668

 Mulliken charges and spin densities:
               1          2
     1  H   -0.010539  -0.002512
     2  H   -0.006857  -0.000189
     3  F    0.017396   1.002701
 Sum of Mulliken charges =   0.00000   1.00000

 Dipole moment (field-independent basis, Debye):
    X=              0.1669    Y=             -0.0000    Z=              0.0000  Tot=              0.1669
 Quadrupole moment (field-independent basis, Debye-Ang):
   XX=             -5.9939   YY=             -5.9030   ZZ=             -6.7325
   XY=              0.0000   XZ=              0.0000   YZ=              0.1193

  Exact polarizability:       7.051      -0.000       2.339      -0.000       0.058       1.934
 Approx polarizability:       7.530       0.000       2.548       0.000       0.076       2.022

 ******    2 imaginary frequencies (negative Signs) ******

                      1                      2                      3
                      A                      A                      A
 Frequencies --  -2743.2455             -2212.4640               289.5488
 Red. masses --      1.0091                 1.0091                 1.1085
 Frc consts  --      4.4742                 2.9103                 0.0548
 IR Inten    --      0.1052                 0.0935                 0.6718

                      4
                      A
 Frequencies --   7043.8289
 Red. masses --      1.0078
 Frc consts  --     29.4614
 IR Inten    --      4.9244

 - Thermochemistry -
 -------------------
 Temperature   298.150 Kelvin.  Pressure   1.00000 Atm.
 Atom     1 has atomic number  1 and mass   1.00783

 Molecular mass:    21.01405 amu.
 Principal axes and moments of inertia in atomic units:
                           1         2         3
     Eigenvalues --     0.00000  46.34737  46.34737
           X            1.00000  -0.00000   0.00000
           Y            0.00000   1.00000   0.00000
           Z            0.00000   0.00000   1.00000
 This molecule is a prolate symmetric top.
 Rotational symmetry number  1.
 Rotational temperature (Kelvin)      1.86880
 Rotational constant (GHZ):          38.939454
    2 imaginary frequencies ignored.
 Zero-point vibrational energy      43863.3 (Joules/Mol)
                                   10.48359 (Kcal/Mol)
 Warning -- explicit consideration of   1 degrees of freedom as
           vibrations may cause significant error
 Vibrational temperatures:    416.60 10134.50
          (Kelvin)

 Zero-point correction=                           0.016707 (Hartree/Particle)
 Thermal correction to Energy=                    0.019501
 Thermal correction to Enthalpy=                  0.020445
 Thermal correction to Gibbs Free Energy=        -0.003307
 Sum of electronic and zero-point Energies=           -100.898054
 Sum of electronic and thermal Energies=              -100.895260
 Sum of electronic and thermal Enthalpies=            -100.894316
 Sum of electronic and thermal Free Energies=         -100.918068

                     E (Thermal)             CV                S
                      KCal/Mol        Cal/Mol-Kelvin    Cal/Mol-Kelvin
 Total                   12.237              6.661             49.989
 Electronic               0.000              0.000              1.377
 Translational            0.889              2.981             35.068
 Rotational               0.592              1.987             12.067
 Vibrational             10.756              1.693              1.477
 Vibration     1          0.686              1.693              1.477

 Normal termination of Gaussian 16 at Fri Aug 22 17:24:34 2025.
