 Gaussian 16, Revision C.01,
 Gaussian 16:  ES64L-G16RevC.01  3-Jul-2019

 -----------------------------------------
 # sp b3lyp/6-311g** Force nosymm scf=(qc)
 -----------------------------------------

 -------------------
 Title Card Required
 -------------------
 Symbolic Z-matrix:
 Charge =  0 Multiplicity = 2

                          Input orientation:
 ---------------------------------------------------------------------
 Center     Atomic      Atomic             Coordinates (Angstroms)
 Number     Number       Type             X           Y           Z
 ---------------------------------------------------------------------
      1          1           0        0.000000    0.000000    0.000000
      2          1           0       -3.050000    0.000000    0.000000
      3          9           0        2.100000    0.000000    0.000000
 ---------------------------------------------------------------------

 SCF Done:  E(UB3LYP) =  -100.780607603     a.u. after   19 cycles

 Alpha  occ. eigenvalues --  -24.66278  -1.08099  -0.37756  -0.37756  -0.37463
 Alpha  occ. eigenvalues --   -0.33432
 Alpha virt. eigenvalues --   -0.21242   0.21031   0.27686   0.90899   0.95753
 Alpha virt. eigenvalues --    0.95753   1.08427   1.21616   1.21616   1.23862
 Alpha virt. eigenvalues --    1.23862   1.24338   1.47689   2.12489   2.14526

  Beta  occ. eigenvalues --  -24.68775  -1.15112  -0.47793  -0.40224  -0.40224
  Beta virt. eigenvalues --   -0.13588  -0.04912   0.30950   0.39426   0.88864
  Beta virt. eigenvalues --    0.94873   0.94873   1.06304   1.36497   1.36497
  Beta virt. eigenvalues --    1.47175   1.47175   1.47541   1.56224   2.31572

 Mulliken charges and spin densities:
               1          2
     1  H    0.167626   0.789550
     2  H    0.004080   0.996028
     3  F   -0.171707  -0.785578
 Sum of Mulliken charges =   0.00000   1.00000

 Dipole moment (field-independent basis, Debye):
    X=             -1.8546    Y=             -0.0000    Z=             -0.0000  Tot=              1.8546
 Quadrupole moment (field-independent basis, Debye-Ang):
   XX=             -9.9595   YY=             -7.4957   ZZ=             -7.4957
   XY=             -0.0000   XZ=             -0.0000   YZ=             -0.0000

  Exact polarizability:      31.269      -0.000       2.049      -0.000       0.000       2.049
 Approx polarizability:      43.389      -0.000       1.938      -0.000       0.000       1.938

 ******    1 imaginary frequencies (negative Signs) ******

                      1                      2                      3
                      A                      A                      A
 Frequencies --   -965.1028               121.7232               406.1700
 Red. masses --      1.0609                 1.0507                 1.0230
 Frc consts  --      0.5822                 0.0092                 0.0994
 IR Inten    --     88.7567                 1.9023                25.5574

                      4
                      A
 Frequencies --    406.1700
 Red. masses --      1.0230
 Frc consts  --      0.0994
 IR Inten    --     25.5574

 - Thermochemistry -
 -------------------
 Temperature   298.150 Kelvin.  Pressure   1.00000 Atm.
 Atom     1 has atomic number  1 and mass   1.00783

 Molecular mass:    21.01405 amu.
 Principal axes and moments of inertia in atomic units:
                           1         2         3
     Eigenvalues --     0.00000 102.25368 102.25368
           X            1.00000  -0.00000   0.00000
           Y            0.00000   1.00000   0.00000
           Z            0.00000   0.00000   1.00000
 This molecule is a prolate symmetric top.
 Rotational symmetry number  1.
 Rotational temperature (Kelvin)      0.84705
 Rotational constant (GHZ):          17.649645
    1 imaginary frequencies ignored.
 Zero-point vibrational energy       5586.9 (Joules/Mol)
                                    1.33531 (Kcal/Mol)
 Warning -- explicit consideration of   3 degrees of freedom as
           vibrations may cause significant error
 Vibrational temperatures:    175.13   584.39   584.39
          (Kelvin)

 Zero-point correction=                           0.002128 (Hartree/Particle)
 Thermal correction to Energy=                    0.005789
 Thermal correction to Enthalpy=                  0.006733
 Thermal correction to Gibbs Free Energy=        -0.019417
 Sum of electronic and zero-point Energies=           -100.778480
 Sum of electronic and thermal Energies=              -100.774819
 Sum of electronic and thermal Enthalpies=            -100.773874
 Sum of electronic and thermal Free Energies=         -100.800025

                     E (Thermal)             CV                S
                      KCal/Mol        Cal/Mol-Kelvin    Cal/Mol-Kelvin
 Total                    3.633              9.813             55.038
 Electronic               0.000              0.000              1.377
 Translational            0.889              2.981             35.068
 Rotational               0.592              1.987             13.639
 Vibrational              2.151              4.845              4.953
 Vibration     1          0.609              1.931              3.073
 Vibration     2          0.771              1.457              0.940
 Vibration     3          0.771              1.457              0.940

 Normal termination of Gaussian 16 at Fri Aug 22 17:04:52 2025.
