 Gaussian 16, Revision C.01,
 Gaussian 16:  ES64L-G16RevC.01  3-Jul-2019

 -----------------------------------------
 # sp b3lyp/6-311g** Force nosymm scf=(qc)
 -----------------------------------------

 -------------------
 Title Card Required
 -------------------
 Symbolic Z-matrix:
 Charge =  0 Multiplicity = 2

                          Input orientation:
 ---------------------------------------------------------------------
 Center     Atomic      Atomic             Coordinates (Angstroms)
 Number     Number       Type             X           Y           Z
 ---------------------------------------------------------------------
      1          1           0        0.000000    0.000000    0.000000
      2          1           0       -3.200000    0.000000    0.000000
      3          9           0        0.700000    0.000000    0.000000
 ---------------------------------------------------------------------

 SCF Done:  E(UB3LYP) =  -100.874822521     a.u. after    6 cycles

 Alpha  occ. eigenvalues --  -24.63191  -1.28221  -0.58584  -0.41755  -0.41755
 Alpha  occ. eigenvalues --   -0.33656
 Alpha virt. eigenvalues --    0.06597   0.25278   0.52377   0.93490   0.93490
 Alpha virt. eigenvalues --    0.95788   1.23156   1.23863   1.23863   1.33133
 Alpha virt. eigenvalues --    1.44071   1.44071   1.98068   2.14883   2.86571

  Beta  occ. eigenvalues --  -24.63190  -1.28217  -0.58581  -0.41754  -0.41754
  Beta virt. eigenvalues --   -0.05690   0.07400   0.39437   0.52478   0.93489
  Beta virt. eigenvalues --    0.93489   0.95779   1.31471   1.44072   1.44072
  Beta virt. eigenvalues --    1.51000   1.51000   1.51447   1.98083   2.44700

 Mulliken charges and spin densities:
               1          2
     1  H    0.261437   0.000959
     2  H    0.001334   0.998251
     3  F   -0.262771   0.000790
 Sum of Mulliken charges =   0.00000   1.00000

 Dipole moment (field-independent basis, Debye):
    X=             -1.6002    Y=              0.0000    Z=             -0.0000  Tot=              1.6002
 Quadrupole moment (field-independent basis, Debye-Ang):
   XX=             -7.2453   YY=             -6.6627   ZZ=             -6.6627
   XY=              0.0000   XZ=             -0.0000   YZ=             -0.0000

  Exact polarizability:       4.302       0.000       2.453      -0.000       0.000       2.453
 Approx polarizability:       4.612      -0.000       2.434       0.000       0.000       2.434

 ******    3 imaginary frequencies (negative Signs) ******

                      1                      2                      3
                      A                      A                      A
 Frequencies --  -3553.8454             -3553.8454               -39.4424
 Red. masses --      1.0408                 1.0408                 1.0532
 Frc consts  --      7.7448                 7.7448                 0.0010
 IR Inten    --    211.7928               211.7928                 0.0627

                      4
                      A
 Frequencies --   9073.2280
 Red. masses --      1.0583
 Frc consts  --     51.3320
 IR Inten    --    108.6379

 - Thermochemistry -
 -------------------
 Temperature   298.150 Kelvin.  Pressure   1.00000 Atm.
 Atom     1 has atomic number  1 and mass   1.00783

 Molecular mass:    21.01405 amu.
 Principal axes and moments of inertia in atomic units:
                           1         2         3
     Eigenvalues --     0.00000  52.85207  52.85207
           X            1.00000  -0.00000   0.00000
           Y            0.00000   1.00000   0.00000
           Z            0.00000   0.00000   1.00000
 This molecule is a prolate symmetric top.
 Rotational symmetry number  1.
 Rotational temperature (Kelvin)      1.63880
 Rotational constant (GHZ):          34.147029
    3 imaginary frequencies ignored.
 Zero-point vibrational energy      54270.0 (Joules/Mol)
                                   12.97083 (Kcal/Mol)
 Vibrational temperatures:  13054.35
          (Kelvin)

 Zero-point correction=                           0.020670 (Hartree/Particle)
 Thermal correction to Energy=                    0.023031
 Thermal correction to Enthalpy=                  0.023975
 Thermal correction to Gibbs Free Energy=         0.000801
 Sum of electronic and zero-point Energies=           -100.854152
 Sum of electronic and thermal Energies=              -100.851792
 Sum of electronic and thermal Enthalpies=            -100.850848
 Sum of electronic and thermal Free Energies=         -100.874021

                     E (Thermal)             CV                S
                      KCal/Mol        Cal/Mol-Kelvin    Cal/Mol-Kelvin
 Total                   14.452              4.968             48.773
 Electronic               0.000              0.000              1.377
 Translational            0.889              2.981             35.068
 Rotational               0.592              1.987             12.328
 Vibrational             12.971              0.000              0.000

 Normal termination of Gaussian 16 at Fri Aug 22 15:47:12 2025.
