 Gaussian 16, Revision C.01,
 Gaussian 16:  ES64L-G16RevC.01  3-Jul-2019

 -----------------------------------------
 # sp b3lyp/6-311g** Force nosymm scf=(qc)
 -----------------------------------------

 -------------------
 Title Card Required
 -------------------
 Symbolic Z-matrix:
 Charge =  0 Multiplicity = 2

                          Input orientation:
 ---------------------------------------------------------------------
 Center     Atomic      Atomic             Coordinates (Angstroms)
 Number     Number       Type             X           Y           Z
 ---------------------------------------------------------------------
      1          1           0        0.000000    0.000000    0.000000
      2          1           0       -2.100000    0.000000    0.000000
      3          9           0        3.650000    0.000000    0.000000
 ---------------------------------------------------------------------

 SCF Done:  E(UB3LYP) =  -100.770616883     a.u. after   34 cycles

 Alpha  occ. eigenvalues --  -24.75735  -1.21673  -0.54859  -0.46064  -0.46064
 Alpha  occ. eigenvalues --   -0.32915
 Alpha virt. eigenvalues --   -0.10664   0.25952   0.32930   0.87154   0.91251
 Alpha virt. eigenvalues --    0.91251   1.01407   1.20751   1.25011   1.25011
 Alpha virt. eigenvalues --    1.38666   1.38666   1.47847   2.13485   2.35728

  Beta  occ. eigenvalues --  -24.72602  -1.12668  -0.42924  -0.42924  -0.33012
  Beta virt. eigenvalues --   -0.25696  -0.10436   0.25807   0.33315   0.92746
  Beta virt. eigenvalues --    0.92746   0.96417   1.05494   1.20692   1.24894
  Beta virt. eigenvalues --    1.24894   1.38983   1.38983   1.48084   2.13885

 Mulliken charges and spin densities:
               1          2
     1  H    0.002052  -0.889711
     2  H    0.003818   0.896532
     3  F   -0.005870   0.993179
 Sum of Mulliken charges =   0.00000   1.00000

 Dipole moment (field-independent basis, Debye):
    X=             -0.1477    Y=              0.0000    Z=             -0.0000  Tot=              0.1477
 Quadrupole moment (field-independent basis, Debye-Ang):
   XX=             -6.5851   YY=             -7.7131   ZZ=             -7.7131
   XY=              0.0000   XZ=             -0.0000   YZ=             -0.0000

  Exact polarizability:      36.302      -0.000       2.008       0.000       0.000       2.008
 Approx polarizability:      30.412       0.000       1.934      -0.000       0.000       1.934

 ******    2 imaginary frequencies (negative Signs) ******

                      1                      2                      3
                      A                      A                      A
 Frequencies --  -1179.3783              -112.7980               467.5100
 Red. masses --      1.0078                 1.1085                 1.0126
 Frc consts  --      0.8259                 0.0083                 0.1304
 IR Inten    --      4.2247                 3.5773                 0.0003

                      4
                      A
 Frequencies --    467.5100
 Red. masses --      1.0126
 Frc consts  --      0.1304
 IR Inten    --      0.0003

 - Thermochemistry -
 -------------------
 Temperature   298.150 Kelvin.  Pressure   1.00000 Atm.
 Atom     1 has atomic number  1 and mass   1.00783

 Molecular mass:    21.01405 amu.
 Principal axes and moments of inertia in atomic units:
                           1         2         3
     Eigenvalues --     0.00000 151.68846 151.68846
           X            1.00000  -0.00000   0.00000
           Y            0.00000   1.00000   0.00000
           Z            0.00000   0.00000   1.00000
 This molecule is a prolate symmetric top.
 Rotational symmetry number  1.
 Rotational temperature (Kelvin)      0.57100
 Rotational constant (GHZ):          11.897683
    2 imaginary frequencies ignored.
 Zero-point vibrational energy       5592.7 (Joules/Mol)
                                    1.33668 (Kcal/Mol)
 Warning -- explicit consideration of   2 degrees of freedom as
           vibrations may cause significant error
 Vibrational temperatures:    672.64   672.64
          (Kelvin)

 Zero-point correction=                           0.002130 (Hartree/Particle)
 Thermal correction to Energy=                    0.004989
 Thermal correction to Enthalpy=                  0.005933
 Thermal correction to Gibbs Free Energy=        -0.018943
 Sum of electronic and zero-point Energies=           -100.768487
 Sum of electronic and thermal Energies=              -100.765628
 Sum of electronic and thermal Enthalpies=            -100.764684
 Sum of electronic and thermal Free Energies=         -100.789560

                     E (Thermal)             CV                S
                      KCal/Mol        Cal/Mol-Kelvin    Cal/Mol-Kelvin
 Total                    3.131              7.612             52.358
 Electronic               0.000              0.000              1.377
 Translational            0.889              2.981             35.068
 Rotational               0.592              1.987             14.423
 Vibrational              1.650              2.644              1.489
 Vibration     1          0.825              1.322              0.745
 Vibration     2          0.825              1.322              0.745

 Normal termination of Gaussian 16 at Fri Aug 22 23:35:56 2025.
