 Gaussian 16, Revision C.01,
 Gaussian 16:  ES64L-G16RevC.01  3-Jul-2019

 -----------------------------------------
 # sp b3lyp/6-311g** Force nosymm scf=(qc)
 -----------------------------------------

 -------------------
 Title Card Required
 -------------------
 Symbolic Z-matrix:
 Charge =  0 Multiplicity = 2

                          Input orientation:
 ---------------------------------------------------------------------
 Center     Atomic      Atomic             Coordinates (Angstroms)
 Number     Number       Type             X           Y           Z
 ---------------------------------------------------------------------
      1          1           0        0.000000    0.000000    0.000000
      2          1           0       -3.900000    0.000000    0.000000
      3          9           0        3.100000    0.000000    0.000000
 ---------------------------------------------------------------------

 SCF Done:  E(UB3LYP) =  -100.760242613     a.u. after   23 cycles

 Alpha  occ. eigenvalues --  -24.74413  -1.20449  -0.53534  -0.44949  -0.44949
 Alpha  occ. eigenvalues --   -0.32422
 Alpha virt. eigenvalues --   -0.07437   0.23941   0.36397   0.89000   0.92078
 Alpha virt. eigenvalues --    0.92078   1.03337   1.25075   1.25075   1.25104
 Alpha virt. eigenvalues --    1.44871   1.44871   1.45300   2.14448   2.41147

  Beta  occ. eigenvalues --  -24.71363  -1.11702  -0.41895  -0.41895  -0.33489
  Beta virt. eigenvalues --   -0.24958  -0.05982   0.23758   0.38139   0.93547
  Beta virt. eigenvalues --    0.93547   0.97808   1.07131   1.23853   1.23853
  Beta virt. eigenvalues --    1.24034   1.46542   1.46682   1.46682   2.14621

 Mulliken charges and spin densities:
               1          2
     1  H    0.030286  -0.965924
     2  H    0.000134   0.999223
     3  F   -0.030421   0.966702
 Sum of Mulliken charges =  -0.00000   1.00000

 Dipole moment (field-independent basis, Debye):
    X=             -0.4869    Y=             -0.0000    Z=             -0.0000  Tot=              0.4869
 Quadrupole moment (field-independent basis, Debye-Ang):
   XX=             -8.1409   YY=             -7.6091   ZZ=             -7.6091
   XY=             -0.0000   XZ=             -0.0000   YZ=             -0.0000

  Exact polarizability:      30.171      -0.000       2.029      -0.000      -0.000       2.029
 Approx polarizability:      29.431      -0.000       1.929      -0.000       0.000       1.929

 ******    2 imaginary frequencies (negative Signs) ******

                      1                      2                      3
                      A                      A                      A
 Frequencies --   -327.6334               -76.4644               111.5716
 Red. masses --      1.0523                 1.0593                 1.0210
 Frc consts  --      0.0666                 0.0036                 0.0075
 IR Inten    --     32.8506                 0.1303                 0.8747

                      4
                      A
 Frequencies --    111.5716
 Red. masses --      1.0210
 Frc consts  --      0.0075
 IR Inten    --      0.8747

 - Thermochemistry -
 -------------------
 Temperature   298.150 Kelvin.  Pressure   1.00000 Atm.
 Atom     1 has atomic number  1 and mass   1.00783

 Molecular mass:    21.01405 amu.
 Principal axes and moments of inertia in atomic units:
                           1         2         3
     Eigenvalues --     0.00000 193.33026 193.33026
           X            1.00000  -0.00000   0.00000
           Y            0.00000   1.00000   0.00000
           Z            0.00000   0.00000   1.00000
 This molecule is a prolate symmetric top.
 Rotational symmetry number  1.
 Rotational temperature (Kelvin)      0.44801
 Rotational constant (GHZ):           9.335017
    2 imaginary frequencies ignored.
 Zero-point vibrational energy       1334.7 (Joules/Mol)
                                    0.31900 (Kcal/Mol)
 Warning -- explicit consideration of   2 degrees of freedom as
           vibrations may cause significant error
 Vibrational temperatures:    160.53   160.53
          (Kelvin)

 Zero-point correction=                           0.000508 (Hartree/Particle)
 Thermal correction to Energy=                    0.004294
 Thermal correction to Enthalpy=                  0.005238
 Thermal correction to Gibbs Free Energy=        -0.022240
 Sum of electronic and zero-point Energies=           -100.759734
 Sum of electronic and thermal Energies=              -100.755948
 Sum of electronic and thermal Enthalpies=            -100.755004
 Sum of electronic and thermal Free Energies=         -100.782483

                     E (Thermal)             CV                S
                      KCal/Mol        Cal/Mol-Kelvin    Cal/Mol-Kelvin
 Total                    2.695              8.848             57.833
 Electronic               0.000              0.000              1.377
 Translational            0.889              2.981             35.068
 Rotational               0.592              1.987             14.905
 Vibrational              1.213              3.880              6.483
 Vibration     1          0.607              1.940              3.241
 Vibration     2          0.607              1.940              3.241

 Normal termination of Gaussian 16 at Fri Aug 22 19:56:45 2025.
