 Gaussian 16, Revision C.01,
 Gaussian 16:  ES64L-G16RevC.01  3-Jul-2019

 -----------------------------------------
 # sp b3lyp/6-311g** Force nosymm scf=(qc)
 -----------------------------------------

 -------------------
 Title Card Required
 -------------------
 Symbolic Z-matrix:
 Charge =  0 Multiplicity = 2

                          Input orientation:
 ---------------------------------------------------------------------
 Center     Atomic      Atomic             Coordinates (Angstroms)
 Number     Number       Type             X           Y           Z
 ---------------------------------------------------------------------
      1          1           0        0.000000    0.000000    0.000000
      2          1           0       -2.400000    0.000000    0.000000
      3          9           0        1.150000    0.000000    0.000000
 ---------------------------------------------------------------------

 SCF Done:  E(UB3LYP) =  -100.938153894     a.u. after    6 cycles

 Alpha  occ. eigenvalues --  -24.64085  -1.12826  -0.48598  -0.37596  -0.37596
 Alpha  occ. eigenvalues --   -0.35464
 Alpha virt. eigenvalues --   -0.02885   0.24705   0.29426   0.93548   0.93548
 Alpha virt. eigenvalues --    1.00268   1.19345   1.22066   1.22066   1.35166
 Alpha virt. eigenvalues --    1.35166   1.36159   1.76659   2.12944   2.31343

  Beta  occ. eigenvalues --  -24.64036  -1.12703  -0.48379  -0.37552  -0.37552
  Beta virt. eigenvalues --   -0.11575  -0.00444   0.29426   0.36274   0.93548
  Beta virt. eigenvalues --    0.93548   1.00399   1.27434   1.35054   1.35054
  Beta virt. eigenvalues --    1.43012   1.43012   1.48079   1.76838   2.30287

 Mulliken charges and spin densities:
               1          2
     1  H    0.339539   0.000347
     2  H    0.011519   0.984861
     3  F   -0.351059   0.014792
 Sum of Mulliken charges =  -0.00000   1.00000

 Dipole moment (field-independent basis, Debye):
    X=             -2.3666    Y=              0.0000    Z=              0.0000  Tot=              2.3666
 Quadrupole moment (field-independent basis, Debye-Ang):
   XX=             -8.3491   YY=             -7.0796   ZZ=             -7.0796
   XY=              0.0000   XZ=              0.0000   YZ=              0.0000

  Exact polarizability:      12.087       0.000       2.374      -0.000      -0.000       2.374
 Approx polarizability:      14.881      -0.000       2.339      -0.000      -0.000       2.339

 ******    1 imaginary frequencies (negative Signs) ******

                      1                      2                      3
                      A                      A                      A
 Frequencies --   -172.9703              1179.5861              1179.5861
 Red. masses --      1.0494                 1.0287                 1.0287
 Frc consts  --      0.0185                 0.8434                 0.8434
 IR Inten    --      4.2267               133.2271               133.2271

                      4
                      A
 Frequencies --   1414.2733
 Red. masses --      1.0622
 Frc consts  --      1.2518
 IR Inten    --    134.0486

 - Thermochemistry -
 -------------------
 Temperature   298.150 Kelvin.  Pressure   1.00000 Atm.
 Atom     1 has atomic number  1 and mass   1.00783

 Molecular mass:    21.01405 amu.
 Principal axes and moments of inertia in atomic units:
                           1         2         3
     Eigenvalues --     0.00000  46.30331  46.30331
           X            1.00000  -0.00000   0.00000
           Y            0.00000   1.00000   0.00000
           Z            0.00000   0.00000   1.00000
 This molecule is a prolate symmetric top.
 Rotational symmetry number  1.
 Rotational temperature (Kelvin)      1.87058
 Rotational constant (GHZ):          38.976508
    1 imaginary frequencies ignored.
 Zero-point vibrational energy      22570.2 (Joules/Mol)
                                    5.39441 (Kcal/Mol)
 Vibrational temperatures:   1697.16  1697.16  2034.82
          (Kelvin)

 Zero-point correction=                           0.008597 (Hartree/Particle)
 Thermal correction to Energy=                    0.011000
 Thermal correction to Enthalpy=                  0.011945
 Thermal correction to Gibbs Free Energy=        -0.011155
 Sum of electronic and zero-point Energies=           -100.929557
 Sum of electronic and thermal Energies=              -100.927154
 Sum of electronic and thermal Enthalpies=            -100.926209
 Sum of electronic and thermal Free Energies=         -100.949309

                     E (Thermal)             CV                S
                      KCal/Mol        Cal/Mol-Kelvin    Cal/Mol-Kelvin
 Total                    6.903              5.506             48.617
 Electronic               0.000              0.000              1.377
 Translational            0.889              2.981             35.068
 Rotational               0.592              1.987             12.065
 Vibrational              5.422              0.538              0.107

 Normal termination of Gaussian 16 at Fri Aug 22 16:08:00 2025.
