 Gaussian 16, Revision C.01,
 Gaussian 16:  ES64L-G16RevC.01  3-Jul-2019

 -----------------------------------------
 # sp b3lyp/6-311g** Force nosymm scf=(qc)
 -----------------------------------------

 -------------------
 Title Card Required
 -------------------
 Symbolic Z-matrix:
 Charge =  0 Multiplicity = 2

                          Input orientation:
 ---------------------------------------------------------------------
 Center     Atomic      Atomic             Coordinates (Angstroms)
 Number     Number       Type             X           Y           Z
 ---------------------------------------------------------------------
      1          1           0        0.000000    0.000000    0.000000
      2          1           0       -0.800000    0.000000    0.000000
      3          9           0        2.350000    0.000000    0.000000
 ---------------------------------------------------------------------

 SCF Done:  E(UB3LYP) =  -100.932253018     a.u. after    5 cycles

 Alpha  occ. eigenvalues --  -24.75767  -1.21706  -0.55080  -0.46101  -0.46101
 Alpha  occ. eigenvalues --   -0.43092
 Alpha virt. eigenvalues --    0.05213   0.20332   0.45370   0.89700   0.91014
 Alpha virt. eigenvalues --    0.91014   1.07362   1.07362   1.12787   1.52611
 Alpha virt. eigenvalues --    1.78014   1.78014   2.04479   2.38835   3.04296

  Beta  occ. eigenvalues --  -24.72664  -1.12805  -0.43075  -0.42995  -0.42995
  Beta virt. eigenvalues --   -0.26091   0.05778   0.20694   0.45637   0.92472
  Beta virt. eigenvalues --    0.92472   0.98044   1.07608   1.07608   1.16946
  Beta virt. eigenvalues --    1.53078   1.78160   1.78160   2.04699   2.39106

 Mulliken charges and spin densities:
               1          2
     1  H   -0.011830  -0.013331
     2  H    0.021596   0.033471
     3  F   -0.009766   0.979859
 Sum of Mulliken charges =   0.00000   1.00000

 Dipole moment (field-independent basis, Debye):
    X=             -0.1988    Y=             -0.0000    Z=              0.0000  Tot=              0.1988
 Quadrupole moment (field-independent basis, Debye-Ang):
   XX=             -5.7190   YY=             -7.0071   ZZ=             -7.0071
   XY=             -0.0000   XZ=             -0.0000   YZ=             -0.0000

  Exact polarizability:      15.612      -0.000       2.024      -0.000      -0.000       2.024
 Approx polarizability:      16.965      -0.000       2.099      -0.000      -0.000       2.099

 ******    1 imaginary frequencies (negative Signs) ******

                      1                      2                      3
                      A                      A                      A
 Frequencies --   -157.3958              1051.1271              1051.1271
 Red. masses --      1.1085                 1.0099                 1.0099
 Frc consts  --      0.0162                 0.6574                 0.6574
 IR Inten    --      7.7801                 0.4641                 0.4641

                      4
                      A
 Frequencies --   3658.6490
 Red. masses --      1.0078
 Frc consts  --      7.9484
 IR Inten    --     77.9394

 - Thermochemistry -
 -------------------
 Temperature   298.150 Kelvin.  Pressure   1.00000 Atm.
 Atom     1 has atomic number  1 and mass   1.00783

 Molecular mass:    21.01405 amu.
 Principal axes and moments of inertia in atomic units:
                           1         2         3
     Eigenvalues --     0.00000  50.36533  50.36533
           X            1.00000  -0.00000   0.00000
           Y            0.00000   1.00000   0.00000
           Z            0.00000   0.00000   1.00000
 This molecule is a prolate symmetric top.
 Rotational symmetry number  1.
 Rotational temperature (Kelvin)      1.71971
 Rotational constant (GHZ):          35.833008
    1 imaginary frequencies ignored.
 Zero-point vibrational energy      34457.9 (Joules/Mol)
                                    8.23562 (Kcal/Mol)
 Vibrational temperatures:   1512.34  1512.34  5263.98
          (Kelvin)

 Zero-point correction=                           0.013124 (Hartree/Particle)
 Thermal correction to Energy=                    0.015545
 Thermal correction to Enthalpy=                  0.016489
 Thermal correction to Gibbs Free Energy=        -0.006711
 Sum of electronic and zero-point Energies=           -100.919129
 Sum of electronic and thermal Energies=              -100.916708
 Sum of electronic and thermal Enthalpies=            -100.915764
 Sum of electronic and thermal Free Energies=         -100.938964

                     E (Thermal)             CV                S
                      KCal/Mol        Cal/Mol-Kelvin    Cal/Mol-Kelvin
 Total                    9.755              5.617             48.830
 Electronic               0.000              0.000              1.377
 Translational            0.889              2.981             35.068
 Rotational               0.592              1.987             12.232
 Vibrational              8.274              0.649              0.152

 Normal termination of Gaussian 16 at Fri Aug 22 17:25:09 2025.
