 Gaussian 16, Revision C.01,
 Gaussian 16:  ES64L-G16RevC.01  3-Jul-2019

 -----------------------------------------
 # sp b3lyp/6-311g** Force nosymm scf=(qc)
 -----------------------------------------

 -------------------
 Title Card Required
 -------------------
 Symbolic Z-matrix:
 Charge =  0 Multiplicity = 2

                          Input orientation:
 ---------------------------------------------------------------------
 Center     Atomic      Atomic             Coordinates (Angstroms)
 Number     Number       Type             X           Y           Z
 ---------------------------------------------------------------------
      1          1           0        0.000000    0.000000    0.000000
      2          1           0       -2.750000    0.000000    0.000000
      3          9           0        0.900000    0.000000    0.000000
 ---------------------------------------------------------------------

 SCF Done:  E(UB3LYP) =  -100.971665127     a.u. after    5 cycles

 Alpha  occ. eigenvalues --  -24.63944  -1.19000  -0.53835  -0.39608  -0.39608
 Alpha  occ. eigenvalues --   -0.34424
 Alpha virt. eigenvalues --    0.03832   0.25304   0.39369   0.94379   0.94379
 Alpha virt. eigenvalues --    0.97743   1.21208   1.23117   1.23117   1.35109
 Alpha virt. eigenvalues --    1.37316   1.37316   2.01285   2.14402   2.37435

  Beta  occ. eigenvalues --  -24.63936  -1.18978  -0.53803  -0.39600  -0.39600
  Beta virt. eigenvalues --   -0.08100   0.05231   0.37649   0.40008   0.94381
  Beta virt. eigenvalues --    0.94381   0.97755   1.30035   1.37307   1.37307
  Beta virt. eigenvalues --    1.47100   1.47100   1.50818   2.01441   2.37051

 Mulliken charges and spin densities:
               1          2
     1  H    0.293004   0.002254
     2  H    0.003773   0.994765
     3  F   -0.296777   0.002981
 Sum of Mulliken charges =   0.00000   1.00000

 Dipole moment (field-independent basis, Debye):
    X=             -1.9351    Y=             -0.0000    Z=             -0.0000  Tot=              1.9351
 Quadrupole moment (field-independent basis, Debye-Ang):
   XX=             -7.7634   YY=             -6.8659   ZZ=             -6.8659
   XY=             -0.0000   XZ=             -0.0000   YZ=              0.0000

  Exact polarizability:       6.825      -0.000       2.444      -0.000      -0.000       2.444
 Approx polarizability:       7.575      -0.000       2.424       0.000      -0.000       2.424

 ******    3 imaginary frequencies (negative Signs) ******

                      1                      2                      3
                      A                      A                      A
 Frequencies --   -624.1906              -624.1906               -59.7370
 Red. masses --      1.0349                 1.0349                 1.0532
 Frc consts  --      0.2376                 0.2376                 0.0022
 IR Inten    --    172.6918               172.6918                 0.3430

                      4
                      A
 Frequencies --   4428.5263
 Red. masses --      1.0584
 Frc consts  --     12.2296
 IR Inten    --    116.2625

 - Thermochemistry -
 -------------------
 Temperature   298.150 Kelvin.  Pressure   1.00000 Atm.
 Atom     1 has atomic number  1 and mass   1.00783

 Molecular mass:    21.01405 amu.
 Principal axes and moments of inertia in atomic units:
                           1         2         3
     Eigenvalues --     0.00000  47.28959  47.28959
           X            1.00000  -0.00000   0.00000
           Y            0.00000   1.00000   0.00000
           Z            0.00000   0.00000   1.00000
 This molecule is a prolate symmetric top.
 Rotational symmetry number  1.
 Rotational temperature (Kelvin)      1.83156
 Rotational constant (GHZ):          38.163602
    3 imaginary frequencies ignored.
 Zero-point vibrational energy      26488.5 (Joules/Mol)
                                    6.33090 (Kcal/Mol)
 Vibrational temperatures:   6371.66
          (Kelvin)

 Zero-point correction=                           0.010089 (Hartree/Particle)
 Thermal correction to Energy=                    0.012449
 Thermal correction to Enthalpy=                  0.013394
 Thermal correction to Gibbs Free Energy=        -0.009675
 Sum of electronic and zero-point Energies=           -100.961576
 Sum of electronic and thermal Energies=              -100.959216
 Sum of electronic and thermal Enthalpies=            -100.958272
 Sum of electronic and thermal Free Energies=         -100.981340

                     E (Thermal)             CV                S
                      KCal/Mol        Cal/Mol-Kelvin    Cal/Mol-Kelvin
 Total                    7.812              4.968             48.552
 Electronic               0.000              0.000              1.377
 Translational            0.889              2.981             35.068
 Rotational               0.592              1.987             12.107
 Vibrational              6.331              0.000              0.000

 Normal termination of Gaussian 16 at Fri Aug 22 15:56:18 2025.
