 Gaussian 16, Revision C.01,
 Gaussian 16:  ES64L-G16RevC.01  3-Jul-2019

 -----------------------------------------
 # sp b3lyp/6-311g** Force nosymm scf=(qc)
 -----------------------------------------

 -------------------
 Title Card Required
 -------------------
 Symbolic Z-matrix:
 Charge =  0 Multiplicity = 2

                          Input orientation:
 ---------------------------------------------------------------------
 Center     Atomic      Atomic             Coordinates (Angstroms)
 Number     Number       Type             X           Y           Z
 ---------------------------------------------------------------------
      1          1           0        0.000000    0.000000    0.000000
      2          1           0       -1.500000    0.000000    0.000000
      3          9           0        1.650000    0.000000    0.000000
 ---------------------------------------------------------------------

 SCF Done:  E(UB3LYP) =  -100.858884240     a.u. after   11 cycles

 Alpha  occ. eigenvalues --  -24.66412  -1.12948  -0.47215  -0.38853  -0.38358
 Alpha  occ. eigenvalues --   -0.38358
 Alpha virt. eigenvalues --   -0.08614   0.21307   0.29638   0.91353   0.93693
 Alpha virt. eigenvalues --    0.93693   1.03356   1.15487   1.15487   1.39731
 Alpha virt. eigenvalues --    1.39731   1.41952   1.87171   2.18948   2.42908

  Beta  occ. eigenvalues --  -24.64496  -1.07708  -0.40011  -0.36497  -0.36497
  Beta virt. eigenvalues --   -0.22411  -0.05819   0.24118   0.30159   0.93959
  Beta virt. eigenvalues --    0.93959   0.95426   1.07048   1.20379   1.20379
  Beta virt. eigenvalues --    1.40804   1.40804   1.47137   1.90286   2.20821

 Mulliken charges and spin densities:
               1          2
     1  H    0.187902  -0.292692
     2  H    0.072477   0.695783
     3  F   -0.260379   0.596909
 Sum of Mulliken charges =  -0.00000   1.00000

 Dipole moment (field-independent basis, Debye):
    X=             -2.6206    Y=             -0.0000    Z=              0.0000  Tot=              2.6206
 Quadrupole moment (field-independent basis, Debye-Ang):
   XX=             -8.1020   YY=             -7.3402   ZZ=             -7.3402
   XY=             -0.0000   XZ=              0.0000   YZ=              0.0000

  Exact polarizability:      41.787      -0.000       2.232       0.000       0.000       2.232
 Approx polarizability:      62.679      -0.000       2.169       0.000      -0.000       2.169

 ******    2 imaginary frequencies (negative Signs) ******

                      1                      2                      3
                      A                      A                      A
 Frequencies --  -2493.6801              -517.4751              1053.2527
 Red. masses --      1.0202                 1.0939                 1.0168
 Frc consts  --      3.7377                 0.1726                 0.6646
 IR Inten    --    598.0751                 0.1329                14.4979

                      4
                      A
 Frequencies --   1053.2527
 Red. masses --      1.0168
 Frc consts  --      0.6646
 IR Inten    --     14.4979

 - Thermochemistry -
 -------------------
 Temperature   298.150 Kelvin.  Pressure   1.00000 Atm.
 Atom     1 has atomic number  1 and mass   1.00783

 Molecular mass:    21.01405 amu.
 Principal axes and moments of inertia in atomic units:
                           1         2         3
     Eigenvalues --     0.00000  41.53260  41.53260
           X            1.00000  -0.00000   0.00000
           Y            0.00000   1.00000   0.00000
           Z            0.00000   0.00000   1.00000
 This molecule is a prolate symmetric top.
 Rotational symmetry number  1.
 Rotational temperature (Kelvin)      2.08544
 Rotational constant (GHZ):          43.453606
    2 imaginary frequencies ignored.
 Zero-point vibrational energy      12599.7 (Joules/Mol)
                                    3.01140 (Kcal/Mol)
 Vibrational temperatures:   1515.40  1515.40
          (Kelvin)

 Zero-point correction=                           0.004799 (Hartree/Particle)
 Thermal correction to Energy=                    0.007219
 Thermal correction to Enthalpy=                  0.008164
 Thermal correction to Gibbs Free Energy=        -0.014854
 Sum of electronic and zero-point Energies=           -100.854085
 Sum of electronic and thermal Energies=              -100.851665
 Sum of electronic and thermal Enthalpies=            -100.850721
 Sum of electronic and thermal Free Energies=         -100.873739

                     E (Thermal)             CV                S
                      KCal/Mol        Cal/Mol-Kelvin    Cal/Mol-Kelvin
 Total                    4.530              5.613             48.445
 Electronic               0.000              0.000              1.377
 Translational            0.889              2.981             35.068
 Rotational               0.592              1.987             11.849
 Vibrational              3.049              0.645              0.151

 Normal termination of Gaussian 16 at Fri Aug 22 16:33:50 2025.
