 Gaussian 16, Revision C.01,
 Gaussian 16:  ES64L-G16RevC.01  3-Jul-2019

 -----------------------------------------
 # sp b3lyp/6-311g** Force nosymm scf=(qc)
 -----------------------------------------

 -------------------
 Title Card Required
 -------------------
 Symbolic Z-matrix:
 Charge =  0 Multiplicity = 2

                          Input orientation:
 ---------------------------------------------------------------------
 Center     Atomic      Atomic             Coordinates (Angstroms)
 Number     Number       Type             X           Y           Z
 ---------------------------------------------------------------------
      1          1           0        0.000000    0.000000    0.000000
      2          1           0       -3.000000    0.000000    0.000000
      3          9           0        2.550000    0.000000    0.000000
 ---------------------------------------------------------------------

 SCF Done:  E(UB3LYP) =  -100.767297553     a.u. after   21 cycles

 Alpha  occ. eigenvalues --  -24.72034  -1.18231  -0.51139  -0.42955  -0.42955
 Alpha  occ. eigenvalues --   -0.33142
 Alpha virt. eigenvalues --   -0.10643   0.24163   0.34540   0.89960   0.93460
 Alpha virt. eigenvalues --    0.93460   1.06323   1.24400   1.24400   1.25317
 Alpha virt. eigenvalues --    1.40445   1.40445   1.43584   2.15100   2.35508

  Beta  occ. eigenvalues --  -24.69167  -1.10061  -0.40095  -0.40095  -0.35160
  Beta virt. eigenvalues --   -0.23539  -0.07845   0.24729   0.36688   0.94843
  Beta virt. eigenvalues --    0.94843   0.96950   1.08992   1.22287   1.22287
  Beta virt. eigenvalues --    1.28479   1.44522   1.44522   1.44558   2.14125

 Mulliken charges and spin densities:
               1          2
     1  H    0.079910  -0.899033
     2  H    0.003003   0.992552
     3  F   -0.082913   0.906481
 Sum of Mulliken charges =  -0.00000   1.00000

 Dipole moment (field-independent basis, Debye):
    X=             -1.1206    Y=              0.0000    Z=             -0.0000  Tot=              1.1206
 Quadrupole moment (field-independent basis, Debye-Ang):
   XX=             -9.0681   YY=             -7.5889   ZZ=             -7.5889
   XY=              0.0000   XZ=             -0.0000   YZ=              0.0000

  Exact polarizability:      34.690       0.000       2.021      -0.000       0.000       2.021
 Approx polarizability:      40.850       0.000       1.919      -0.000      -0.000       1.919

 ******    2 imaginary frequencies (negative Signs) ******

                      1                      2                      3
                      A                      A                      A
 Frequencies --   -624.7254              -212.4334               243.1031
 Red. masses --      1.0430                 1.0688                 1.0200
 Frc consts  --      0.2398                 0.0284                 0.0355
 IR Inten    --     71.6766                 3.3792                 5.8232

                      4
                      A
 Frequencies --    243.1031
 Red. masses --      1.0200
 Frc consts  --      0.0355
 IR Inten    --      5.8232

 - Thermochemistry -
 -------------------
 Temperature   298.150 Kelvin.  Pressure   1.00000 Atm.
 Atom     1 has atomic number  1 and mass   1.00783

 Molecular mass:    21.01405 amu.
 Principal axes and moments of inertia in atomic units:
                           1         2         3
     Eigenvalues --     0.00000 122.93627 122.93627
           X            1.00000  -0.00000   0.00000
           Y            0.00000   1.00000   0.00000
           Z            0.00000   0.00000   1.00000
 This molecule is a prolate symmetric top.
 Rotational symmetry number  1.
 Rotational temperature (Kelvin)      0.70454
 Rotational constant (GHZ):          14.680299
    2 imaginary frequencies ignored.
 Zero-point vibrational energy       2908.2 (Joules/Mol)
                                    0.69507 (Kcal/Mol)
 Warning -- explicit consideration of   2 degrees of freedom as
           vibrations may cause significant error
 Vibrational temperatures:    349.77   349.77
          (Kelvin)

 Zero-point correction=                           0.001108 (Hartree/Particle)
 Thermal correction to Energy=                    0.004461
 Thermal correction to Enthalpy=                  0.005405
 Thermal correction to Gibbs Free Energy=        -0.020258
 Sum of electronic and zero-point Energies=           -100.766190
 Sum of electronic and thermal Energies=              -100.762837
 Sum of electronic and thermal Enthalpies=            -100.761893
 Sum of electronic and thermal Free Energies=         -100.787555

                     E (Thermal)             CV                S
                      KCal/Mol        Cal/Mol-Kelvin    Cal/Mol-Kelvin
 Total                    2.799              8.516             54.011
 Electronic               0.000              0.000              1.377
 Translational            0.889              2.981             35.068
 Rotational               0.592              1.987             14.005
 Vibrational              1.318              3.548              3.560
 Vibration     1          0.659              1.774              1.780
 Vibration     2          0.659              1.774              1.780

 Normal termination of Gaussian 16 at Fri Aug 22 17:54:49 2025.
