 Gaussian 16, Revision C.01,
 Gaussian 16:  ES64L-G16RevC.01  3-Jul-2019

 -----------------------------------------
 # sp b3lyp/6-311g** Force nosymm scf=(qc)
 -----------------------------------------

 -------------------
 Title Card Required
 -------------------
 Symbolic Z-matrix:
 Charge =  0 Multiplicity = 2

                          Input orientation:
 ---------------------------------------------------------------------
 Center     Atomic      Atomic             Coordinates (Angstroms)
 Number     Number       Type             X           Y           Z
 ---------------------------------------------------------------------
      1          1           0        0.000000    0.000000    0.000000
      2          1           0       -3.750000    0.000000    0.000000
      3          9           0        3.800000    0.000000    0.000000
 ---------------------------------------------------------------------

 SCF Done:  E(UB3LYP) =  -100.758584668     a.u. after   34 cycles

 Alpha  occ. eigenvalues --  -24.75750  -1.21686  -0.54874  -0.46073  -0.46073
 Alpha  occ. eigenvalues --   -0.32257
 Alpha virt. eigenvalues --   -0.06347   0.24210   0.37660   0.86854   0.91253
 Alpha virt. eigenvalues --    0.91253   1.01265   1.25240   1.25240   1.25299
 Alpha virt. eigenvalues --    1.45994   1.46097   1.46097   2.14776   2.41890

  Beta  occ. eigenvalues --  -24.72613  -1.12667  -0.42928  -0.42928  -0.32539
  Beta virt. eigenvalues --   -0.25667  -0.06083   0.24014   0.38165   0.92750
  Beta virt. eigenvalues --    0.92750   0.96156   1.05360   1.24929   1.24929
  Beta virt. eigenvalues --    1.24972   1.46369   1.46536   1.46536   2.14804

 Mulliken charges and spin densities:
               1          2
     1  H    0.004711  -0.993580
     2  H    0.000050   0.998843
     3  F   -0.004761   0.994737
 Sum of Mulliken charges =  -0.00000   1.00000

 Dipole moment (field-independent basis, Debye):
    X=             -0.0943    Y=             -0.0000    Z=             -0.0000  Tot=              0.0943
 Quadrupole moment (field-independent basis, Debye-Ang):
   XX=             -7.0613   YY=             -7.6205   ZZ=             -7.6205
   XY=             -0.0000   XZ=             -0.0000   YZ=              0.0000

  Exact polarizability:      14.940      -0.000       2.032      -0.000      -0.000       2.032
 Approx polarizability:      11.029      -0.000       1.936      -0.000      -0.000       1.936

 ******    2 imaginary frequencies (negative Signs) ******

                      1                      2                      3
                      A                      A                      A
 Frequencies --   -174.1962               -74.3796                55.1438
 Red. masses --      1.0237                 1.0900                 1.0178
 Frc consts  --      0.0183                 0.0036                 0.0018
 IR Inten    --      2.9063                 0.4788                 0.0218

                      4
                      A
 Frequencies --     55.1438
 Red. masses --      1.0178
 Frc consts  --      0.0018
 IR Inten    --      0.0218

 - Thermochemistry -
 -------------------
 Temperature   298.150 Kelvin.  Pressure   1.00000 Atm.
 Atom     1 has atomic number  1 and mass   1.00783

 Molecular mass:    21.01405 amu.
 Principal axes and moments of inertia in atomic units:
                           1         2         3
     Eigenvalues --     0.00000 234.88651 234.88651
           X            1.00000  -0.00000   0.00000
           Y            0.00000   1.00000   0.00000
           Z            0.00000   0.00000   1.00000
 This molecule is a prolate symmetric top.
 Rotational symmetry number  1.
 Rotational temperature (Kelvin)      0.36875
 Rotational constant (GHZ):           7.683460
    2 imaginary frequencies ignored.
 Zero-point vibrational energy        659.7 (Joules/Mol)
                                    0.15766 (Kcal/Mol)
 Warning -- explicit consideration of   2 degrees of freedom as
           vibrations may cause significant error
 Vibrational temperatures:     79.34    79.34
          (Kelvin)

 Zero-point correction=                           0.000251 (Hartree/Particle)
 Thermal correction to Energy=                    0.004260
 Thermal correction to Enthalpy=                  0.005204
 Thermal correction to Gibbs Free Energy=        -0.023772
 Sum of electronic and zero-point Energies=           -100.758333
 Sum of electronic and thermal Energies=              -100.754325
 Sum of electronic and thermal Enthalpies=            -100.753381
 Sum of electronic and thermal Free Energies=         -100.782357

                     E (Thermal)             CV                S
                      KCal/Mol        Cal/Mol-Kelvin    Cal/Mol-Kelvin
 Total                    2.673              8.919             60.985
 Electronic               0.000              0.000              1.377
 Translational            0.889              2.981             35.068
 Rotational               0.592              1.987             15.292
 Vibrational              1.192              3.951              9.248
 Vibration     1          0.596              1.976              4.624
 Vibration     2          0.596              1.976              4.624

 Normal termination of Gaussian 16 at Sat Aug 23 00:52:42 2025.
