 Gaussian 16, Revision C.01,
 Gaussian 16:  ES64L-G16RevC.01  3-Jul-2019

 -----------------------------------------
 # sp b3lyp/6-311g** Force nosymm scf=(qc)
 -----------------------------------------

 -------------------
 Title Card Required
 -------------------
 Symbolic Z-matrix:
 Charge =  0 Multiplicity = 2

                          Input orientation:
 ---------------------------------------------------------------------
 Center     Atomic      Atomic             Coordinates (Angstroms)
 Number     Number       Type             X           Y           Z
 ---------------------------------------------------------------------
      1          1           0        0.000000    0.000000    0.000000
      2          1           0       -2.750000    0.000000    0.000000
      3          9           0        1.050000    0.000000    0.000000
 ---------------------------------------------------------------------

 SCF Done:  E(UB3LYP) =  -100.958543129     a.u. after    6 cycles

 Alpha  occ. eigenvalues --  -24.64168  -1.14811  -0.50574  -0.38365  -0.38365
 Alpha  occ. eigenvalues --   -0.34632
 Alpha virt. eigenvalues --   -0.00327   0.24903   0.32189   0.93876   0.93876
 Alpha virt. eigenvalues --    0.99100   1.21848   1.22908   1.22908   1.33357
 Alpha virt. eigenvalues --    1.35605   1.35605   1.85220   2.14191   2.33558

  Beta  occ. eigenvalues --  -24.64153  -1.14775  -0.50519  -0.38352  -0.38352
  Beta virt. eigenvalues --   -0.09051   0.01283   0.32166   0.37605   0.93877
  Beta virt. eigenvalues --    0.93877   0.99122   1.30016   1.35584   1.35584
  Beta virt. eigenvalues --    1.45591   1.45591   1.48181   1.85451   2.33449

 Mulliken charges and spin densities:
               1          2
     1  H    0.327816   0.001709
     2  H    0.004833   0.993713
     3  F   -0.332649   0.004577
 Sum of Mulliken charges =   0.00000   1.00000

 Dipole moment (field-independent basis, Debye):
    X=             -2.1591    Y=             -0.0000    Z=             -0.0000  Tot=              2.1591
 Quadrupole moment (field-independent basis, Debye-Ang):
   XX=             -8.2056   YY=             -7.0037   ZZ=             -7.0037
   XY=             -0.0000   XZ=             -0.0000   YZ=              0.0000

  Exact polarizability:       8.874       0.000       2.399      -0.000      -0.000       2.399
 Approx polarizability:      10.616       0.000       2.370       0.000      -0.000       2.370

 ******    1 imaginary frequencies (negative Signs) ******

                      1                      2                      3
                      A                      A                      A
 Frequencies --    -98.2097              1107.2685              1107.2685
 Red. masses --      1.0528                 1.0324                 1.0324
 Frc consts  --      0.0060                 0.7458                 0.7458
 IR Inten    --      0.6822               153.8720               153.8720

                      4
                      A
 Frequencies --   2442.9441
 Red. masses --      1.0587
 Frc consts  --      3.7227
 IR Inten    --    106.5002

 - Thermochemistry -
 -------------------
 Temperature   298.150 Kelvin.  Pressure   1.00000 Atm.
 Atom     1 has atomic number  1 and mass   1.00783

 Molecular mass:    21.01405 amu.
 Principal axes and moments of inertia in atomic units:
                           1         2         3
     Eigenvalues --     0.00000  51.87744  51.87744
           X            1.00000  -0.00000   0.00000
           Y            0.00000   1.00000   0.00000
           Z            0.00000   0.00000   1.00000
 This molecule is a prolate symmetric top.
 Rotational symmetry number  1.
 Rotational temperature (Kelvin)      1.66959
 Rotational constant (GHZ):          34.788553
    1 imaginary frequencies ignored.
 Zero-point vibrational energy      27857.9 (Joules/Mol)
                                    6.65820 (Kcal/Mol)
 Vibrational temperatures:   1593.11  1593.11  3514.85
          (Kelvin)

 Zero-point correction=                           0.010611 (Hartree/Particle)
 Thermal correction to Energy=                    0.013020
 Thermal correction to Enthalpy=                  0.013964
 Thermal correction to Gibbs Free Energy=        -0.009250
 Sum of electronic and zero-point Energies=           -100.947933
 Sum of electronic and thermal Energies=              -100.945524
 Sum of electronic and thermal Enthalpies=            -100.944579
 Sum of electronic and thermal Free Energies=         -100.967793

                     E (Thermal)             CV                S
                      KCal/Mol        Cal/Mol-Kelvin    Cal/Mol-Kelvin
 Total                    8.170              5.518             48.858
 Electronic               0.000              0.000              1.377
 Translational            0.889              2.981             35.068
 Rotational               0.592              1.987             12.291
 Vibrational              6.689              0.550              0.121

 Normal termination of Gaussian 16 at Fri Aug 22 16:03:26 2025.
