 Gaussian 16, Revision C.01,
 Gaussian 16:  ES64L-G16RevC.01  3-Jul-2019

 -----------------------------------------
 # sp b3lyp/6-311g** Force nosymm scf=(qc)
 -----------------------------------------

 -------------------
 Title Card Required
 -------------------
 Symbolic Z-matrix:
 Charge =  0 Multiplicity = 2

                          Input orientation:
 ---------------------------------------------------------------------
 Center     Atomic      Atomic             Coordinates (Angstroms)
 Number     Number       Type             X           Y           Z
 ---------------------------------------------------------------------
      1          1           0        0.000000    0.000000    0.000000
      2          1           0       -1.400000    0.000000    0.000000
      3          9           0        1.250000    0.000000    0.000000
 ---------------------------------------------------------------------

 SCF Done:  E(UB3LYP) =  -100.925098751     a.u. after    9 cycles

 Alpha  occ. eigenvalues --  -24.63818  -1.11945  -0.49911  -0.37883  -0.37004
 Alpha  occ. eigenvalues --   -0.37004
 Alpha virt. eigenvalues --    0.00664   0.20182   0.29910   0.93024   0.93024
 Alpha virt. eigenvalues --    1.01242   1.09755   1.13157   1.13157   1.43874
 Alpha virt. eigenvalues --    1.43874   1.54938   1.93934   2.25839   2.41904

  Beta  occ. eigenvalues --  -24.63006  -1.09860  -0.45524  -0.36252  -0.36252
  Beta virt. eigenvalues --   -0.20084   0.04086   0.23899   0.32744   0.93309
  Beta virt. eigenvalues --    0.93309   1.03118   1.16439   1.21286   1.21286
  Beta virt. eigenvalues --    1.47549   1.47549   1.57704   2.02200   2.29897

 Mulliken charges and spin densities:
               1          2
     1  H    0.292115  -0.071701
     2  H    0.060304   0.830379
     3  F   -0.352419   0.241322
 Sum of Mulliken charges =   0.00000   1.00000

 Dipole moment (field-independent basis, Debye):
    X=             -2.7166    Y=             -0.0000    Z=              0.0000  Tot=              2.7166
 Quadrupole moment (field-independent basis, Debye-Ang):
   XX=             -7.9839   YY=             -7.0077   ZZ=             -7.0077
   XY=             -0.0000   XZ=             -0.0000   YZ=              0.0000

  Exact polarizability:      22.843      -0.000       2.439       0.000      -0.000       2.439
 Approx polarizability:      29.890      -0.000       2.411       0.000      -0.000       2.411

 ******    1 imaginary frequencies (negative Signs) ******

                      1                      2                      3
                      A                      A                      A
 Frequencies --  -2114.7970               536.1252              1118.2067
 Red. masses --      1.0200                 1.0942                 1.0194
 Frc consts  --      2.6877                 0.1853                 0.7510
 IR Inten    --      0.2633                30.8123                53.0753

                      4
                      A
 Frequencies --   1118.2067
 Red. masses --      1.0194
 Frc consts  --      0.7510
 IR Inten    --     53.0753

 - Thermochemistry -
 -------------------
 Temperature   298.150 Kelvin.  Pressure   1.00000 Atm.
 Atom     1 has atomic number  1 and mass   1.00783

 Molecular mass:    21.01405 amu.
 Principal axes and moments of inertia in atomic units:
                           1         2         3
     Eigenvalues --     0.00000  28.27214  28.27214
           X            1.00000  -0.00000   0.00000
           Y            0.00000   1.00000   0.00000
           Z            0.00000   0.00000   1.00000
 This molecule is a prolate symmetric top.
 Rotational symmetry number  1.
 Rotational temperature (Kelvin)      3.06358
 Rotational constant (GHZ):          63.834623
    1 imaginary frequencies ignored.
 Zero-point vibrational energy      16583.5 (Joules/Mol)
                                    3.96354 (Kcal/Mol)
 Warning -- explicit consideration of   1 degrees of freedom as
           vibrations may cause significant error
 Vibrational temperatures:    771.36  1608.85  1608.85
          (Kelvin)

 Zero-point correction=                           0.006316 (Hartree/Particle)
 Thermal correction to Energy=                    0.008922
 Thermal correction to Enthalpy=                  0.009866
 Thermal correction to Gibbs Free Energy=        -0.013045
 Sum of electronic and zero-point Energies=           -100.918782
 Sum of electronic and thermal Energies=              -100.916177
 Sum of electronic and thermal Enthalpies=            -100.915233
 Sum of electronic and thermal Free Energies=         -100.938143

                     E (Thermal)             CV                S
                      KCal/Mol        Cal/Mol-Kelvin    Cal/Mol-Kelvin
 Total                    5.599              6.668             48.220
 Electronic               0.000              0.000              1.377
 Translational            0.889              2.981             35.068
 Rotational               0.592              1.987             11.085
 Vibrational              4.117              1.700              0.689
 Vibration     1          0.891              1.170              0.574

 Normal termination of Gaussian 16 at Fri Aug 22 16:12:09 2025.
