 Gaussian 16, Revision C.01,
 Gaussian 16:  ES64L-G16RevC.01  3-Jul-2019

 -----------------------------------------
 # sp b3lyp/6-311g** Force nosymm scf=(qc)
 -----------------------------------------

 -------------------
 Title Card Required
 -------------------
 Symbolic Z-matrix:
 Charge =  0 Multiplicity = 2

                          Input orientation:
 ---------------------------------------------------------------------
 Center     Atomic      Atomic             Coordinates (Angstroms)
 Number     Number       Type             X           Y           Z
 ---------------------------------------------------------------------
      1          1           0        0.000000    0.000000    0.000000
      2          1           0       -2.250000    0.000000    0.000000
      3          9           0        3.100000    0.000000    0.000000
 ---------------------------------------------------------------------

 SCF Done:  E(UB3LYP) =  -100.768059043     a.u. after   23 cycles

 Alpha  occ. eigenvalues --  -24.74558  -1.20579  -0.53676  -0.45068  -0.45068
 Alpha  occ. eigenvalues --   -0.33235
 Alpha virt. eigenvalues --   -0.10984   0.25602   0.32944   0.89181   0.91990
 Alpha virt. eigenvalues --    0.91990   1.03375   1.24346   1.24565   1.24565
 Alpha virt. eigenvalues --    1.38661   1.38661   1.43654   2.14007   2.35546

  Beta  occ. eigenvalues --  -24.71501  -1.11811  -0.42007  -0.42007  -0.33621
  Beta virt. eigenvalues --   -0.25070  -0.10177   0.25751   0.33851   0.93461
  Beta virt. eigenvalues --    0.93461   0.98059   1.07326   1.23809   1.24069
  Beta virt. eigenvalues --    1.24069   1.39945   1.39945   1.44822   2.15138

 Mulliken charges and spin densities:
               1          2
     1  H    0.019504  -0.905816
     2  H    0.008285   0.937046
     3  F   -0.027789   0.968769
 Sum of Mulliken charges =  -0.00000   1.00000

 Dipole moment (field-independent basis, Debye):
    X=             -0.5309    Y=             -0.0000    Z=             -0.0000  Tot=              0.5309
 Quadrupole moment (field-independent basis, Debye-Ang):
   XX=             -7.5129   YY=             -7.6820   ZZ=             -7.6820
   XY=             -0.0000   XZ=             -0.0000   YZ=             -0.0000

  Exact polarizability:      49.908      -0.000       2.010      -0.000      -0.000       2.010
 Approx polarizability:      42.192      -0.000       1.925      -0.000       0.000       1.925

 ******    2 imaginary frequencies (negative Signs) ******

                      1                      2                      3
                      A                      A                      A
 Frequencies --   -968.4978              -217.9249               370.5174
 Red. masses --      1.0082                 1.1081                 1.0145
 Frc consts  --      0.5572                 0.0310                 0.0821
 IR Inten    --     19.7748                20.7359                 0.2303

                      4
                      A
 Frequencies --    370.5174
 Red. masses --      1.0145
 Frc consts  --      0.0821
 IR Inten    --      0.2303

 - Thermochemistry -
 -------------------
 Temperature   298.150 Kelvin.  Pressure   1.00000 Atm.
 Atom     1 has atomic number  1 and mass   1.00783

 Molecular mass:    21.01405 amu.
 Principal axes and moments of inertia in atomic units:
                           1         2         3
     Eigenvalues --     0.00000 125.27453 125.27453
           X            1.00000  -0.00000   0.00000
           Y            0.00000   1.00000   0.00000
           Z            0.00000   0.00000   1.00000
 This molecule is a prolate symmetric top.
 Rotational symmetry number  1.
 Rotational temperature (Kelvin)      0.69139
 Rotational constant (GHZ):          14.406290
    2 imaginary frequencies ignored.
 Zero-point vibrational energy       4432.4 (Joules/Mol)
                                    1.05936 (Kcal/Mol)
 Warning -- explicit consideration of   2 degrees of freedom as
           vibrations may cause significant error
 Vibrational temperatures:    533.09   533.09
          (Kelvin)

 Zero-point correction=                           0.001688 (Hartree/Particle)
 Thermal correction to Energy=                    0.004727
 Thermal correction to Enthalpy=                  0.005671
 Thermal correction to Gibbs Free Energy=        -0.019341
 Sum of electronic and zero-point Energies=           -100.766371
 Sum of electronic and thermal Energies=              -100.763332
 Sum of electronic and thermal Enthalpies=            -100.762388
 Sum of electronic and thermal Free Energies=         -100.787401

                     E (Thermal)             CV                S
                      KCal/Mol        Cal/Mol-Kelvin    Cal/Mol-Kelvin
 Total                    2.966              8.034             52.644
 Electronic               0.000              0.000              1.377
 Translational            0.889              2.981             35.068
 Rotational               0.592              1.987             14.043
 Vibrational              1.485              3.066              2.155
 Vibration     1          0.743              1.533              1.078
 Vibration     2          0.743              1.533              1.078

 Normal termination of Gaussian 16 at Fri Aug 22 19:54:51 2025.
