 Gaussian 16, Revision C.01,
 Gaussian 16:  ES64L-G16RevC.01  3-Jul-2019

 -----------------------------------------
 # sp b3lyp/6-311g** Force nosymm scf=(qc)
 -----------------------------------------

 -------------------
 Title Card Required
 -------------------
 Symbolic Z-matrix:
 Charge =  0 Multiplicity = 2

                          Input orientation:
 ---------------------------------------------------------------------
 Center     Atomic      Atomic             Coordinates (Angstroms)
 Number     Number       Type             X           Y           Z
 ---------------------------------------------------------------------
      1          1           0        0.000000    0.000000    0.000000
      2          1           0       -3.350000    0.000000    0.000000
      3          9           0        0.600000    0.000000    0.000000
 ---------------------------------------------------------------------

 SCF Done:  E(UB3LYP) =  -100.687936837     a.u. after    6 cycles

 Alpha  occ. eigenvalues --  -24.62728  -1.34724  -0.61024  -0.42977  -0.42977
 Alpha  occ. eigenvalues --   -0.33435
 Alpha virt. eigenvalues --    0.07440   0.25207   0.58040   0.92126   0.92126
 Alpha virt. eigenvalues --    0.93150   1.23651   1.24079   1.24079   1.34899
 Alpha virt. eigenvalues --    1.50269   1.50269   1.95521   2.14958   3.36538

  Beta  occ. eigenvalues --  -24.62727  -1.34722  -0.61023  -0.42976  -0.42976
  Beta virt. eigenvalues --   -0.05389   0.08052   0.39485   0.58102   0.92125
  Beta virt. eigenvalues --    0.92125   0.93146   1.33732   1.50270   1.50270
  Beta virt. eigenvalues --    1.50543   1.50543   1.51521   1.95480   2.44977

 Mulliken charges and spin densities:
               1          2
     1  H    0.237614   0.000668
     2  H    0.000979   0.998792
     3  F   -0.238593   0.000540
 Sum of Mulliken charges =   0.00000   1.00000

 Dipole moment (field-independent basis, Debye):
    X=             -1.4446    Y=             -0.0000    Z=             -0.0000  Tot=              1.4446
 Quadrupole moment (field-independent basis, Debye-Ang):
   XX=             -6.9497   YY=             -6.5520   ZZ=             -6.5520
   XY=             -0.0000   XZ=             -0.0000   YZ=              0.0000

  Exact polarizability:       3.574       0.000       2.440      -0.000      -0.000       2.440
 Approx polarizability:       3.787       0.000       2.420       0.000      -0.000       2.420

 ******    3 imaginary frequencies (negative Signs) ******

                      1                      2                      3
                      A                      A                      A
 Frequencies --  -5880.1992             -5880.1992               -33.8911
 Red. masses --      1.0433                 1.0433                 1.0532
 Frc consts  --     21.2551                21.2551                 0.0007
 IR Inten    --    239.2150               239.2150                 0.0362

                      4
                      A
 Frequencies --  13070.6609
 Red. masses --      1.0583
 Frc consts  --    106.5268
 IR Inten    --     98.6232

 - Thermochemistry -
 -------------------
 Temperature   298.150 Kelvin.  Pressure   1.00000 Atm.
 Atom     1 has atomic number  1 and mass   1.00783

 Molecular mass:    21.01405 amu.
 Principal axes and moments of inertia in atomic units:
                           1         2         3
     Eigenvalues --     0.00000  53.87578  53.87578
           X            1.00000  -0.00000   0.00000
           Y            0.00000   1.00000   0.00000
           Z            0.00000   0.00000   1.00000
 This molecule is a prolate symmetric top.
 Rotational symmetry number  1.
 Rotational temperature (Kelvin)      1.60766
 Rotational constant (GHZ):          33.498192
    3 imaginary frequencies ignored.
 Zero-point vibrational energy      78179.9 (Joules/Mol)
                                   18.68545 (Kcal/Mol)
 Vibrational temperatures:  18805.77
          (Kelvin)

 Zero-point correction=                           0.029777 (Hartree/Particle)
 Thermal correction to Energy=                    0.032138
 Thermal correction to Enthalpy=                  0.033082
 Thermal correction to Gibbs Free Energy=         0.009890
 Sum of electronic and zero-point Energies=           -100.658160
 Sum of electronic and thermal Energies=              -100.655799
 Sum of electronic and thermal Enthalpies=            -100.654855
 Sum of electronic and thermal Free Energies=         -100.678047

                     E (Thermal)             CV                S
                      KCal/Mol        Cal/Mol-Kelvin    Cal/Mol-Kelvin
 Total                   20.167              4.968             48.811
 Electronic               0.000              0.000              1.377
 Translational            0.889              2.981             35.068
 Rotational               0.592              1.987             12.366
 Vibrational             18.685              0.000              0.000

 Normal termination of Gaussian 16 at Fri Aug 22 15:42:35 2025.
