 Gaussian 16, Revision C.01,
 Gaussian 16:  ES64L-G16RevC.01  3-Jul-2019

 -----------------------------------------
 # sp b3lyp/6-311g** Force nosymm scf=(qc)
 -----------------------------------------

 -------------------
 Title Card Required
 -------------------
 Symbolic Z-matrix:
 Charge =  0 Multiplicity = 2

                          Input orientation:
 ---------------------------------------------------------------------
 Center     Atomic      Atomic             Coordinates (Angstroms)
 Number     Number       Type             X           Y           Z
 ---------------------------------------------------------------------
      1          1           0        0.000000    0.000000    0.000000
      2          1           0       -3.450000    0.000000    0.000000
      3          9           0        2.200000    0.000000    0.000000
 ---------------------------------------------------------------------

 SCF Done:  E(UB3LYP) =  -100.776080142     a.u. after   15 cycles

 Alpha  occ. eigenvalues --  -24.67060  -1.08605  -0.38391  -0.38391  -0.36807
 Alpha  occ. eigenvalues --   -0.33121
 Alpha virt. eigenvalues --   -0.21905   0.20645   0.27967   0.91456   0.95631
 Alpha virt. eigenvalues --    0.95631   1.08256   1.21511   1.21511   1.24310
 Alpha virt. eigenvalues --    1.24310   1.24398   1.42097   2.11156   2.15343

  Beta  occ. eigenvalues --  -24.69679  -1.15993  -0.48734  -0.40987  -0.40987
  Beta virt. eigenvalues --   -0.12607  -0.04641   0.31132   0.40130   0.88516
  Beta virt. eigenvalues --    0.94552   0.94552   1.06124   1.37581   1.37581
  Beta virt. eigenvalues --    1.47826   1.47826   1.47935   1.51984   2.32518

 Mulliken charges and spin densities:
               1          2
     1  H    0.144636   0.825984
     2  H    0.001322   0.998708
     3  F   -0.145959  -0.824692
 Sum of Mulliken charges =   0.00000   1.00000

 Dipole moment (field-independent basis, Debye):
    X=             -1.6305    Y=             -0.0000    Z=             -0.0000  Tot=              1.6305
 Quadrupole moment (field-independent basis, Debye-Ang):
   XX=             -9.8604   YY=             -7.5166   ZZ=             -7.5166
   XY=             -0.0000   XZ=             -0.0000   YZ=             -0.0000

  Exact polarizability:      29.013      -0.000       2.041      -0.000       0.000       2.041
 Approx polarizability:      40.147      -0.000       1.930      -0.000       0.000       1.930

 ******    1 imaginary frequencies (negative Signs) ******

                      1                      2                      3
                      A                      A                      A
 Frequencies --   -852.3981                78.5254               355.9471
 Red. masses --      1.0596                 1.0520                 1.0242
 Frc consts  --      0.4536                 0.0038                 0.0765
 IR Inten    --     97.2455                 0.2450                19.7497

                      4
                      A
 Frequencies --    355.9471
 Red. masses --      1.0242
 Frc consts  --      0.0765
 IR Inten    --     19.7497

 - Thermochemistry -
 -------------------
 Temperature   298.150 Kelvin.  Pressure   1.00000 Atm.
 Atom     1 has atomic number  1 and mass   1.00783

 Molecular mass:    21.01405 amu.
 Principal axes and moments of inertia in atomic units:
                           1         2         3
     Eigenvalues --     0.00000 121.67208 121.67208
           X            1.00000  -0.00000   0.00000
           Y            0.00000   1.00000   0.00000
           Z            0.00000   0.00000   1.00000
 This molecule is a prolate symmetric top.
 Rotational symmetry number  1.
 Rotational temperature (Kelvin)      0.71186
 Rotational constant (GHZ):          14.832829
    1 imaginary frequencies ignored.
 Zero-point vibrational energy       4727.8 (Joules/Mol)
                                    1.12996 (Kcal/Mol)
 Warning -- explicit consideration of   3 degrees of freedom as
           vibrations may cause significant error
 Vibrational temperatures:    112.98   512.13   512.13
          (Kelvin)

 Zero-point correction=                           0.001801 (Hartree/Particle)
 Thermal correction to Energy=                    0.005647
 Thermal correction to Enthalpy=                  0.006591
 Thermal correction to Gibbs Free Energy=        -0.020319
 Sum of electronic and zero-point Energies=           -100.774279
 Sum of electronic and thermal Energies=              -100.770433
 Sum of electronic and thermal Enthalpies=            -100.769489
 Sum of electronic and thermal Free Energies=         -100.796399

                     E (Thermal)             CV                S
                      KCal/Mol        Cal/Mol-Kelvin    Cal/Mol-Kelvin
 Total                    3.544             10.058             56.637
 Electronic               0.000              0.000              1.377
 Translational            0.889              2.981             35.068
 Rotational               0.592              1.987             13.985
 Vibrational              2.062              5.090              6.207
 Vibration     1          0.600              1.964              3.927
 Vibration     2          0.731              1.563              1.140
 Vibration     3          0.731              1.563              1.140

 Normal termination of Gaussian 16 at Fri Aug 22 17:13:02 2025.
