 Gaussian 16, Revision C.01,
 Gaussian 16:  ES64L-G16RevC.01  3-Jul-2019

 -----------------------------------------
 # sp b3lyp/6-311g** Force nosymm scf=(qc)
 -----------------------------------------

 -------------------
 Title Card Required
 -------------------
 Symbolic Z-matrix:
 Charge =  0 Multiplicity = 2

                          Input orientation:
 ---------------------------------------------------------------------
 Center     Atomic      Atomic             Coordinates (Angstroms)
 Number     Number       Type             X           Y           Z
 ---------------------------------------------------------------------
      1          1           0        0.000000    0.000000    0.000000
      2          1           0       -2.550000    0.000000    0.000000
      3          9           0        3.350000    0.000000    0.000000
 ---------------------------------------------------------------------

 SCF Done:  E(UB3LYP) =  -100.762802789     a.u. after   27 cycles

 Alpha  occ. eigenvalues --  -24.75159  -1.21138  -0.54280  -0.45575  -0.45575
 Alpha  occ. eigenvalues --   -0.32730
 Alpha virt. eigenvalues --   -0.09586   0.25553   0.34218   0.88137   0.91620
 Alpha virt. eigenvalues --    0.91620   1.02246   1.24902   1.24902   1.26538
 Alpha virt. eigenvalues --    1.41300   1.41300   1.42609   2.15777   2.37149

  Beta  occ. eigenvalues --  -24.72061  -1.12241  -0.42471  -0.42471  -0.33151
  Beta virt. eigenvalues --   -0.25377  -0.08921   0.25392   0.35154   0.93104
  Beta virt. eigenvalues --    0.93104   0.97208   1.06240   1.24396   1.24396
  Beta virt. eigenvalues --    1.25918   1.42352   1.42352   1.43662   2.16459

 Mulliken charges and spin densities:
               1          2
     1  H    0.013309  -0.956286
     2  H    0.002723   0.974167
     3  F   -0.016032   0.982119
 Sum of Mulliken charges =   0.00000   1.00000

 Dipole moment (field-independent basis, Debye):
    X=             -0.3089    Y=              0.0000    Z=             -0.0000  Tot=              0.3089
 Quadrupole moment (field-independent basis, Debye-Ang):
   XX=             -7.3548   YY=             -7.6587   ZZ=             -7.6587
   XY=              0.0000   XZ=             -0.0000   YZ=              0.0000

  Exact polarizability:      36.465       0.000       2.021      -0.000      -0.000       2.021
 Approx polarizability:      28.674       0.000       1.927      -0.000      -0.000       1.927

 ******    2 imaginary frequencies (negative Signs) ******

                      1                      2                      3
                      A                      A                      A
 Frequencies --   -633.1809              -165.0577               231.5768
 Red. masses --      1.0084                 1.1078                 1.0150
 Frc consts  --      0.2382                 0.0178                 0.0321
 IR Inten    --     10.0929                 9.3880                 0.1305

                      4
                      A
 Frequencies --    231.5768
 Red. masses --      1.0150
 Frc consts  --      0.0321
 IR Inten    --      0.1305

 - Thermochemistry -
 -------------------
 Temperature   298.150 Kelvin.  Pressure   1.00000 Atm.
 Atom     1 has atomic number  1 and mass   1.00783

 Molecular mass:    21.01405 amu.
 Principal axes and moments of inertia in atomic units:
                           1         2         3
     Eigenvalues --     0.00000 150.90268 150.90268
           X            1.00000  -0.00000   0.00000
           Y            0.00000   1.00000   0.00000
           Z            0.00000   0.00000   1.00000
 This molecule is a prolate symmetric top.
 Rotational symmetry number  1.
 Rotational temperature (Kelvin)      0.57397
 Rotational constant (GHZ):          11.959636
    2 imaginary frequencies ignored.
 Zero-point vibrational energy       2770.3 (Joules/Mol)
                                    0.66211 (Kcal/Mol)
 Warning -- explicit consideration of   2 degrees of freedom as
           vibrations may cause significant error
 Vibrational temperatures:    333.19   333.19
          (Kelvin)

 Zero-point correction=                           0.001055 (Hartree/Particle)
 Thermal correction to Energy=                    0.004441
 Thermal correction to Enthalpy=                  0.005386
 Thermal correction to Gibbs Free Energy=        -0.020553
 Sum of electronic and zero-point Energies=           -100.761748
 Sum of electronic and thermal Energies=              -100.758361
 Sum of electronic and thermal Enthalpies=            -100.757417
 Sum of electronic and thermal Free Energies=         -100.783355

                     E (Thermal)             CV                S
                      KCal/Mol        Cal/Mol-Kelvin    Cal/Mol-Kelvin
 Total                    2.787              8.553             54.592
 Electronic               0.000              0.000              1.377
 Translational            0.889              2.981             35.068
 Rotational               0.592              1.987             14.413
 Vibrational              1.306              3.585              3.733
 Vibration     1          0.653              1.793              1.867
 Vibration     2          0.653              1.793              1.867

 Normal termination of Gaussian 16 at Fri Aug 22 21:02:00 2025.
