 Gaussian 16, Revision C.01,
 Gaussian 16:  ES64L-G16RevC.01  3-Jul-2019

 -----------------------------------------
 # sp b3lyp/6-311g** Force nosymm scf=(qc)
 -----------------------------------------

 -------------------
 Title Card Required
 -------------------
 Symbolic Z-matrix:
 Charge =  0 Multiplicity = 2

                          Input orientation:
 ---------------------------------------------------------------------
 Center     Atomic      Atomic             Coordinates (Angstroms)
 Number     Number       Type             X           Y           Z
 ---------------------------------------------------------------------
      1          1           0        0.000000    0.000000    0.000000
      2          1           0       -1.150000    0.000000    0.000000
      3          9           0        1.450000    0.000000    0.000000
 ---------------------------------------------------------------------

 SCF Done:  E(UB3LYP) =  -100.912022274     a.u. after   13 cycles

 Alpha  occ. eigenvalues --  -24.67053  -1.14263  -0.51264  -0.39515  -0.39288
 Alpha  occ. eigenvalues --   -0.39288
 Alpha virt. eigenvalues --    0.00471   0.19947   0.31980   0.91031   0.91031
 Alpha virt. eigenvalues --    0.99778   1.09087   1.09087   1.13275   1.54692
 Alpha virt. eigenvalues --    1.54692   1.59280   2.11096   2.26961   2.48005

  Beta  occ. eigenvalues --  -24.65133  -1.09089  -0.43515  -0.37444  -0.37444
  Beta virt. eigenvalues --   -0.22845   0.03455   0.22112   0.33908   0.91734
  Beta virt. eigenvalues --    0.91734   1.04568   1.13323   1.13323   1.17162
  Beta virt. eigenvalues --    1.56880   1.56880   1.63113   2.15508   2.31312

 Mulliken charges and spin densities:
               1          2
     1  H    0.200149  -0.134750
     2  H    0.061881   0.550644
     3  F   -0.262030   0.584105
 Sum of Mulliken charges =   0.00000   1.00000

 Dipole moment (field-independent basis, Debye):
    X=             -2.2142    Y=              0.0000    Z=             -0.0000  Tot=              2.2142
 Quadrupole moment (field-independent basis, Debye-Ang):
   XX=             -7.6680   YY=             -7.0762   ZZ=             -7.0762
   XY=              0.0000   XZ=             -0.0000   YZ=             -0.0000

  Exact polarizability:      30.449       0.000       2.392      -0.000       0.000       2.392
 Approx polarizability:      45.480       0.000       2.364      -0.000      -0.000       2.364

 ******    1 imaginary frequencies (negative Signs) ******

                      1                      2                      3
                      A                      A                      A
 Frequencies --  -2512.6909               560.4544              1219.5888
 Red. masses --      1.0257                 1.0877                 1.0154
 Frc consts  --      3.8153                 0.2013                 0.8898
 IR Inten    --    859.1687                38.2434                11.9250

                      4
                      A
 Frequencies --   1219.5888
 Red. masses --      1.0154
 Frc consts  --      0.8898
 IR Inten    --     11.9250

 - Thermochemistry -
 -------------------
 Temperature   298.150 Kelvin.  Pressure   1.00000 Atm.
 Atom     1 has atomic number  1 and mass   1.00783

 Molecular mass:    21.01405 amu.
 Principal axes and moments of inertia in atomic units:
                           1         2         3
     Eigenvalues --     0.00000  29.06503  29.06503
           X            1.00000  -0.00000   0.00000
           Y            0.00000   1.00000   0.00000
           Z            0.00000   0.00000   1.00000
 This molecule is a prolate symmetric top.
 Rotational symmetry number  1.
 Rotational temperature (Kelvin)      2.98000
 Rotational constant (GHZ):          62.093220
    1 imaginary frequencies ignored.
 Zero-point vibrational energy      17941.8 (Joules/Mol)
                                    4.28819 (Kcal/Mol)
 Warning -- explicit consideration of   1 degrees of freedom as
           vibrations may cause significant error
 Vibrational temperatures:    806.37  1754.72  1754.72
          (Kelvin)

 Zero-point correction=                           0.006834 (Hartree/Particle)
 Thermal correction to Energy=                    0.009408
 Thermal correction to Enthalpy=                  0.010352
 Thermal correction to Gibbs Free Energy=        -0.012542
 Sum of electronic and zero-point Energies=           -100.905189
 Sum of electronic and thermal Energies=              -100.902614
 Sum of electronic and thermal Enthalpies=            -100.901670
 Sum of electronic and thermal Free Energies=         -100.924564

                     E (Thermal)             CV                S
                      KCal/Mol        Cal/Mol-Kelvin    Cal/Mol-Kelvin
 Total                    5.904              6.470             48.184
 Electronic               0.000              0.000              1.377
 Translational            0.889              2.981             35.068
 Rotational               0.592              1.987             11.140
 Vibrational              4.423              1.502              0.599
 Vibration     1          0.916              1.117              0.523

 Normal termination of Gaussian 16 at Fri Aug 22 16:22:03 2025.
