 Gaussian 16, Revision C.01,
 Gaussian 16:  ES64L-G16RevC.01  3-Jul-2019

 -----------------------------------------
 # sp b3lyp/6-311g** Force nosymm scf=(qc)
 -----------------------------------------

 -------------------
 Title Card Required
 -------------------
 Symbolic Z-matrix:
 Charge =  0 Multiplicity = 2

                          Input orientation:
 ---------------------------------------------------------------------
 Center     Atomic      Atomic             Coordinates (Angstroms)
 Number     Number       Type             X           Y           Z
 ---------------------------------------------------------------------
      1          1           0        0.000000    0.000000    0.000000
      2          1           0       -2.200000    0.000000    0.000000
      3          9           0        1.000000    0.000000    0.000000
 ---------------------------------------------------------------------

 SCF Done:  E(UB3LYP) =  -100.966852936     a.u. after    6 cycles

 Alpha  occ. eigenvalues --  -24.63924  -1.15860  -0.51624  -0.38586  -0.38586
 Alpha  occ. eigenvalues --   -0.35643
 Alpha virt. eigenvalues --    0.02809   0.24713   0.34221   0.94239   0.94239
 Alpha virt. eigenvalues --    0.98417   1.16508   1.21862   1.21862   1.36180
 Alpha virt. eigenvalues --    1.36180   1.44599   1.89107   2.14171   2.34722

  Beta  occ. eigenvalues --  -24.63876  -1.15740  -0.51380  -0.38544  -0.38544
  Beta virt. eigenvalues --   -0.11485   0.04950   0.34041   0.35948   0.94244
  Beta virt. eigenvalues --    0.94244   0.98702   1.25912   1.35977   1.35977
  Beta virt. eigenvalues --    1.42384   1.42384   1.54727   1.89598   2.33461

 Mulliken charges and spin densities:
               1          2
     1  H    0.310198   0.004152
     2  H    0.012235   0.982084
     3  F   -0.322433   0.013764
 Sum of Mulliken charges =   0.00000   1.00000

 Dipole moment (field-independent basis, Debye):
    X=             -2.1713    Y=             -0.0000    Z=             -0.0000  Tot=              2.1713
 Quadrupole moment (field-independent basis, Debye-Ang):
   XX=             -7.8613   YY=             -6.9404   ZZ=             -6.9404
   XY=             -0.0000   XZ=             -0.0000   YZ=             -0.0000

  Exact polarizability:       9.917       0.000       2.444      -0.000       0.000       2.444
 Approx polarizability:      11.039      -0.000       2.422      -0.000       0.000       2.422

 ******    1 imaginary frequencies (negative Signs) ******

                      1                      2                      3
                      A                      A                      A
 Frequencies --    -46.7713               951.8188               951.8188
 Red. masses --      1.0524                 1.0296                 1.0296
 Frc consts  --      0.0014                 0.5496                 0.5496
 IR Inten    --      2.2336               144.0541               144.0541

                      4
                      A
 Frequencies --   2996.0676
 Red. masses --      1.0591
 Frc consts  --      5.6015
 IR Inten    --    157.2138

 - Thermochemistry -
 -------------------
 Temperature   298.150 Kelvin.  Pressure   1.00000 Atm.
 Atom     1 has atomic number  1 and mass   1.00783

 Molecular mass:    21.01405 amu.
 Principal axes and moments of inertia in atomic units:
                           1         2         3
     Eigenvalues --     0.00000  37.40807  37.40807
           X            1.00000  -0.00000   0.00000
           Y            0.00000   1.00000   0.00000
           Z            0.00000   0.00000   1.00000
 This molecule is a prolate symmetric top.
 Rotational symmetry number  1.
 Rotational temperature (Kelvin)      2.31538
 Rotational constant (GHZ):          48.244702
    1 imaginary frequencies ignored.
 Zero-point vibrational energy      29306.7 (Joules/Mol)
                                    7.00448 (Kcal/Mol)
 Vibrational temperatures:   1369.45  1369.45  4310.67
          (Kelvin)

 Zero-point correction=                           0.011162 (Hartree/Particle)
 Thermal correction to Energy=                    0.013611
 Thermal correction to Enthalpy=                  0.014556
 Thermal correction to Gibbs Free Energy=        -0.008400
 Sum of electronic and zero-point Energies=           -100.955691
 Sum of electronic and thermal Energies=              -100.953241
 Sum of electronic and thermal Enthalpies=            -100.952297
 Sum of electronic and thermal Free Energies=         -100.975253

                     E (Thermal)             CV                S
                      KCal/Mol        Cal/Mol-Kelvin    Cal/Mol-Kelvin
 Total                    8.541              5.834             48.314
 Electronic               0.000              0.000              1.377
 Translational            0.889              2.981             35.068
 Rotational               0.592              1.987             11.641
 Vibrational              7.060              0.866              0.227

 Normal termination of Gaussian 16 at Fri Aug 22 16:00:41 2025.
