 Gaussian 16, Revision C.01,
 Gaussian 16:  ES64L-G16RevC.01  3-Jul-2019

 -----------------------------------------
 # sp b3lyp/6-311g** Force nosymm scf=(qc)
 -----------------------------------------

 -------------------
 Title Card Required
 -------------------
 Symbolic Z-matrix:
 Charge =  0 Multiplicity = 2

                          Input orientation:
 ---------------------------------------------------------------------
 Center     Atomic      Atomic             Coordinates (Angstroms)
 Number     Number       Type             X           Y           Z
 ---------------------------------------------------------------------
      1          1           0        0.000000    0.000000    0.000000
      2          1           0       -2.700000    0.000000    0.000000
      3          9           0        3.400000    0.000000    0.000000
 ---------------------------------------------------------------------

 SCF Done:  E(UB3LYP) =  -100.761522358     a.u. after   27 cycles

 Alpha  occ. eigenvalues --  -24.75244  -1.21217  -0.54366  -0.45647  -0.45647
 Alpha  occ. eigenvalues --   -0.32611
 Alpha virt. eigenvalues --   -0.09037   0.25386   0.34776   0.87950   0.91567
 Alpha virt. eigenvalues --    0.91567   1.02086   1.24976   1.24976   1.26372
 Alpha virt. eigenvalues --    1.42272   1.42272   1.42910   2.15927   2.38116

  Beta  occ. eigenvalues --  -24.72141  -1.12302  -0.42537  -0.42537  -0.33051
  Beta virt. eigenvalues --   -0.25418  -0.08397   0.25190   0.35705   0.93053
  Beta virt. eigenvalues --    0.93053   0.97048   1.06087   1.24455   1.24455
  Beta virt. eigenvalues --    1.25764   1.43285   1.43285   1.43916   2.16464

 Mulliken charges and spin densities:
               1          2
     1  H    0.012640  -0.967139
     2  H    0.001718   0.983097
     3  F   -0.014358   0.984041
 Sum of Mulliken charges =  -0.00000   1.00000

 Dipole moment (field-independent basis, Debye):
    X=             -0.2729    Y=             -0.0000    Z=             -0.0000  Tot=              0.2729
 Quadrupole moment (field-independent basis, Debye-Ang):
   XX=             -7.3574   YY=             -7.6485   ZZ=             -7.6485
   XY=             -0.0000   XZ=              0.0000   YZ=              0.0000

  Exact polarizability:      32.425      -0.000       2.024       0.000       0.000       2.024
 Approx polarizability:      25.444      -0.000       1.929       0.000       0.000       1.929

 ******    2 imaginary frequencies (negative Signs) ******

                      1                      2                      3
                      A                      A                      A
 Frequencies --   -518.2346              -152.4861               186.5849
 Red. masses --      1.0089                 1.1073                 1.0154
 Frc consts  --      0.1596                 0.0152                 0.0208
 IR Inten    --      9.0686                 7.3033                 0.1250

                      4
                      A
 Frequencies --    186.5849
 Red. masses --      1.0154
 Frc consts  --      0.0208
 IR Inten    --      0.1250

 - Thermochemistry -
 -------------------
 Temperature   298.150 Kelvin.  Pressure   1.00000 Atm.
 Atom     1 has atomic number  1 and mass   1.00783

 Molecular mass:    21.01405 amu.
 Principal axes and moments of inertia in atomic units:
                           1         2         3
     Eigenvalues --     0.00000 159.94587 159.94587
           X            1.00000  -0.00000   0.00000
           Y            0.00000   1.00000   0.00000
           Z            0.00000   0.00000   1.00000
 This molecule is a prolate symmetric top.
 Rotational symmetry number  1.
 Rotational temperature (Kelvin)      0.54152
 Rotational constant (GHZ):          11.283450
    2 imaginary frequencies ignored.
 Zero-point vibrational energy       2232.1 (Joules/Mol)
                                    0.53347 (Kcal/Mol)
 Warning -- explicit consideration of   2 degrees of freedom as
           vibrations may cause significant error
 Vibrational temperatures:    268.45   268.45
          (Kelvin)

 Zero-point correction=                           0.000850 (Hartree/Particle)
 Thermal correction to Energy=                    0.004375
 Thermal correction to Enthalpy=                  0.005319
 Thermal correction to Gibbs Free Energy=        -0.021049
 Sum of electronic and zero-point Energies=           -100.760672
 Sum of electronic and thermal Energies=              -100.757148
 Sum of electronic and thermal Enthalpies=            -100.756203
 Sum of electronic and thermal Free Energies=         -100.782572

                     E (Thermal)             CV                S
                      KCal/Mol        Cal/Mol-Kelvin    Cal/Mol-Kelvin
 Total                    2.745              8.684             55.497
 Electronic               0.000              0.000              1.377
 Translational            0.889              2.981             35.068
 Rotational               0.592              1.987             14.528
 Vibrational              1.264              3.716              4.523
 Vibration     1          0.632              1.858              2.261
 Vibration     2          0.632              1.858              2.261

 Normal termination of Gaussian 16 at Fri Aug 22 21:17:39 2025.
