 Gaussian 16, Revision C.01,
 Gaussian 16:  ES64L-G16RevC.01  3-Jul-2019

 -----------------------------------------
 # sp b3lyp/6-311g** Force nosymm scf=(qc)
 -----------------------------------------

 -------------------
 Title Card Required
 -------------------
 Symbolic Z-matrix:
 Charge =  0 Multiplicity = 2

                          Input orientation:
 ---------------------------------------------------------------------
 Center     Atomic      Atomic             Coordinates (Angstroms)
 Number     Number       Type             X           Y           Z
 ---------------------------------------------------------------------
      1          1           0        0.000000    0.000000    0.000000
      2          1           0       -3.150000    0.000000    0.000000
      3          9           0        3.800000    0.000000    0.000000
 ---------------------------------------------------------------------

 SCF Done:  E(UB3LYP) =  -100.759247768     a.u. after   33 cycles

 Alpha  occ. eigenvalues --  -24.75760  -1.21696  -0.54885  -0.46082  -0.46082
 Alpha  occ. eigenvalues --   -0.32333
 Alpha virt. eigenvalues --   -0.07414   0.24798   0.36811   0.86858   0.91246
 Alpha virt. eigenvalues --    0.91246   1.01261   1.25188   1.25188   1.25655
 Alpha virt. eigenvalues --    1.44642   1.44808   1.44808   2.15587   2.40084

  Beta  occ. eigenvalues --  -24.72623  -1.12675  -0.42937  -0.42937  -0.32587
  Beta virt. eigenvalues --   -0.25675  -0.07118   0.24614   0.37249   0.92742
  Beta virt. eigenvalues --    0.92742   0.96166   1.05359   1.24907   1.24907
  Beta virt. eigenvalues --    1.25354   1.45102   1.45264   1.45264   2.15664

 Mulliken charges and spin densities:
               1          2
     1  H    0.004393  -0.989669
     2  H    0.000246   0.994830
     3  F   -0.004639   0.994839
 Sum of Mulliken charges =   0.00000   1.00000

 Dipole moment (field-independent basis, Debye):
    X=             -0.0947    Y=              0.0000    Z=             -0.0000  Tot=              0.0947
 Quadrupole moment (field-independent basis, Debye-Ang):
   XX=             -6.9999   YY=             -7.6311   ZZ=             -7.6311
   XY=              0.0000   XZ=             -0.0000   YZ=             -0.0000

  Exact polarizability:      16.837       0.000       2.029      -0.000      -0.000       2.029
 Approx polarizability:      12.459       0.000       1.934      -0.000       0.000       1.934

 ******    2 imaginary frequencies (negative Signs) ******

                      1                      2                      3
                      A                      A                      A
 Frequencies --   -287.3147               -92.0312                99.6336
 Red. masses --      1.0093                 1.1067                 1.0158
 Frc consts  --      0.0491                 0.0055                 0.0059
 IR Inten    --      2.0002                 1.3528                 0.0176

                      4
                      A
 Frequencies --     99.6336
 Red. masses --      1.0158
 Frc consts  --      0.0059
 IR Inten    --      0.0176

 - Thermochemistry -
 -------------------
 Temperature   298.150 Kelvin.  Pressure   1.00000 Atm.
 Atom     1 has atomic number  1 and mass   1.00783

 Molecular mass:    21.01405 amu.
 Principal axes and moments of inertia in atomic units:
                           1         2         3
     Eigenvalues --     0.00000 205.86391 205.86391
           X            1.00000  -0.00000   0.00000
           Y            0.00000   1.00000   0.00000
           Z            0.00000   0.00000   1.00000
 This molecule is a prolate symmetric top.
 Rotational symmetry number  1.
 Rotational temperature (Kelvin)      0.42073
 Rotational constant (GHZ):           8.766671
    2 imaginary frequencies ignored.
 Zero-point vibrational energy       1191.9 (Joules/Mol)
                                    0.28487 (Kcal/Mol)
 Warning -- explicit consideration of   2 degrees of freedom as
           vibrations may cause significant error
 Vibrational temperatures:    143.35   143.35
          (Kelvin)

 Zero-point correction=                           0.000454 (Hartree/Particle)
 Thermal correction to Energy=                    0.004285
 Thermal correction to Enthalpy=                  0.005229
 Thermal correction to Gibbs Free Energy=        -0.022518
 Sum of electronic and zero-point Energies=           -100.758794
 Sum of electronic and thermal Energies=              -100.754963
 Sum of electronic and thermal Enthalpies=            -100.754019
 Sum of electronic and thermal Free Energies=         -100.781765

                     E (Thermal)             CV                S
                      KCal/Mol        Cal/Mol-Kelvin    Cal/Mol-Kelvin
 Total                    2.689              8.867             58.398
 Electronic               0.000              0.000              1.377
 Translational            0.889              2.981             35.068
 Rotational               0.592              1.987             15.030
 Vibrational              1.208              3.899              6.923
 Vibration     1          0.604              1.949              3.461
 Vibration     2          0.604              1.949              3.461

 Normal termination of Gaussian 16 at Sat Aug 23 00:51:35 2025.
