 Gaussian 16, Revision C.01,
 Gaussian 16:  ES64L-G16RevC.01  3-Jul-2019

 -----------------------------------------
 # sp b3lyp/6-311g** Force nosymm scf=(qc)
 -----------------------------------------

 -------------------
 Title Card Required
 -------------------
 Symbolic Z-matrix:
 Charge =  0 Multiplicity = 2

                          Input orientation:
 ---------------------------------------------------------------------
 Center     Atomic      Atomic             Coordinates (Angstroms)
 Number     Number       Type             X           Y           Z
 ---------------------------------------------------------------------
      1          1           0        0.000000    0.000000    0.000000
      2          1           0       -3.350000    0.000000    0.000000
      3          9           0        1.450000    0.000000    0.000000
 ---------------------------------------------------------------------

 SCF Done:  E(UB3LYP) =  -100.865873039     a.u. after    8 cycles

 Alpha  occ. eigenvalues --  -24.64342  -1.09946  -0.43870  -0.36542  -0.36542
 Alpha  occ. eigenvalues --   -0.34133
 Alpha virt. eigenvalues --   -0.13177   0.20690   0.27868   0.93297   0.93297
 Alpha virt. eigenvalues --    1.03521   1.12301   1.23382   1.23382   1.23497
 Alpha virt. eigenvalues --    1.31948   1.31948   1.72549   2.13634   2.19832

  Beta  occ. eigenvalues --  -24.64317  -1.09880  -0.43805  -0.36519  -0.36519
  Beta virt. eigenvalues --   -0.13620  -0.06694   0.23780   0.38070   0.93289
  Beta virt. eigenvalues --    0.93289   1.03588   1.12352   1.31843   1.31843
  Beta virt. eigenvalues --    1.45545   1.46021   1.46021   1.72550   2.19493

 Mulliken charges and spin densities:
               1          2
     1  H    0.352237  -0.005242
     2  H    0.002548   0.997271
     3  F   -0.354786   0.007971
 Sum of Mulliken charges =   0.00000   1.00000

 Dipole moment (field-independent basis, Debye):
    X=             -2.5809    Y=             -0.0000    Z=              0.0000  Tot=              2.5809
 Quadrupole moment (field-independent basis, Debye-Ang):
   XX=             -9.6683   YY=             -7.2941   ZZ=             -7.2941
   XY=             -0.0000   XZ=              0.0000   YZ=              0.0000

  Exact polarizability:      14.863      -0.000       2.211       0.000      -0.000       2.211
 Approx polarizability:      26.018       0.000       2.141       0.000      -0.000       2.141

 ******    2 imaginary frequencies (negative Signs) ******

                      1                      2                      3
                      A                      A                      A
 Frequencies --  -1105.3237               -90.6888              1051.5950
 Red. masses --      1.0571                 1.0544                 1.0304
 Frc consts  --      0.7609                 0.0051                 0.6714
 IR Inten    --     52.4518                 0.2917               120.4193

                      4
                      A
 Frequencies --   1051.5950
 Red. masses --      1.0304
 Frc consts  --      0.6714
 IR Inten    --    120.4193

 - Thermochemistry -
 -------------------
 Temperature   298.150 Kelvin.  Pressure   1.00000 Atm.
 Atom     1 has atomic number  1 and mass   1.00783

 Molecular mass:    21.01405 amu.
 Principal axes and moments of inertia in atomic units:
                           1         2         3
     Eigenvalues --     0.00000  83.74561  83.74561
           X            1.00000  -0.00000   0.00000
           Y            0.00000   1.00000   0.00000
           Z            0.00000   0.00000   1.00000
 This molecule is a prolate symmetric top.
 Rotational symmetry number  1.
 Rotational temperature (Kelvin)      1.03425
 Rotational constant (GHZ):          21.550277
    2 imaginary frequencies ignored.
 Zero-point vibrational energy      12579.9 (Joules/Mol)
                                    3.00666 (Kcal/Mol)
 Vibrational temperatures:   1513.01  1513.01
          (Kelvin)

 Zero-point correction=                           0.004791 (Hartree/Particle)
 Thermal correction to Energy=                    0.007212
 Thermal correction to Enthalpy=                  0.008156
 Thermal correction to Gibbs Free Energy=        -0.015524
 Sum of electronic and zero-point Energies=           -100.861082
 Sum of electronic and thermal Energies=              -100.858661
 Sum of electronic and thermal Enthalpies=            -100.857717
 Sum of electronic and thermal Free Energies=         -100.881397

                     E (Thermal)             CV                S
                      KCal/Mol        Cal/Mol-Kelvin    Cal/Mol-Kelvin
 Total                    4.526              5.616             49.840
 Electronic               0.000              0.000              1.377
 Translational            0.889              2.981             35.068
 Rotational               0.592              1.987             13.243
 Vibrational              3.045              0.648              0.152

 Normal termination of Gaussian 16 at Fri Aug 22 16:23:46 2025.
