 Gaussian 16, Revision C.01,
 Gaussian 16:  ES64L-G16RevC.01  3-Jul-2019

 -----------------------------------------
 # sp b3lyp/6-311g** Force nosymm scf=(qc)
 -----------------------------------------

 -------------------
 Title Card Required
 -------------------
 Symbolic Z-matrix:
 Charge =  0 Multiplicity = 2

                          Input orientation:
 ---------------------------------------------------------------------
 Center     Atomic      Atomic             Coordinates (Angstroms)
 Number     Number       Type             X           Y           Z
 ---------------------------------------------------------------------
      1          1           0        0.000000    0.000000    0.000000
      2          1           0       -1.700000    0.000000    0.000000
      3          9           0        0.800000    0.000000    0.000000
 ---------------------------------------------------------------------

 SCF Done:  E(UB3LYP) =  -100.948998947     a.u. after    6 cycles

 Alpha  occ. eigenvalues --  -24.63411  -1.22907  -0.56553  -0.40446  -0.40446
 Alpha  occ. eigenvalues --   -0.36159
 Alpha virt. eigenvalues --    0.10751   0.22659   0.43973   0.94305   0.94305
 Alpha virt. eigenvalues --    0.97363   1.19754   1.19754   1.20786   1.41536
 Alpha virt. eigenvalues --    1.41536   1.54763   2.03176   2.18076   2.65588

  Beta  occ. eigenvalues --  -24.63315  -1.22650  -0.55975  -0.40368  -0.40368
  Beta virt. eigenvalues --   -0.12496   0.12430   0.31302   0.46460   0.94354
  Beta virt. eigenvalues --    0.94354   0.97589   1.29529   1.34239   1.34239
  Beta virt. eigenvalues --    1.45653   1.45653   1.61124   2.09797   2.32057

 Mulliken charges and spin densities:
               1          2
     1  H    0.256521   0.011308
     2  H    0.016796   0.968357
     3  F   -0.273317   0.020336
 Sum of Mulliken charges =   0.00000   1.00000

 Dipole moment (field-independent basis, Debye):
    X=             -1.8724    Y=              0.0000    Z=             -0.0000  Tot=              1.8724
 Quadrupole moment (field-independent basis, Debye-Ang):
   XX=             -7.2524   YY=             -6.6973   ZZ=             -6.6973
   XY=              0.0000   XZ=              0.0000   YZ=             -0.0000

  Exact polarizability:       8.282      -0.000       2.524       0.000       0.000       2.524
 Approx polarizability:       8.312      -0.000       2.523       0.000      -0.000       2.523

 ******    2 imaginary frequencies (negative Signs) ******

                      1                      2                      3
                      A                      A                      A
 Frequencies --  -1948.2021             -1948.2021               503.8833
 Red. masses --      1.0290                 1.0290                 1.0532
 Frc consts  --      2.3012                 2.3012                 0.1576
 IR Inten    --    145.5865               145.5865                 0.0001

                      4
                      A
 Frequencies --   6318.6600
 Red. masses --      1.0584
 Frc consts  --     24.8963
 IR Inten    --    178.6219

 - Thermochemistry -
 -------------------
 Temperature   298.150 Kelvin.  Pressure   1.00000 Atm.
 Atom     1 has atomic number  1 and mass   1.00783

 Molecular mass:    21.01405 amu.
 Principal axes and moments of inertia in atomic units:
                           1         2         3
     Eigenvalues --     0.00000  22.91748  22.91748
           X            1.00000  -0.00000   0.00000
           Y            0.00000   1.00000   0.00000
           Z            0.00000   0.00000   1.00000
 This molecule is a prolate symmetric top.
 Rotational symmetry number  1.
 Rotational temperature (Kelvin)      3.77938
 Rotational constant (GHZ):          78.749550
    2 imaginary frequencies ignored.
 Zero-point vibrational energy      40807.9 (Joules/Mol)
                                    9.75332 (Kcal/Mol)
 Warning -- explicit consideration of   1 degrees of freedom as
           vibrations may cause significant error
 Vibrational temperatures:    724.98  9091.14
          (Kelvin)

 Zero-point correction=                           0.015543 (Hartree/Particle)
 Thermal correction to Energy=                    0.018125
 Thermal correction to Enthalpy=                  0.019069
 Thermal correction to Gibbs Free Energy=        -0.003624
 Sum of electronic and zero-point Energies=           -100.933456
 Sum of electronic and thermal Energies=              -100.930874
 Sum of electronic and thermal Enthalpies=            -100.929930
 Sum of electronic and thermal Free Energies=         -100.952623

                     E (Thermal)             CV                S
                      KCal/Mol        Cal/Mol-Kelvin    Cal/Mol-Kelvin
 Total                   11.373              6.209             47.761
 Electronic               0.000              0.000              1.377
 Translational            0.889              2.981             35.068
 Rotational               0.592              1.987             10.667
 Vibrational              9.892              1.241              0.648
 Vibration     1          0.859              1.241              0.648

 Normal termination of Gaussian 16 at Fri Aug 22 15:50:53 2025.
