 Gaussian 16, Revision C.01,
 Gaussian 16:  ES64L-G16RevC.01  3-Jul-2019

 -----------------------------------------
 # sp b3lyp/6-311g** Force nosymm scf=(qc)
 -----------------------------------------

 -------------------
 Title Card Required
 -------------------
 Symbolic Z-matrix:
 Charge =  0 Multiplicity = 2

                          Input orientation:
 ---------------------------------------------------------------------
 Center     Atomic      Atomic             Coordinates (Angstroms)
 Number     Number       Type             X           Y           Z
 ---------------------------------------------------------------------
      1          1           0        0.000000    0.000000    0.000000
      2          1           0       -1.150000    0.000000    0.000000
      3          9           0        0.750000    0.000000    0.000000
 ---------------------------------------------------------------------

 SCF Done:  E(UB3LYP) =  -100.902411927     a.u. after    6 cycles

 Alpha  occ. eigenvalues --  -24.64070  -1.26741  -0.60591  -0.41861  -0.41861
 Alpha  occ. eigenvalues --   -0.35610
 Alpha virt. eigenvalues --    0.15173   0.19772   0.57845   0.91471   0.91471
 Alpha virt. eigenvalues --    0.94716   1.10223   1.10223   1.44611   1.58190
 Alpha virt. eigenvalues --    1.58190   1.70230   2.00630   2.31581   3.37689

  Beta  occ. eigenvalues --  -24.63717  -1.25756  -0.58354  -0.41568  -0.41568
  Beta virt. eigenvalues --   -0.14228   0.16221   0.25763   0.63296   0.92425
  Beta virt. eigenvalues --    0.92425   0.95446   1.18774   1.18774   1.46205
  Beta virt. eigenvalues --    1.64036   1.64036   1.81399   2.01621   2.49319

 Mulliken charges and spin densities:
               1          2
     1  H    0.255584   0.004444
     2  H    0.002688   0.930532
     3  F   -0.258272   0.065024
 Sum of Mulliken charges =   0.00000   1.00000

 Dipole moment (field-independent basis, Debye):
    X=             -1.5675    Y=              0.0000    Z=              0.0000  Tot=              1.5675
 Quadrupole moment (field-independent basis, Debye-Ang):
   XX=             -7.3485   YY=             -6.5573   ZZ=             -6.5573
   XY=             -0.0000   XZ=              0.0000   YZ=             -0.0000

  Exact polarizability:       8.710      -0.000       2.572      -0.000       0.000       2.572
 Approx polarizability:       8.708       0.000       2.607      -0.000       0.000       2.607

 ******    2 imaginary frequencies (negative Signs) ******

                      1                      2                      3
                      A                      A                      A
 Frequencies --  -2732.8079             -2732.8079              1447.6189
 Red. masses --      1.0239                 1.0239                 1.0542
 Frc consts  --      4.5051                 4.5051                 1.3016
 IR Inten    --    119.3470               119.3470                33.8764

                      4
                      A
 Frequencies --   7486.0140
 Red. masses --      1.0574
 Frc consts  --     34.9124
 IR Inten    --    112.9147

 - Thermochemistry -
 -------------------
 Temperature   298.150 Kelvin.  Pressure   1.00000 Atm.
 Atom     1 has atomic number  1 and mass   1.00783

 Molecular mass:    21.01405 amu.
 Principal axes and moments of inertia in atomic units:
                           1         2         3
     Eigenvalues --     0.00000  13.80473  13.80473
           X            1.00000  -0.00000   0.00000
           Y            0.00000   1.00000   0.00000
           Z            0.00000   0.00000   1.00000
 This molecule is a prolate symmetric top.
 Rotational symmetry number  1.
 Rotational temperature (Kelvin)      6.27422
 Rotational constant (GHZ):         130.733529
    2 imaginary frequencies ignored.
 Zero-point vibrational energy      53435.0 (Joules/Mol)
                                   12.77127 (Kcal/Mol)
 Vibrational temperatures:   2082.80 10770.70
          (Kelvin)

 Zero-point correction=                           0.020352 (Hartree/Particle)
 Thermal correction to Energy=                    0.022719
 Thermal correction to Enthalpy=                  0.023663
 Thermal correction to Gibbs Free Energy=         0.001750
 Sum of electronic and zero-point Energies=           -100.882060
 Sum of electronic and thermal Energies=              -100.879693
 Sum of electronic and thermal Enthalpies=            -100.878749
 Sum of electronic and thermal Free Energies=         -100.900662

                     E (Thermal)             CV                S
                      KCal/Mol        Cal/Mol-Kelvin    Cal/Mol-Kelvin
 Total                   14.256              5.058             46.120
 Electronic               0.000              0.000              1.377
 Translational            0.889              2.981             35.068
 Rotational               0.592              1.987              9.660
 Vibrational             12.775              0.090              0.015

 Normal termination of Gaussian 16 at Fri Aug 22 15:48:10 2025.
