 Gaussian 16, Revision C.01,
 Gaussian 16:  ES64L-G16RevC.01  3-Jul-2019

 -----------------------------------------
 # sp b3lyp/6-311g** Force nosymm scf=(qc)
 -----------------------------------------

 -------------------
 Title Card Required
 -------------------
 Symbolic Z-matrix:
 Charge =  0 Multiplicity = 2

                          Input orientation:
 ---------------------------------------------------------------------
 Center     Atomic      Atomic             Coordinates (Angstroms)
 Number     Number       Type             X           Y           Z
 ---------------------------------------------------------------------
      1          1           0        0.000000    0.000000    0.000000
      2          1           0       -3.150000    0.000000    0.000000
      3          9           0        1.300000    0.000000    0.000000
 ---------------------------------------------------------------------

 SCF Done:  E(UB3LYP) =  -100.901379694     a.u. after    7 cycles

 Alpha  occ. eigenvalues --  -24.64332  -1.11085  -0.46043  -0.37036  -0.37036
 Alpha  occ. eigenvalues --   -0.34292
 Alpha virt. eigenvalues --   -0.08811   0.22034   0.28332   0.93038   0.93038
 Alpha virt. eigenvalues --    1.02078   1.21627   1.23231   1.23231   1.23733
 Alpha virt. eigenvalues --    1.33844   1.33844   1.70958   2.13935   2.24904

  Beta  occ. eigenvalues --  -24.64317  -1.11047  -0.45997  -0.37022  -0.37022
  Beta virt. eigenvalues --   -0.10377  -0.05728   0.25585   0.37907   0.93035
  Beta virt. eigenvalues --    0.93035   1.02119   1.21953   1.33803   1.33803
  Beta virt. eigenvalues --    1.45463   1.45923   1.45923   1.71044   2.24837

 Mulliken charges and spin densities:
               1          2
     1  H    0.356463  -0.001114
     2  H    0.003203   0.996412
     3  F   -0.359666   0.004702
 Sum of Mulliken charges =   0.00000   1.00000

 Dipole moment (field-independent basis, Debye):
    X=             -2.4390    Y=             -0.0000    Z=             -0.0000  Tot=              2.4390
 Quadrupole moment (field-independent basis, Debye-Ang):
   XX=             -9.1057   YY=             -7.2000   ZZ=             -7.2000
   XY=             -0.0000   XZ=             -0.0000   YZ=             -0.0000

  Exact polarizability:      12.228       0.000       2.283      -0.000      -0.000       2.283
 Approx polarizability:      18.258       0.000       2.228      -0.000      -0.000       2.228

 ******    2 imaginary frequencies (negative Signs) ******

                      1                      2                      3
                      A                      A                      A
 Frequencies --   -625.2286               -94.1982              1153.8232
 Red. masses --      1.0537                 1.0579                 1.0312
 Frc consts  --      0.2427                 0.0055                 0.8088
 IR Inten    --     69.8627                 0.0867               132.6296

                      4
                      A
 Frequencies --   1153.8232
 Red. masses --      1.0312
 Frc consts  --      0.8088
 IR Inten    --    132.6296

 - Thermochemistry -
 -------------------
 Temperature   298.150 Kelvin.  Pressure   1.00000 Atm.
 Atom     1 has atomic number  1 and mass   1.00783

 Molecular mass:    21.01405 amu.
 Principal axes and moments of inertia in atomic units:
                           1         2         3
     Eigenvalues --     0.00000  71.64487  71.64487
           X            1.00000  -0.00000   0.00000
           Y            0.00000   1.00000   0.00000
           Z            0.00000   0.00000   1.00000
 This molecule is a prolate symmetric top.
 Rotational symmetry number  1.
 Rotational temperature (Kelvin)      1.20893
 Rotational constant (GHZ):          25.190095
    2 imaginary frequencies ignored.
 Zero-point vibrational energy      13802.8 (Joules/Mol)
                                    3.29895 (Kcal/Mol)
 Vibrational temperatures:   1660.09  1660.09
          (Kelvin)

 Zero-point correction=                           0.005257 (Hartree/Particle)
 Thermal correction to Energy=                    0.007658
 Thermal correction to Enthalpy=                  0.008602
 Thermal correction to Gibbs Free Energy=        -0.014906
 Sum of electronic and zero-point Energies=           -100.896122
 Sum of electronic and thermal Energies=              -100.893722
 Sum of electronic and thermal Enthalpies=            -100.892778
 Sum of electronic and thermal Free Energies=         -100.916286

                     E (Thermal)             CV                S
                      KCal/Mol        Cal/Mol-Kelvin    Cal/Mol-Kelvin
 Total                    4.805              5.442             49.478
 Electronic               0.000              0.000              1.377
 Translational            0.889              2.981             35.068
 Rotational               0.592              1.987             12.932
 Vibrational              3.324              0.474              0.100

 Normal termination of Gaussian 16 at Fri Aug 22 16:15:50 2025.
