 Gaussian 16, Revision C.01,
 Gaussian 16:  ES64L-G16RevC.01  3-Jul-2019

 -----------------------------------------
 # sp b3lyp/6-311g** Force nosymm scf=(qc)
 -----------------------------------------

 -------------------
 Title Card Required
 -------------------
 Symbolic Z-matrix:
 Charge =  0 Multiplicity = 2

                          Input orientation:
 ---------------------------------------------------------------------
 Center     Atomic      Atomic             Coordinates (Angstroms)
 Number     Number       Type             X           Y           Z
 ---------------------------------------------------------------------
      1          1           0        0.000000    0.000000    0.000000
      2          1           0       -1.350000    0.000000    0.000000
      3          9           0        3.400000    0.000000    0.000000
 ---------------------------------------------------------------------

 SCF Done:  E(UB3LYP) =  -100.845256864     a.u. after  154 cycles

 Alpha  occ. eigenvalues --  -24.76438  -1.22304  -0.55501  -0.46704  -0.46655
 Alpha  occ. eigenvalues --   -0.34770
 Alpha virt. eigenvalues --   -0.07107   0.23931   0.31972   0.85906   0.90782
 Alpha virt. eigenvalues --    0.92326   1.01555   1.13069   1.16687   1.16691
 Alpha virt. eigenvalues --    1.47256   1.47260   1.94508   2.27338   2.51731

  Beta  occ. eigenvalues --  -24.73281  -1.13225  -0.43539  -0.43489  -0.34767
  Beta virt. eigenvalues --   -0.26140  -0.07102   0.23942   0.32009   0.92282
  Beta virt. eigenvalues --    0.93842   0.95370   1.05631   1.13083   1.16687
  Beta virt. eigenvalues --    1.16690   1.47256   1.47259   1.94514   2.27340

 Mulliken charges and spin densities:
               1          2
     1  H    0.000173   0.000072
     2  H   -0.003739  -0.000504
     3  F    0.003565   1.000432
 Sum of Mulliken charges =   0.00000   1.00000

 Dipole moment (field-independent basis, Debye):
    X=              0.0586    Y=             -0.0000    Z=             -0.0000  Tot=              0.0586
 Quadrupole moment (field-independent basis, Debye-Ang):
   XX=             -6.2316   YY=             -7.2071   ZZ=             -7.2110
   XY=             -0.0000   XZ=             -0.0000   YZ=              0.4321

  Exact polarizability:      19.410      -0.000       2.299      -0.000       0.232       2.297
 Approx polarizability:      32.721      -0.000       2.368      -0.000       0.291       2.366

 ******    2 imaginary frequencies (negative Signs) ******

                      1                      2                      3
                      A                      A                      A
 Frequencies --  -1087.2228               -29.4303              1353.0500
 Red. masses --      1.0078                 1.1085                 1.0105
 Frc consts  --      0.7019                 0.0006                 1.0900
 IR Inten    --      0.2853                 0.2225                 0.0020

                      4
                      A
 Frequencies --   1353.0813
 Red. masses --      1.0105
 Frc consts  --      1.0901
 IR Inten    --      0.0018

 - Thermochemistry -
 -------------------
 Temperature   298.150 Kelvin.  Pressure   1.00000 Atm.
 Atom     1 has atomic number  1 and mass   1.00783

 Molecular mass:    21.01405 amu.
 Principal axes and moments of inertia in atomic units:
                           1         2         3
     Eigenvalues --     0.00000 111.34219 111.34219
           X            1.00000  -0.00000   0.00000
           Y            0.00000   1.00000   0.00000
           Z            0.00000   0.00000   1.00000
 This molecule is a prolate symmetric top.
 Rotational symmetry number  1.
 Rotational temperature (Kelvin)      0.77791
 Rotational constant (GHZ):          16.208961
    2 imaginary frequencies ignored.
 Zero-point vibrational energy      16186.3 (Joules/Mol)
                                    3.86861 (Kcal/Mol)
 Vibrational temperatures:   1946.74  1946.78
          (Kelvin)

 Zero-point correction=                           0.006165 (Hartree/Particle)
 Thermal correction to Energy=                    0.008544
 Thermal correction to Enthalpy=                  0.009488
 Thermal correction to Gibbs Free Energy=        -0.014410
 Sum of electronic and zero-point Energies=           -100.839092
 Sum of electronic and thermal Energies=              -100.836713
 Sum of electronic and thermal Enthalpies=            -100.835769
 Sum of electronic and thermal Free Energies=         -100.859667

                     E (Thermal)             CV                S
                      KCal/Mol        Cal/Mol-Kelvin    Cal/Mol-Kelvin
 Total                    5.361              5.216             50.298
 Electronic               0.000              0.000              1.377
 Translational            0.889              2.981             35.068
 Rotational               0.592              1.987             13.809
 Vibrational              3.880              0.248              0.044

 Normal termination of Gaussian 16 at Fri Aug 22 21:13:34 2025.
