 Gaussian 16, Revision C.01,
 Gaussian 16:  ES64L-G16RevC.01  3-Jul-2019

 -----------------------------------------
 # sp b3lyp/6-311g** Force nosymm scf=(qc)
 -----------------------------------------

 -------------------
 Title Card Required
 -------------------
 Symbolic Z-matrix:
 Charge =  0 Multiplicity = 2

                          Input orientation:
 ---------------------------------------------------------------------
 Center     Atomic      Atomic             Coordinates (Angstroms)
 Number     Number       Type             X           Y           Z
 ---------------------------------------------------------------------
      1          1           0        0.000000    0.000000    0.000000
      2          1           0       -2.750000    0.000000    0.000000
      3          9           0        3.100000    0.000000    0.000000
 ---------------------------------------------------------------------

 SCF Done:  E(UB3LYP) =  -100.762330616     a.u. after   22 cycles

 Alpha  occ. eigenvalues --  -24.74465  -1.20495  -0.53584  -0.44992  -0.44992
 Alpha  occ. eigenvalues --   -0.32779
 Alpha virt. eigenvalues --   -0.09452   0.25135   0.34448   0.89114   0.92047
 Alpha virt. eigenvalues --    0.92047   1.03378   1.24798   1.24798   1.26178
 Alpha virt. eigenvalues --    1.41701   1.41701   1.42364   2.15744   2.38172

  Beta  occ. eigenvalues --  -24.71413  -1.11741  -0.41935  -0.41935  -0.33556
  Beta virt. eigenvalues --   -0.24997  -0.08331   0.25094   0.35823   0.93516
  Beta virt. eigenvalues --    0.93516   0.97975   1.07270   1.23877   1.23877
  Beta virt. eigenvalues --    1.25163   1.43502   1.43502   1.43991   2.16466

 Mulliken charges and spin densities:
               1          2
     1  H    0.026859  -0.952877
     2  H    0.002591   0.985474
     3  F   -0.029451   0.967403
 Sum of Mulliken charges =  -0.00000   1.00000

 Dipole moment (field-independent basis, Debye):
    X=             -0.5028    Y=              0.0000    Z=             -0.0000  Tot=              0.5028
 Quadrupole moment (field-independent basis, Debye-Ang):
   XX=             -7.9019   YY=             -7.6380   ZZ=             -7.6380
   XY=             -0.0000   XZ=              0.0000   YZ=             -0.0000

  Exact polarizability:      37.466      -0.000       2.020       0.000       0.000       2.020
 Approx polarizability:      33.639      -0.000       1.925       0.000      -0.000       1.925

 ******    2 imaginary frequencies (negative Signs) ******

                      1                      2                      3
                      A                      A                      A
 Frequencies --   -519.2780              -200.4394               191.6489
 Red. masses --      1.0128                 1.1026                 1.0166
 Frc consts  --      0.1609                 0.0261                 0.0220
 IR Inten    --     22.3439                11.5746                 0.6039

                      4
                      A
 Frequencies --    191.6490
 Red. masses --      1.0166
 Frc consts  --      0.0220
 IR Inten    --      0.6039

 - Thermochemistry -
 -------------------
 Temperature   298.150 Kelvin.  Pressure   1.00000 Atm.
 Atom     1 has atomic number  1 and mass   1.00783

 Molecular mass:    21.01405 amu.
 Principal axes and moments of inertia in atomic units:
                           1         2         3
     Eigenvalues --     0.00000 143.92730 143.92730
           X            1.00000  -0.00000   0.00000
           Y            0.00000   1.00000   0.00000
           Z            0.00000   0.00000   1.00000
 This molecule is a prolate symmetric top.
 Rotational symmetry number  1.
 Rotational temperature (Kelvin)      0.60179
 Rotational constant (GHZ):          12.539256
    2 imaginary frequencies ignored.
 Zero-point vibrational energy       2292.6 (Joules/Mol)
                                    0.54795 (Kcal/Mol)
 Warning -- explicit consideration of   2 degrees of freedom as
           vibrations may cause significant error
 Vibrational temperatures:    275.74   275.74
          (Kelvin)

 Zero-point correction=                           0.000873 (Hartree/Particle)
 Thermal correction to Energy=                    0.004382
 Thermal correction to Enthalpy=                  0.005326
 Thermal correction to Gibbs Free Energy=        -0.020896
 Sum of electronic and zero-point Energies=           -100.761457
 Sum of electronic and thermal Energies=              -100.757949
 Sum of electronic and thermal Enthalpies=            -100.757005
 Sum of electronic and thermal Free Energies=         -100.783226

                     E (Thermal)             CV                S
                      KCal/Mol        Cal/Mol-Kelvin    Cal/Mol-Kelvin
 Total                    2.749              8.671             55.188
 Electronic               0.000              0.000              1.377
 Translational            0.889              2.981             35.068
 Rotational               0.592              1.987             14.319
 Vibrational              1.268              3.703              4.424
 Vibration     1          0.634              1.851              2.212
 Vibration     2          0.634              1.851              2.212

 Normal termination of Gaussian 16 at Fri Aug 22 19:55:29 2025.
