 Gaussian 16, Revision C.01,
 Gaussian 16:  ES64L-G16RevC.01  3-Jul-2019

 -----------------------------------------
 # sp b3lyp/6-311g** Force nosymm scf=(qc)
 -----------------------------------------

 -------------------
 Title Card Required
 -------------------
 Symbolic Z-matrix:
 Charge =  0 Multiplicity = 2

                          Input orientation:
 ---------------------------------------------------------------------
 Center     Atomic      Atomic             Coordinates (Angstroms)
 Number     Number       Type             X           Y           Z
 ---------------------------------------------------------------------
      1          1           0        0.000000    0.000000    0.000000
      2          1           0       -1.450000    0.000000    0.000000
      3          9           0        3.050000    0.000000    0.000000
 ---------------------------------------------------------------------

 SCF Done:  E(UB3LYP) =  -100.828685775     a.u. after   18 cycles

 Alpha  occ. eigenvalues --  -24.76675  -1.22507  -0.55697  -0.46940  -0.46847
 Alpha  occ. eigenvalues --   -0.33827
 Alpha virt. eigenvalues --   -0.08866   0.24749   0.31076   0.85751   0.90624
 Alpha virt. eigenvalues --    0.93005   1.03004   1.09031   1.19270   1.19276
 Alpha virt. eigenvalues --    1.43283   1.43289   1.86521   2.24327   2.49087

  Beta  occ. eigenvalues --  -24.73514  -1.13423  -0.43776  -0.43679  -0.33818
  Beta virt. eigenvalues --   -0.26325  -0.08855   0.24766   0.31140   0.92123
  Beta virt. eigenvalues --    0.94622   0.95209   1.06957   1.09033   1.19270
  Beta virt. eigenvalues --    1.19275   1.43282   1.43288   1.86529   2.24326

 Mulliken charges and spin densities:
               1          2
     1  H   -0.000344   0.003561
     2  H   -0.006419  -0.004471
     3  F    0.006763   1.000910
 Sum of Mulliken charges =   0.00000   1.00000

 Dipole moment (field-independent basis, Debye):
    X=              0.1056    Y=             -0.0000    Z=              0.0000  Tot=              0.1056
 Quadrupole moment (field-independent basis, Debye-Ang):
   XX=             -6.1603   YY=             -6.8670   ZZ=             -7.7307
   XY=             -0.0000   XZ=              0.0000   YZ=             -0.0037

  Exact polarizability:      22.152       0.000       2.522      -0.000      -0.002       2.052
 Approx polarizability:      40.246      -0.000       2.634       0.000      -0.003       2.054

 ******    1 imaginary frequencies (negative Signs) ******

                      1                      2                      3
                      A                      A                      A
 Frequencies --  -1222.4240                 1.8839              1256.1122
 Red. masses --      1.0078                 1.1085                 1.0114
 Frc consts  --      0.8873                 0.0000                 0.9402
 IR Inten    --      1.1080                 0.6626                 0.0241

                      4
                      A
 Frequencies --   1265.6568
 Red. masses --      1.0114
 Frc consts  --      0.9546
 IR Inten    --      0.0060

 - Thermochemistry -
 -------------------
 Temperature   298.150 Kelvin.  Pressure   1.00000 Atm.
 Atom     1 has atomic number  1 and mass   1.00783

 Molecular mass:    21.01405 amu.
 Principal axes and moments of inertia in atomic units:
                           1         2         3
     Eigenvalues --     0.00000  96.52067  96.52067
           X            1.00000  -0.00000   0.00000
           Y            0.00000   1.00000   0.00000
           Z            0.00000   0.00000   1.00000
 This molecule is a prolate symmetric top.
 Rotational symmetry number  1.
 Rotational temperature (Kelvin)      0.89736
 Rotational constant (GHZ):          18.697976
    1 imaginary frequencies ignored.
 Zero-point vibrational energy      15094.8 (Joules/Mol)
                                    3.60774 (Kcal/Mol)
 Warning -- explicit consideration of   1 degrees of freedom as
           vibrations may cause significant error
 Vibrational temperatures:      2.71  1807.27  1821.00
          (Kelvin)

 Zero-point correction=                           0.005749 (Hartree/Particle)
 Thermal correction to Energy=                    0.009076
 Thermal correction to Enthalpy=                  0.010020
 Thermal correction to Gibbs Free Energy=        -0.019135
 Sum of electronic and zero-point Energies=           -100.822936
 Sum of electronic and thermal Energies=              -100.819610
 Sum of electronic and thermal Enthalpies=            -100.818666
 Sum of electronic and thermal Free Energies=         -100.847821

                     E (Thermal)             CV                S
                      KCal/Mol        Cal/Mol-Kelvin    Cal/Mol-Kelvin
 Total                    5.695              7.292             61.362
 Electronic               0.000              0.000              1.377
 Translational            0.889              2.981             35.068
 Rotational               0.592              1.987             13.525
 Vibrational              4.214              2.324             11.392
 Vibration     1          0.592              1.987             11.328

 Normal termination of Gaussian 16 at Fri Aug 22 19:42:17 2025.
