 Gaussian 16, Revision C.01,
 Gaussian 16:  ES64L-G16RevC.01  3-Jul-2019

 -----------------------------------------
 # sp b3lyp/6-311g** Force nosymm scf=(qc)
 -----------------------------------------

 -------------------
 Title Card Required
 -------------------
 Symbolic Z-matrix:
 Charge =  0 Multiplicity = 2

                          Input orientation:
 ---------------------------------------------------------------------
 Center     Atomic      Atomic             Coordinates (Angstroms)
 Number     Number       Type             X           Y           Z
 ---------------------------------------------------------------------
      1          1           0        0.000000    0.000000    0.000000
      2          1           0       -2.350000    0.000000    0.000000
      3          9           0        1.950000    0.000000    0.000000
 ---------------------------------------------------------------------

 SCF Done:  E(UB3LYP) =  -100.795856710     a.u. after   12 cycles

 Alpha  occ. eigenvalues --  -24.67657  -1.13968  -0.46642  -0.39253  -0.39253
 Alpha  occ. eigenvalues --   -0.35415
 Alpha virt. eigenvalues --   -0.14002   0.24009   0.30456   0.90234   0.95033
 Alpha virt. eigenvalues --    0.95033   1.06125   1.22296   1.22296   1.26440
 Alpha virt. eigenvalues --    1.34423   1.34423   1.62419   2.12686   2.28172

  Beta  occ. eigenvalues --  -24.65374  -1.07604  -0.37939  -0.37007  -0.37007
  Beta virt. eigenvalues --   -0.20584  -0.10468   0.25125   0.33893   0.92257
  Beta virt. eigenvalues --    0.95562   0.95562   1.08755   1.22855   1.22855
  Beta virt. eigenvalues --    1.39818   1.39818   1.42451   1.56720   2.12897

 Mulliken charges and spin densities:
               1          2
     1  H    0.181266  -0.673497
     2  H    0.025328   0.955688
     3  F   -0.206594   0.717809
 Sum of Mulliken charges =   0.00000   1.00000

 Dipole moment (field-independent basis, Debye):
    X=             -2.2723    Y=             -0.0000    Z=              0.0000  Tot=              2.2723
 Quadrupole moment (field-independent basis, Debye-Ang):
   XX=             -9.2644   YY=             -7.5171   ZZ=             -7.5171
   XY=             -0.0000   XZ=              0.0000   YZ=             -0.0000

  Exact polarizability:      40.016      -0.000       2.067       0.000      -0.000       2.067
 Approx polarizability:      48.137      -0.000       1.962       0.000       0.000       1.962

 ******    2 imaginary frequencies (negative Signs) ******

                      1                      2                      3
                      A                      A                      A
 Frequencies --  -1341.4388              -458.1513               562.2845
 Red. masses --      1.0390                 1.0731                 1.0204
 Frc consts  --      1.1016                 0.1327                 0.1901
 IR Inten    --     90.3012                21.0357                25.6855

                      4
                      A
 Frequencies --    562.2845
 Red. masses --      1.0204
 Frc consts  --      0.1901
 IR Inten    --     25.6855

 - Thermochemistry -
 -------------------
 Temperature   298.150 Kelvin.  Pressure   1.00000 Atm.
 Atom     1 has atomic number  1 and mass   1.00783

 Molecular mass:    21.01405 amu.
 Principal axes and moments of inertia in atomic units:
                           1         2         3
     Eigenvalues --     0.00000  73.48844  73.48844
           X            1.00000  -0.00000   0.00000
           Y            0.00000   1.00000   0.00000
           Z            0.00000   0.00000   1.00000
 This molecule is a prolate symmetric top.
 Rotational symmetry number  1.
 Rotational temperature (Kelvin)      1.17861
 Rotational constant (GHZ):          24.558164
    2 imaginary frequencies ignored.
 Zero-point vibrational energy       6726.4 (Joules/Mol)
                                    1.60765 (Kcal/Mol)
 Warning -- explicit consideration of   2 degrees of freedom as
           vibrations may cause significant error
 Vibrational temperatures:    809.00   809.00
          (Kelvin)

 Zero-point correction=                           0.002562 (Hartree/Particle)
 Thermal correction to Energy=                    0.005286
 Thermal correction to Enthalpy=                  0.006231
 Thermal correction to Gibbs Free Energy=        -0.017748
 Sum of electronic and zero-point Energies=           -100.793295
 Sum of electronic and thermal Energies=              -100.790570
 Sum of electronic and thermal Enthalpies=            -100.789626
 Sum of electronic and thermal Free Energies=         -100.813605

                     E (Thermal)             CV                S
                      KCal/Mol        Cal/Mol-Kelvin    Cal/Mol-Kelvin
 Total                    3.317              7.194             50.467
 Electronic               0.000              0.000              1.377
 Translational            0.889              2.981             35.068
 Rotational               0.592              1.987             12.983
 Vibrational              1.836              2.226              1.039
 Vibration     1          0.918              1.113              0.519
 Vibration     2          0.918              1.113              0.519

 Normal termination of Gaussian 16 at Fri Aug 22 16:53:36 2025.
