 Gaussian 16, Revision C.01,
 Gaussian 16:  ES64L-G16RevC.01  3-Jul-2019

 -----------------------------------------
 # sp b3lyp/6-311g** Force nosymm scf=(qc)
 -----------------------------------------

 -------------------
 Title Card Required
 -------------------
 Symbolic Z-matrix:
 Charge =  0 Multiplicity = 2

                          Input orientation:
 ---------------------------------------------------------------------
 Center     Atomic      Atomic             Coordinates (Angstroms)
 Number     Number       Type             X           Y           Z
 ---------------------------------------------------------------------
      1          1           0        0.000000    0.000000    0.000000
      2          1           0       -0.700000    0.000000    0.000000
      3          9           0        2.100000    0.000000    0.000000
 ---------------------------------------------------------------------

 SCF Done:  E(UB3LYP) =  -100.932827365     a.u. after    6 cycles

 Alpha  occ. eigenvalues --  -24.75370  -1.21385  -0.55099  -0.45795  -0.45795
 Alpha  occ. eigenvalues --   -0.45263
 Alpha virt. eigenvalues --    0.07948   0.20112   0.47134   0.90772   0.90772
 Alpha virt. eigenvalues --    0.91117   1.07899   1.07899   1.14986   1.61341
 Alpha virt. eigenvalues --    1.84745   1.84745   1.88931   2.40346   3.55525

  Beta  occ. eigenvalues --  -24.72295  -1.12595  -0.45525  -0.42724  -0.42724
  Beta virt. eigenvalues --   -0.25837   0.08618   0.20619   0.47506   0.92182
  Beta virt. eigenvalues --    0.92182   0.99146   1.08344   1.08344   1.18795
  Beta virt. eigenvalues --    1.62282   1.84962   1.84962   1.89309   2.40856

 Mulliken charges and spin densities:
               1          2
     1  H   -0.005117  -0.018659
     2  H    0.025562   0.051490
     3  F   -0.020446   0.967169
 Sum of Mulliken charges =   0.00000   1.00000

 Dipole moment (field-independent basis, Debye):
    X=             -0.2877    Y=             -0.0000    Z=              0.0000  Tot=              0.2877
 Quadrupole moment (field-independent basis, Debye-Ang):
   XX=             -5.8409   YY=             -6.8572   ZZ=             -6.8572
   XY=              0.0000   XZ=             -0.0000   YZ=             -0.0000

  Exact polarizability:      14.747       0.000       2.037       0.000       0.000       2.037
 Approx polarizability:      15.823      -0.000       2.106      -0.000       0.000       2.106

 ******    3 imaginary frequencies (negative Signs) ******

                      1                      2                      3
                      A                      A                      A
 Frequencies --  -1282.3473             -1282.3473              -131.4474
 Red. masses --      1.0098                 1.0098                 1.1085
 Frc consts  --      0.9784                 0.9784                 0.0113
 IR Inten    --      0.3048                 0.3048                14.9001

                      4
                      A
 Frequencies --   5041.7250
 Red. masses --      1.0078
 Frc consts  --     15.0937
 IR Inten    --    139.7693

 - Thermochemistry -
 -------------------
 Temperature   298.150 Kelvin.  Pressure   1.00000 Atm.
 Atom     1 has atomic number  1 and mass   1.00783

 Molecular mass:    21.01405 amu.
 Principal axes and moments of inertia in atomic units:
                           1         2         3
     Eigenvalues --     0.00000  39.94356  39.94356
           X            1.00000  -0.00000   0.00000
           Y            0.00000   1.00000   0.00000
           Z            0.00000   0.00000   1.00000
 This molecule is a prolate symmetric top.
 Rotational symmetry number  1.
 Rotational temperature (Kelvin)      2.16841
 Rotational constant (GHZ):          45.182279
    3 imaginary frequencies ignored.
 Zero-point vibrational energy      30156.2 (Joules/Mol)
                                    7.20751 (Kcal/Mol)
 Vibrational temperatures:   7253.92
          (Kelvin)

 Zero-point correction=                           0.011486 (Hartree/Particle)
 Thermal correction to Energy=                    0.013846
 Thermal correction to Enthalpy=                  0.014791
 Thermal correction to Gibbs Free Energy=        -0.008119
 Sum of electronic and zero-point Energies=           -100.921341
 Sum of electronic and thermal Energies=              -100.918981
 Sum of electronic and thermal Enthalpies=            -100.918037
 Sum of electronic and thermal Free Energies=         -100.940946

                     E (Thermal)             CV                S
                      KCal/Mol        Cal/Mol-Kelvin    Cal/Mol-Kelvin
 Total                    8.689              4.968             48.217
 Electronic               0.000              0.000              1.377
 Translational            0.889              2.981             35.068
 Rotational               0.592              1.987             11.771
 Vibrational              7.208              0.000              0.000

 Normal termination of Gaussian 16 at Fri Aug 22 17:02:40 2025.
