 Gaussian 16, Revision C.01,
 Gaussian 16:  ES64L-G16RevC.01  3-Jul-2019

 -----------------------------------------
 # sp b3lyp/6-311g** Force nosymm scf=(qc)
 -----------------------------------------

 -------------------
 Title Card Required
 -------------------
 Symbolic Z-matrix:
 Charge =  0 Multiplicity = 2

                          Input orientation:
 ---------------------------------------------------------------------
 Center     Atomic      Atomic             Coordinates (Angstroms)
 Number     Number       Type             X           Y           Z
 ---------------------------------------------------------------------
      1          1           0        0.000000    0.000000    0.000000
      2          1           0       -1.850000    0.000000    0.000000
      3          9           0        1.000000    0.000000    0.000000
 ---------------------------------------------------------------------

 SCF Done:  E(UB3LYP) =  -100.967182607     a.u. after    6 cycles

 Alpha  occ. eigenvalues --  -24.63685  -1.15720  -0.51834  -0.38404  -0.38404
 Alpha  occ. eigenvalues --   -0.36494
 Alpha virt. eigenvalues --    0.04826   0.23330   0.33638   0.94376   0.94376
 Alpha virt. eigenvalues --    0.98735   1.13380   1.20314   1.20314   1.36975
 Alpha virt. eigenvalues --    1.36975   1.51514   1.87695   2.23440   2.34713

  Beta  occ. eigenvalues --  -24.63567  -1.15426  -0.51136  -0.38301  -0.38301
  Beta virt. eigenvalues --   -0.13511   0.07278   0.31491   0.35453   0.94401
  Beta virt. eigenvalues --    0.94401   0.99189   1.22832   1.34203   1.34203
  Beta virt. eigenvalues --    1.41701   1.41701   1.57696   1.93465   2.34550

 Mulliken charges and spin densities:
               1          2
     1  H    0.301343   0.004248
     2  H    0.022117   0.964002
     3  F   -0.323459   0.031751
 Sum of Mulliken charges =   0.00000   1.00000

 Dipole moment (field-independent basis, Debye):
    X=             -2.2530    Y=             -0.0000    Z=             -0.0000  Tot=              2.2530
 Quadrupole moment (field-independent basis, Debye-Ang):
   XX=             -7.7194   YY=             -6.9017   ZZ=             -6.9017
   XY=             -0.0000   XZ=             -0.0000   YZ=              0.0000

  Exact polarizability:      11.345      -0.000       2.473      -0.000       0.000       2.473
 Approx polarizability:      12.388       0.000       2.457      -0.000       0.000       2.457

                      1                      2                      3
                      A                      A                      A
 Frequencies --    149.8804               922.7717               922.7717
 Red. masses --      1.0511                 1.0268                 1.0268
 Frc consts  --      0.0139                 0.5151                 0.5151
 IR Inten    --      3.4691               125.6115               125.6115

                      4
                      A
 Frequencies --   2943.4349
 Red. masses --      1.0605
 Frc consts  --      5.4133
 IR Inten    --    207.3775

 - Thermochemistry -
 -------------------
 Temperature   298.150 Kelvin.  Pressure   1.00000 Atm.
 Atom     1 has atomic number  1 and mass   1.00783

 Molecular mass:    21.01405 amu.
 Principal axes and moments of inertia in atomic units:
                           1         2         3
     Eigenvalues --     0.00000  30.27349  30.27349
           X            1.00000  -0.00000   0.00000
           Y            0.00000   1.00000   0.00000
           Z            0.00000   0.00000   1.00000
 This molecule is a prolate symmetric top.
 Rotational symmetry number  1.
 Rotational temperature (Kelvin)      2.86105
 Rotational constant (GHZ):          59.614575
 Zero-point vibrational energy      29540.9 (Joules/Mol)
                                    7.06045 (Kcal/Mol)
 Warning -- explicit consideration of   1 degrees of freedom as
           vibrations may cause significant error
 Vibrational temperatures:    215.64  1327.66  1327.66  4234.95
          (Kelvin)

 Zero-point correction=                           0.011252 (Hartree/Particle)
 Thermal correction to Energy=                    0.014355
 Thermal correction to Enthalpy=                  0.015299
 Thermal correction to Gibbs Free Energy=        -0.008740
 Sum of electronic and zero-point Energies=           -100.955931
 Sum of electronic and thermal Energies=              -100.952828
 Sum of electronic and thermal Enthalpies=            -100.951884
 Sum of electronic and thermal Free Energies=         -100.975923

                     E (Thermal)             CV                S
                      KCal/Mol        Cal/Mol-Kelvin    Cal/Mol-Kelvin
 Total                    9.008              7.810             50.595
 Electronic               0.000              0.000              1.377
 Translational            0.889              2.981             35.068
 Rotational               0.592              1.987             11.221
 Vibrational              7.526              2.842              2.929
 Vibration     1          0.618              1.903              2.674

 Normal termination of Gaussian 16 at Fri Aug 22 16:00:27 2025.
