 Gaussian 16, Revision C.01,
 Gaussian 16:  ES64L-G16RevC.01  3-Jul-2019

 -----------------------------------------
 # sp b3lyp/6-311g** Force nosymm scf=(qc)
 -----------------------------------------

 -------------------
 Title Card Required
 -------------------
 Symbolic Z-matrix:
 Charge =  0 Multiplicity = 2

                          Input orientation:
 ---------------------------------------------------------------------
 Center     Atomic      Atomic             Coordinates (Angstroms)
 Number     Number       Type             X           Y           Z
 ---------------------------------------------------------------------
      1          1           0        0.000000    0.000000    0.000000
      2          1           0       -2.700000    0.000000    0.000000
      3          9           0        0.900000    0.000000    0.000000
 ---------------------------------------------------------------------

 SCF Done:  E(UB3LYP) =  -100.971686981     a.u. after    5 cycles

 Alpha  occ. eigenvalues --  -24.63936  -1.18993  -0.53832  -0.39601  -0.39601
 Alpha  occ. eigenvalues --   -0.34499
 Alpha virt. eigenvalues --    0.03933   0.25313   0.39386   0.94385   0.94385
 Alpha virt. eigenvalues --    0.97730   1.20838   1.23045   1.23045   1.35844
 Alpha virt. eigenvalues --    1.37322   1.37322   2.01338   2.14275   2.37451

  Beta  occ. eigenvalues --  -24.63927  -1.18968  -0.53795  -0.39593  -0.39593
  Beta virt. eigenvalues --   -0.08345   0.05379   0.37467   0.40064   0.94387
  Beta virt. eigenvalues --    0.94387   0.97753   1.29879   1.37312   1.37312
  Beta virt. eigenvalues --    1.46590   1.46590   1.51076   2.01451   2.36960

 Mulliken charges and spin densities:
               1          2
     1  H    0.292678   0.002459
     2  H    0.004139   0.994212
     3  F   -0.296817   0.003329
 Sum of Mulliken charges =   0.00000   1.00000

 Dipole moment (field-independent basis, Debye):
    X=             -1.9396    Y=              0.0000    Z=             -0.0000  Tot=              1.9396
 Quadrupole moment (field-independent basis, Debye-Ang):
   XX=             -7.7504   YY=             -6.8653   ZZ=             -6.8653
   XY=             -0.0000   XZ=             -0.0000   YZ=              0.0000

  Exact polarizability:       6.943       0.000       2.445      -0.000       0.000       2.445
 Approx polarizability:       7.675       0.000       2.426      -0.000       0.000       2.426

 ******    3 imaginary frequencies (negative Signs) ******

                      1                      2                      3
                      A                      A                      A
 Frequencies --   -624.3507              -624.3507               -56.8207
 Red. masses --      1.0346                 1.0346                 1.0532
 Frc consts  --      0.2376                 0.2376                 0.0020
 IR Inten    --    171.7310               171.7310                 0.3886

                      4
                      A
 Frequencies --   4427.9975
 Red. masses --      1.0584
 Frc consts  --     12.2267
 IR Inten    --    118.2723

 - Thermochemistry -
 -------------------
 Temperature   298.150 Kelvin.  Pressure   1.00000 Atm.
 Atom     1 has atomic number  1 and mass   1.00783

 Molecular mass:    21.01405 amu.
 Principal axes and moments of inertia in atomic units:
                           1         2         3
     Eigenvalues --     0.00000  46.06306  46.06306
           X            1.00000  -0.00000   0.00000
           Y            0.00000   1.00000   0.00000
           Z            0.00000   0.00000   1.00000
 This molecule is a prolate symmetric top.
 Rotational symmetry number  1.
 Rotational temperature (Kelvin)      1.88033
 Rotational constant (GHZ):          39.179796
    3 imaginary frequencies ignored.
 Zero-point vibrational energy      26485.3 (Joules/Mol)
                                    6.33014 (Kcal/Mol)
 Vibrational temperatures:   6370.90
          (Kelvin)

 Zero-point correction=                           0.010088 (Hartree/Particle)
 Thermal correction to Energy=                    0.012448
 Thermal correction to Enthalpy=                  0.013392
 Thermal correction to Gibbs Free Energy=        -0.009652
 Sum of electronic and zero-point Energies=           -100.961599
 Sum of electronic and thermal Energies=              -100.959239
 Sum of electronic and thermal Enthalpies=            -100.958295
 Sum of electronic and thermal Free Energies=         -100.981339

                     E (Thermal)             CV                S
                      KCal/Mol        Cal/Mol-Kelvin    Cal/Mol-Kelvin
 Total                    7.811              4.968             48.500
 Electronic               0.000              0.000              1.377
 Translational            0.889              2.981             35.068
 Rotational               0.592              1.987             12.055
 Vibrational              6.330              0.000              0.000

 Normal termination of Gaussian 16 at Fri Aug 22 15:56:17 2025.
