 Gaussian 16, Revision C.01,
 Gaussian 16:  ES64L-G16RevC.01  3-Jul-2019

 -----------------------------------------
 # sp b3lyp/6-311g** Force nosymm scf=(qc)
 -----------------------------------------

 -------------------
 Title Card Required
 -------------------
 Symbolic Z-matrix:
 Charge =  0 Multiplicity = 2

                          Input orientation:
 ---------------------------------------------------------------------
 Center     Atomic      Atomic             Coordinates (Angstroms)
 Number     Number       Type             X           Y           Z
 ---------------------------------------------------------------------
      1          1           0        0.000000    0.000000    0.000000
      2          1           0       -3.150000    0.000000    0.000000
      3          9           0        0.750000    0.000000    0.000000
 ---------------------------------------------------------------------

 SCF Done:  E(UB3LYP) =  -100.922006829     a.u. after    6 cycles

 Alpha  occ. eigenvalues --  -24.63444  -1.25464  -0.57376  -0.41182  -0.41182
 Alpha  occ. eigenvalues --   -0.33757
 Alpha virt. eigenvalues --    0.06017   0.25266   0.49109   0.93933   0.93933
 Alpha virt. eigenvalues --    0.96518   1.22969   1.23764   1.23764   1.32552
 Alpha virt. eigenvalues --    1.41719   1.41719   2.00640   2.14818   2.67712

  Beta  occ. eigenvalues --  -24.63442  -1.25459  -0.57372  -0.41181  -0.41181
  Beta virt. eigenvalues --   -0.05907   0.06898   0.39330   0.49207   0.93933
  Beta virt. eigenvalues --    0.93933   0.96505   1.30750   1.41720   1.41720
  Beta virt. eigenvalues --    1.50933   1.50933   1.51175   2.00682   2.44522

 Mulliken charges and spin densities:
               1          2
     1  H    0.266838   0.001084
     2  H    0.001513   0.997988
     3  F   -0.268351   0.000927
 Sum of Mulliken charges =   0.00000   1.00000

 Dipole moment (field-independent basis, Debye):
    X=             -1.6791    Y=             -0.0000    Z=             -0.0000  Tot=              1.6791
 Quadrupole moment (field-independent basis, Debye-Ang):
   XX=             -7.3924   YY=             -6.7163   ZZ=             -6.7163
   XY=             -0.0000   XZ=             -0.0000   YZ=             -0.0000

  Exact polarizability:       4.713      -0.000       2.453      -0.000       0.000       2.453
 Approx polarizability:       5.103       0.000       2.435       0.000       0.000       2.435

 ******    3 imaginary frequencies (negative Signs) ******

                      1                      2                      3
                      A                      A                      A
 Frequencies --  -2699.3769             -2699.3769               -42.2329
 Red. masses --      1.0396                 1.0396                 1.0532
 Frc consts  --      4.4632                 4.4632                 0.0011
 IR Inten    --    201.4696               201.4696                 0.0790

                      4
                      A
 Frequencies --   7586.5623
 Red. masses --      1.0583
 Frc consts  --     35.8885
 IR Inten    --    110.4424

 - Thermochemistry -
 -------------------
 Temperature   298.150 Kelvin.  Pressure   1.00000 Atm.
 Atom     1 has atomic number  1 and mass   1.00783

 Molecular mass:    21.01405 amu.
 Principal axes and moments of inertia in atomic units:
                           1         2         3
     Eigenvalues --     0.00000  53.03317  53.03317
           X            1.00000  -0.00000   0.00000
           Y            0.00000   1.00000   0.00000
           Z            0.00000   0.00000   1.00000
 This molecule is a prolate symmetric top.
 Rotational symmetry number  1.
 Rotational temperature (Kelvin)      1.63320
 Rotational constant (GHZ):          34.030423
    3 imaginary frequencies ignored.
 Zero-point vibrational energy      45377.7 (Joules/Mol)
                                   10.84554 (Kcal/Mol)
 Vibrational temperatures:  10915.37
          (Kelvin)

 Zero-point correction=                           0.017283 (Hartree/Particle)
 Thermal correction to Energy=                    0.019644
 Thermal correction to Enthalpy=                  0.020588
 Thermal correction to Gibbs Free Energy=        -0.002589
 Sum of electronic and zero-point Energies=           -100.904723
 Sum of electronic and thermal Energies=              -100.902363
 Sum of electronic and thermal Enthalpies=            -100.901419
 Sum of electronic and thermal Free Energies=         -100.924596

                     E (Thermal)             CV                S
                      KCal/Mol        Cal/Mol-Kelvin    Cal/Mol-Kelvin
 Total                   12.327              4.968             48.780
 Electronic               0.000              0.000              1.377
 Translational            0.889              2.981             35.068
 Rotational               0.592              1.987             12.335
 Vibrational             10.846              0.000              0.000

 Normal termination of Gaussian 16 at Fri Aug 22 15:49:29 2025.
