 Gaussian 16, Revision C.01,
 Gaussian 16:  ES64L-G16RevC.01  3-Jul-2019

 -----------------------------------------
 # sp b3lyp/6-311g** Force nosymm scf=(qc)
 -----------------------------------------

 -------------------
 Title Card Required
 -------------------
 Symbolic Z-matrix:
 Charge =  0 Multiplicity = 2

                          Input orientation:
 ---------------------------------------------------------------------
 Center     Atomic      Atomic             Coordinates (Angstroms)
 Number     Number       Type             X           Y           Z
 ---------------------------------------------------------------------
      1          1           0        0.000000    0.000000    0.000000
      2          1           0       -3.400000    0.000000    0.000000
      3          9           0        3.100000    0.000000    0.000000
 ---------------------------------------------------------------------

 SCF Done:  E(UB3LYP) =  -100.760575120     a.u. after   22 cycles

 Alpha  occ. eigenvalues --  -24.74425  -1.20460  -0.53545  -0.44959  -0.44959
 Alpha  occ. eigenvalues --   -0.32515
 Alpha virt. eigenvalues --   -0.07994   0.24187   0.36131   0.89045   0.92071
 Alpha virt. eigenvalues --    0.92071   1.03363   1.24995   1.24995   1.25221
 Alpha virt. eigenvalues --    1.44057   1.44057   1.44292   2.15007   2.40300

  Beta  occ. eigenvalues --  -24.71374  -1.11711  -0.41904  -0.41904  -0.33506
  Beta virt. eigenvalues --   -0.24966  -0.06724   0.24068   0.37730   0.93540
  Beta virt. eigenvalues --    0.93540   0.97861   1.07177   1.23851   1.23851
  Beta virt. eigenvalues --    1.24189   1.45622   1.45878   1.45878   2.15316

 Mulliken charges and spin densities:
               1          2
     1  H    0.029717  -0.964191
     2  H    0.000494   0.997341
     3  F   -0.030212   0.966850
 Sum of Mulliken charges =  -0.00000   1.00000

 Dipole moment (field-independent basis, Debye):
    X=             -0.4893    Y=             -0.0000    Z=              0.0000  Tot=              0.4893
 Quadrupole moment (field-independent basis, Debye-Ang):
   XX=             -8.0895   YY=             -7.6151   ZZ=             -7.6151
   XY=             -0.0000   XZ=              0.0000   YZ=              0.0000

  Exact polarizability:      31.489      -0.000       2.027       0.000       0.000       2.027
 Approx polarizability:      30.230      -0.000       1.928       0.000      -0.000       1.928

 ******    2 imaginary frequencies (negative Signs) ******

                      1                      2                      3
                      A                      A                      A
 Frequencies --   -351.4299              -128.2538               123.3531
 Red. masses --      1.0400                 1.0720                 1.0191
 Frc consts  --      0.0757                 0.0104                 0.0091
 IR Inten    --     31.9107                 1.2714                 0.8135

                      4
                      A
 Frequencies --    123.3531
 Red. masses --      1.0191
 Frc consts  --      0.0091
 IR Inten    --      0.8135

 - Thermochemistry -
 -------------------
 Temperature   298.150 Kelvin.  Pressure   1.00000 Atm.
 Atom     1 has atomic number  1 and mass   1.00783

 Molecular mass:    21.01405 amu.
 Principal axes and moments of inertia in atomic units:
                           1         2         3
     Eigenvalues --     0.00000 170.73713 170.73713
           X            1.00000  -0.00000   0.00000
           Y            0.00000   1.00000   0.00000
           Z            0.00000   0.00000   1.00000
 This molecule is a prolate symmetric top.
 Rotational symmetry number  1.
 Rotational temperature (Kelvin)      0.50729
 Rotational constant (GHZ):          10.570291
    2 imaginary frequencies ignored.
 Zero-point vibrational energy       1475.6 (Joules/Mol)
                                    0.35268 (Kcal/Mol)
 Warning -- explicit consideration of   2 degrees of freedom as
           vibrations may cause significant error
 Vibrational temperatures:    177.48   177.48
          (Kelvin)

 Zero-point correction=                           0.000562 (Hartree/Particle)
 Thermal correction to Energy=                    0.004304
 Thermal correction to Enthalpy=                  0.005248
 Thermal correction to Gibbs Free Energy=        -0.021928
 Sum of electronic and zero-point Energies=           -100.760013
 Sum of electronic and thermal Energies=              -100.756271
 Sum of electronic and thermal Enthalpies=            -100.755327
 Sum of electronic and thermal Free Energies=         -100.782503

                     E (Thermal)             CV                S
                      KCal/Mol        Cal/Mol-Kelvin    Cal/Mol-Kelvin
 Total                    2.701              8.827             57.198
 Electronic               0.000              0.000              1.377
 Translational            0.889              2.981             35.068
 Rotational               0.592              1.987             14.658
 Vibrational              1.220              3.859              6.094
 Vibration     1          0.610              1.930              3.047
 Vibration     2          0.610              1.930              3.047

 Normal termination of Gaussian 16 at Fri Aug 22 19:56:13 2025.
