 Gaussian 16, Revision C.01,
 Gaussian 16:  ES64L-G16RevC.01  3-Jul-2019

 -----------------------------------------
 # sp b3lyp/6-311g** Force nosymm scf=(qc)
 -----------------------------------------

 -------------------
 Title Card Required
 -------------------
 Symbolic Z-matrix:
 Charge =  0 Multiplicity = 2

                          Input orientation:
 ---------------------------------------------------------------------
 Center     Atomic      Atomic             Coordinates (Angstroms)
 Number     Number       Type             X           Y           Z
 ---------------------------------------------------------------------
      1          1           0        0.000000    0.000000    0.000000
      2          1           0       -2.050000    0.000000    0.000000
      3          9           0        0.500000    0.000000    0.000000
 ---------------------------------------------------------------------

 SCF Done:  E(UB3LYP) =  -100.268267716     a.u. after    6 cycles

 Alpha  occ. eigenvalues --  -24.63010  -1.42349  -0.63566  -0.44308  -0.44308
 Alpha  occ. eigenvalues --   -0.34817
 Alpha virt. eigenvalues --    0.11427   0.24480   0.57994   0.89539   0.90165
 Alpha virt. eigenvalues --    0.90165   1.22692   1.22692   1.22719   1.57720
 Alpha virt. eigenvalues --    1.58552   1.58552   2.02604   2.21908   3.76661

  Beta  occ. eigenvalues --  -24.62989  -1.42283  -0.63509  -0.44299  -0.44299
  Beta virt. eigenvalues --   -0.09235   0.12749   0.35886   0.59349   0.89660
  Beta virt. eigenvalues --    0.90145   0.90145   1.32747   1.43488   1.43488
  Beta virt. eigenvalues --    1.58549   1.58549   1.65672   2.07770   2.46623

 Mulliken charges and spin densities:
               1          2
     1  H    0.101085   0.009914
     2  H    0.008683   0.989189
     3  F   -0.109768   0.000896
 Sum of Mulliken charges =   0.00000   1.00000

 Dipole moment (field-independent basis, Debye):
    X=             -1.3554    Y=             -0.0000    Z=              0.0000  Tot=              1.3554
 Quadrupole moment (field-independent basis, Debye-Ang):
   XX=             -6.4548   YY=             -6.4137   ZZ=             -6.4137
   XY=              0.0000   XZ=              0.0000   YZ=             -0.0000

  Exact polarizability:       5.103      -0.000       2.447       0.000       0.000       2.447
 Approx polarizability:       4.908      -0.000       2.438      -0.000       0.000       2.438

 ******    2 imaginary frequencies (negative Signs) ******

                      1                      2                      3
                      A                      A                      A
 Frequencies --  -9493.6249             -9493.6249               373.5769
 Red. masses --      1.0393                 1.0393                 1.0533
 Frc consts  --     55.1882                55.1882                 0.0866
 IR Inten    --    244.4426               244.4426                 0.0014

                      4
                      A
 Frequencies --  19158.1475
 Red. masses --      1.0583
 Frc consts  --    228.8558
 IR Inten    --     86.6940

 - Thermochemistry -
 -------------------
 Temperature   298.150 Kelvin.  Pressure   1.00000 Atm.
 Atom     1 has atomic number  1 and mass   1.00783

 Molecular mass:    21.01405 amu.
 Principal axes and moments of inertia in atomic units:
                           1         2         3
     Eigenvalues --     0.00000  22.69663  22.69663
           X            1.00000  -0.00000   0.00000
           Y            0.00000   1.00000   0.00000
           Z            0.00000   0.00000   1.00000
 This molecule is a prolate symmetric top.
 Rotational symmetry number  1.
 Rotational temperature (Kelvin)      3.81616
 Rotational constant (GHZ):          79.515825
    2 imaginary frequencies ignored.
 Zero-point vibrational energy     116825.7 (Joules/Mol)
                                   27.92200 (Kcal/Mol)
 Warning -- explicit consideration of   1 degrees of freedom as
           vibrations may cause significant error
 Vibrational temperatures:    537.49 27564.30
          (Kelvin)

 Zero-point correction=                           0.044497 (Hartree/Particle)
 Thermal correction to Energy=                    0.047193
 Thermal correction to Enthalpy=                  0.048137
 Thermal correction to Gibbs Free Energy=         0.025255
 Sum of electronic and zero-point Energies=           -100.223771
 Sum of electronic and thermal Energies=              -100.221075
 Sum of electronic and thermal Enthalpies=            -100.220131
 Sum of electronic and thermal Free Energies=         -100.243012

                     E (Thermal)             CV                S
                      KCal/Mol        Cal/Mol-Kelvin    Cal/Mol-Kelvin
 Total                   29.614              6.494             48.159
 Electronic               0.000              0.000              1.377
 Translational            0.889              2.981             35.068
 Rotational               0.592              1.987             10.648
 Vibrational             28.133              1.526              1.065
 Vibration     1          0.745              1.526              1.065

 Normal termination of Gaussian 16 at Fri Aug 22 15:36:57 2025.
