 Gaussian 16, Revision C.01,
 Gaussian 16:  ES64L-G16RevC.01  3-Jul-2019

 -----------------------------------------
 # sp b3lyp/6-311g** Force nosymm scf=(qc)
 -----------------------------------------

 -------------------
 Title Card Required
 -------------------
 Symbolic Z-matrix:
 Charge =  0 Multiplicity = 2

                          Input orientation:
 ---------------------------------------------------------------------
 Center     Atomic      Atomic             Coordinates (Angstroms)
 Number     Number       Type             X           Y           Z
 ---------------------------------------------------------------------
      1          1           0        0.000000    0.000000    0.000000
      2          1           0       -2.550000    0.000000    0.000000
      3          9           0        1.700000    0.000000    0.000000
 ---------------------------------------------------------------------

 SCF Done:  E(UB3LYP) =  -100.816177034     a.u. after   11 cycles

 Alpha  occ. eigenvalues --  -24.63564  -1.08125  -0.40715  -0.35654  -0.35433
 Alpha  occ. eigenvalues --   -0.35433
 Alpha virt. eigenvalues --   -0.18263   0.21947   0.26350   0.95234   0.95234
 Alpha virt. eigenvalues --    0.97553   1.08108   1.21615   1.21615   1.23912
 Alpha virt. eigenvalues --    1.27424   1.27424   1.70860   2.12637   2.15954

  Beta  occ. eigenvalues --  -24.63737  -1.08596  -0.40676  -0.35601  -0.35601
  Beta virt. eigenvalues --   -0.18907  -0.08845   0.25239   0.35354   0.95334
  Beta virt. eigenvalues --    0.95334   0.97818   1.08246   1.28790   1.28790
  Beta virt. eigenvalues --    1.42086   1.42086   1.43120   1.71770   2.17848

 Mulliken charges and spin densities:
               1          2
     1  H    0.309297   0.081127
     2  H    0.024243   0.974162
     3  F   -0.333540  -0.055290
 Sum of Mulliken charges =  -0.00000   1.00000

 Dipole moment (field-independent basis, Debye):
    X=             -3.0877    Y=              0.0000    Z=             -0.0000  Tot=              3.0877
 Quadrupole moment (field-independent basis, Debye-Ang):
   XX=            -10.0089   YY=             -7.4200   ZZ=             -7.4200
   XY=              0.0000   XZ=             -0.0000   YZ=             -0.0000

  Exact polarizability:      29.615       0.000       2.110      -0.000      -0.000       2.110
 Approx polarizability:      57.196       0.000       2.026      -0.000      -0.000       2.026

 ******    2 imaginary frequencies (negative Signs) ******

                      1                      2                      3
                      A                      A                      A
 Frequencies --  -1243.8452              -219.2755               850.3656
 Red. masses --      1.0492                 1.0624                 1.0235
 Frc consts  --      0.9564                 0.0301                 0.4361
 IR Inten    --    183.1482                 6.8862                82.0417

                      4
                      A
 Frequencies --    850.3656
 Red. masses --      1.0235
 Frc consts  --      0.4361
 IR Inten    --     82.0417

 - Thermochemistry -
 -------------------
 Temperature   298.150 Kelvin.  Pressure   1.00000 Atm.
 Atom     1 has atomic number  1 and mass   1.00783

 Molecular mass:    21.01405 amu.
 Principal axes and moments of inertia in atomic units:
                           1         2         3
     Eigenvalues --     0.00000  69.29751  69.29751
           X            1.00000  -0.00000   0.00000
           Y            0.00000   1.00000   0.00000
           Z            0.00000   0.00000   1.00000
 This molecule is a prolate symmetric top.
 Rotational symmetry number  1.
 Rotational temperature (Kelvin)      1.24989
 Rotational constant (GHZ):          26.043377
    2 imaginary frequencies ignored.
 Zero-point vibrational energy      10172.6 (Joules/Mol)
                                    2.43132 (Kcal/Mol)
 Vibrational temperatures:   1223.49  1223.49
          (Kelvin)

 Zero-point correction=                           0.003875 (Hartree/Particle)
 Thermal correction to Energy=                    0.006365
 Thermal correction to Enthalpy=                  0.007309
 Thermal correction to Gibbs Free Energy=        -0.016282
 Sum of electronic and zero-point Energies=           -100.812302
 Sum of electronic and thermal Energies=              -100.809812
 Sum of electronic and thermal Enthalpies=            -100.808868
 Sum of electronic and thermal Free Energies=         -100.832459

                     E (Thermal)             CV                S
                      KCal/Mol        Cal/Mol-Kelvin    Cal/Mol-Kelvin
 Total                    3.994              6.111             49.652
 Electronic               0.000              0.000              1.377
 Translational            0.889              2.981             35.068
 Rotational               0.592              1.987             12.866
 Vibrational              2.513              1.143              0.340

 Normal termination of Gaussian 16 at Fri Aug 22 16:37:57 2025.
