 Gaussian 16, Revision C.01,
 Gaussian 16:  ES64L-G16RevC.01  3-Jul-2019

 -----------------------------------------
 # sp b3lyp/6-311g** Force nosymm scf=(qc)
 -----------------------------------------

 -------------------
 Title Card Required
 -------------------
 Symbolic Z-matrix:
 Charge =  0 Multiplicity = 2

                          Input orientation:
 ---------------------------------------------------------------------
 Center     Atomic      Atomic             Coordinates (Angstroms)
 Number     Number       Type             X           Y           Z
 ---------------------------------------------------------------------
      1          1           0        0.000000    0.000000    0.000000
      2          1           0       -1.500000    0.000000    0.000000
      3          9           0        1.100000    0.000000    0.000000
 ---------------------------------------------------------------------

 SCF Done:  E(UB3LYP) =  -100.952153584     a.u. after    7 cycles

 Alpha  occ. eigenvalues --  -24.63478  -1.13528  -0.51104  -0.37509  -0.37509
 Alpha  occ. eigenvalues --   -0.37409
 Alpha virt. eigenvalues --    0.04525   0.20852   0.31463   0.93809   0.93809
 Alpha virt. eigenvalues --    1.00012   1.13173   1.15332   1.15332   1.41235
 Alpha virt. eigenvalues --    1.41235   1.53217   1.94906   2.32647   2.37517

  Beta  occ. eigenvalues --  -24.63084  -1.12541  -0.48608  -0.37155  -0.37155
  Beta virt. eigenvalues --   -0.17304   0.07471   0.25728   0.34923   0.94005
  Beta virt. eigenvalues --    0.94005   1.00894   1.21461   1.25540   1.25540
  Beta virt. eigenvalues --    1.45983   1.45983   1.55783   2.05523   2.33179

 Mulliken charges and spin densities:
               1          2
     1  H    0.303764  -0.016822
     2  H    0.043229   0.906068
     3  F   -0.346993   0.110753
 Sum of Mulliken charges =   0.00000   1.00000

 Dipole moment (field-independent basis, Debye):
    X=             -2.5089    Y=              0.0000    Z=              0.0000  Tot=              2.5089
 Quadrupole moment (field-independent basis, Debye-Ang):
   XX=             -7.8179   YY=             -6.9147   ZZ=             -6.9147
   XY=              0.0000   XZ=             -0.0000   YZ=             -0.0000

  Exact polarizability:      15.993       0.000       2.484      -0.000       0.000       2.484
 Approx polarizability:      18.619       0.000       2.469       0.000       0.000       2.469

 ******    1 imaginary frequencies (negative Signs) ******

                      1                      2                      3
                      A                      A                      A
 Frequencies --   -619.7029              1076.1630              1076.1630
 Red. masses --      1.0228                 1.0221                 1.0221
 Frc consts  --      0.2314                 0.6974                 0.6974
 IR Inten    --     14.6712                84.8145                84.8145

                      4
                      A
 Frequencies --   1480.8990
 Red. masses --      1.0910
 Frc consts  --      1.4097
 IR Inten    --    152.0378

 - Thermochemistry -
 -------------------
 Temperature   298.150 Kelvin.  Pressure   1.00000 Atm.
 Atom     1 has atomic number  1 and mass   1.00783

 Molecular mass:    21.01405 amu.
 Principal axes and moments of inertia in atomic units:
                           1         2         3
     Eigenvalues --     0.00000  26.32111  26.32111
           X            1.00000  -0.00000   0.00000
           Y            0.00000   1.00000   0.00000
           Z            0.00000   0.00000   1.00000
 This molecule is a prolate symmetric top.
 Rotational symmetry number  1.
 Rotational temperature (Kelvin)      3.29066
 Rotational constant (GHZ):          68.566305
    1 imaginary frequencies ignored.
 Zero-point vibrational energy      21731.5 (Joules/Mol)
                                    5.19396 (Kcal/Mol)
 Vibrational temperatures:   1548.36  1548.36  2130.68
          (Kelvin)

 Zero-point correction=                           0.008277 (Hartree/Particle)
 Thermal correction to Energy=                    0.010698
 Thermal correction to Enthalpy=                  0.011642
 Thermal correction to Gibbs Free Energy=        -0.010945
 Sum of electronic and zero-point Energies=           -100.943876
 Sum of electronic and thermal Energies=              -100.941456
 Sum of electronic and thermal Enthalpies=            -100.940512
 Sum of electronic and thermal Free Energies=         -100.963099

                     E (Thermal)             CV                S
                      KCal/Mol        Cal/Mol-Kelvin    Cal/Mol-Kelvin
 Total                    6.713              5.650             47.538
 Electronic               0.000              0.000              1.377
 Translational            0.889              2.981             35.068
 Rotational               0.592              1.987             10.943
 Vibrational              5.232              0.682              0.150

 Normal termination of Gaussian 16 at Fri Aug 22 16:04:59 2025.
