 Gaussian 16, Revision C.01,
 Gaussian 16:  ES64L-G16RevC.01  3-Jul-2019

 -----------------------------------------
 # sp b3lyp/6-311g** Force nosymm scf=(qc)
 -----------------------------------------

 -------------------
 Title Card Required
 -------------------
 Symbolic Z-matrix:
 Charge =  0 Multiplicity = 2

                          Input orientation:
 ---------------------------------------------------------------------
 Center     Atomic      Atomic             Coordinates (Angstroms)
 Number     Number       Type             X           Y           Z
 ---------------------------------------------------------------------
      1          1           0        0.000000    0.000000    0.000000
      2          1           0       -2.500000    0.000000    0.000000
      3          9           0        3.350000    0.000000    0.000000
 ---------------------------------------------------------------------

 SCF Done:  E(UB3LYP) =  -100.763301254     a.u. after   31 cycles

 Alpha  occ. eigenvalues --  -24.75167  -1.21145  -0.54288  -0.45582  -0.45582
 Alpha  occ. eigenvalues --   -0.32766
 Alpha virt. eigenvalues --   -0.09749   0.25606   0.34065   0.88138   0.91615
 Alpha virt. eigenvalues --    0.91615   1.02242   1.24886   1.24886   1.26508
 Alpha virt. eigenvalues --    1.40990   1.40990   1.42619   2.15658   2.36808

  Beta  occ. eigenvalues --  -24.72069  -1.12247  -0.42477  -0.42477  -0.33162
  Beta virt. eigenvalues --   -0.25383  -0.09100   0.25455   0.34972   0.93099
  Beta virt. eigenvalues --    0.93099   0.97212   1.06240   1.24406   1.24406
  Beta virt. eigenvalues --    1.25916   1.42012   1.42012   1.43641   2.16370

 Mulliken charges and spin densities:
               1          2
     1  H    0.012845  -0.952340
     2  H    0.003065   0.970116
     3  F   -0.015910   0.982224
 Sum of Mulliken charges =  -0.00000   1.00000

 Dipole moment (field-independent basis, Debye):
    X=             -0.3101    Y=              0.0000    Z=             -0.0000  Tot=              0.3101
 Quadrupole moment (field-independent basis, Debye-Ang):
   XX=             -7.3223   YY=             -7.6629   ZZ=             -7.6629
   XY=             -0.0000   XZ=              0.0000   YZ=              0.0000

  Exact polarizability:      37.540      -0.000       2.020       0.000      -0.000       2.020
 Approx polarizability:      29.395      -0.000       1.927       0.000      -0.000       1.927

 ******    2 imaginary frequencies (negative Signs) ******

                      1                      2                      3
                      A                      A                      A
 Frequencies --   -677.0524              -165.7323               248.9365
 Red. masses --      1.0083                 1.1080                 1.0148
 Frc consts  --      0.2723                 0.0179                 0.0371
 IR Inten    --      9.9750                 9.7237                 0.1176

                      4
                      A
 Frequencies --    248.9365
 Red. masses --      1.0148
 Frc consts  --      0.0371
 IR Inten    --      0.1176

 - Thermochemistry -
 -------------------
 Temperature   298.150 Kelvin.  Pressure   1.00000 Atm.
 Atom     1 has atomic number  1 and mass   1.00783

 Molecular mass:    21.01405 amu.
 Principal axes and moments of inertia in atomic units:
                           1         2         3
     Eigenvalues --     0.00000 148.94749 148.94749
           X            1.00000  -0.00000   0.00000
           Y            0.00000   1.00000   0.00000
           Z            0.00000   0.00000   1.00000
 This molecule is a prolate symmetric top.
 Rotational symmetry number  1.
 Rotational temperature (Kelvin)      0.58151
 Rotational constant (GHZ):          12.116627
    2 imaginary frequencies ignored.
 Zero-point vibrational energy       2977.9 (Joules/Mol)
                                    0.71175 (Kcal/Mol)
 Warning -- explicit consideration of   2 degrees of freedom as
           vibrations may cause significant error
 Vibrational temperatures:    358.16   358.16
          (Kelvin)

 Zero-point correction=                           0.001134 (Hartree/Particle)
 Thermal correction to Energy=                    0.004471
 Thermal correction to Enthalpy=                  0.005415
 Thermal correction to Gibbs Free Energy=        -0.020389
 Sum of electronic and zero-point Energies=           -100.762167
 Sum of electronic and thermal Energies=              -100.758831
 Sum of electronic and thermal Enthalpies=            -100.757886
 Sum of electronic and thermal Free Energies=         -100.783690

                     E (Thermal)             CV                S
                      KCal/Mol        Cal/Mol-Kelvin    Cal/Mol-Kelvin
 Total                    2.805              8.497             54.308
 Electronic               0.000              0.000              1.377
 Translational            0.889              2.981             35.068
 Rotational               0.592              1.987             14.387
 Vibrational              1.324              3.529              3.476
 Vibration     1          0.662              1.765              1.738
 Vibration     2          0.662              1.765              1.738

 Normal termination of Gaussian 16 at Fri Aug 22 21:01:57 2025.
