 Gaussian 16, Revision C.01,
 Gaussian 16:  ES64L-G16RevC.01  3-Jul-2019

 -----------------------------------------
 # sp b3lyp/6-311g** Force nosymm scf=(qc)
 -----------------------------------------

 -------------------
 Title Card Required
 -------------------
 Symbolic Z-matrix:
 Charge =  0 Multiplicity = 2

                          Input orientation:
 ---------------------------------------------------------------------
 Center     Atomic      Atomic             Coordinates (Angstroms)
 Number     Number       Type             X           Y           Z
 ---------------------------------------------------------------------
      1          1           0        0.000000    0.000000    0.000000
      2          1           0       -1.750000    0.000000    0.000000
      3          9           0        2.750000    0.000000    0.000000
 ---------------------------------------------------------------------

 SCF Done:  E(UB3LYP) =  -100.793411958     a.u. after   21 cycles

 Alpha  occ. eigenvalues --  -24.73668  -1.19754  -0.52796  -0.44326  -0.44326
 Alpha  occ. eigenvalues --   -0.34630
 Alpha virt. eigenvalues --   -0.12008   0.24831   0.30819   0.90127   0.92505
 Alpha virt. eigenvalues --    0.92505   1.04342   1.10050   1.22632   1.22632
 Alpha virt. eigenvalues --    1.36108   1.36108   1.62806   2.14174   2.40334

  Beta  occ. eigenvalues --  -24.70684  -1.11213  -0.41342  -0.41342  -0.34468
  Beta virt. eigenvalues --   -0.24739  -0.11509   0.25995   0.30725   0.93945
  Beta virt. eigenvalues --    0.93945   0.98025   1.06653   1.12587   1.22858
  Beta virt. eigenvalues --    1.22858   1.36690   1.36690   1.63392   2.15243

 Mulliken charges and spin densities:
               1          2
     1  H    0.020130  -0.641441
     2  H    0.027332   0.696574
     3  F   -0.047462   0.944867
 Sum of Mulliken charges =  -0.00000   1.00000

 Dipole moment (field-independent basis, Debye):
    X=             -0.8952    Y=             -0.0000    Z=              0.0000  Tot=              0.8952
 Quadrupole moment (field-independent basis, Debye-Ang):
   XX=             -7.2258   YY=             -7.7185   ZZ=             -7.7185
   XY=             -0.0000   XZ=              0.0000   YZ=              0.0000

  Exact polarizability:      63.322      -0.000       2.012       0.000       0.000       2.012
 Approx polarizability:      72.116      -0.000       1.960       0.000      -0.000       1.960

 ******    2 imaginary frequencies (negative Signs) ******

                      1                      2                      3
                      A                      A                      A
 Frequencies --  -1832.5429              -292.3227               818.6562
 Red. masses --      1.0080                 1.1082                 1.0134
 Frc consts  --      1.9945                 0.0558                 0.4002
 IR Inten    --    146.0359                39.5847                 0.0624

                      4
                      A
 Frequencies --    818.6562
 Red. masses --      1.0134
 Frc consts  --      0.4002
 IR Inten    --      0.0624

 - Thermochemistry -
 -------------------
 Temperature   298.150 Kelvin.  Pressure   1.00000 Atm.
 Atom     1 has atomic number  1 and mass   1.00783

 Molecular mass:    21.01405 amu.
 Principal axes and moments of inertia in atomic units:
                           1         2         3
     Eigenvalues --     0.00000  91.02477  91.02477
           X            1.00000  -0.00000   0.00000
           Y            0.00000   1.00000   0.00000
           Z            0.00000   0.00000   1.00000
 This molecule is a prolate symmetric top.
 Rotational symmetry number  1.
 Rotational temperature (Kelvin)      0.95154
 Rotational constant (GHZ):          19.826923
    2 imaginary frequencies ignored.
 Zero-point vibrational energy       9793.3 (Joules/Mol)
                                    2.34066 (Kcal/Mol)
 Vibrational temperatures:   1177.86  1177.86
          (Kelvin)

 Zero-point correction=                           0.003730 (Hartree/Particle)
 Thermal correction to Energy=                    0.006237
 Thermal correction to Enthalpy=                  0.007181
 Thermal correction to Gibbs Free Energy=        -0.016689
 Sum of electronic and zero-point Energies=           -100.789682
 Sum of electronic and thermal Energies=              -100.787175
 Sum of electronic and thermal Enthalpies=            -100.786231
 Sum of electronic and thermal Free Energies=         -100.810101

                     E (Thermal)             CV                S
                      KCal/Mol        Cal/Mol-Kelvin    Cal/Mol-Kelvin
 Total                    3.914              6.209             50.239
 Electronic               0.000              0.000              1.377
 Translational            0.889              2.981             35.068
 Rotational               0.592              1.987             13.408
 Vibrational              2.433              1.241              0.385

 Normal termination of Gaussian 16 at Fri Aug 22 18:33:18 2025.
