 Gaussian 16, Revision C.01,
 Gaussian 16:  ES64L-G16RevC.01  3-Jul-2019

 -----------------------------------------
 # sp b3lyp/6-311g** Force nosymm scf=(qc)
 -----------------------------------------

 -------------------
 Title Card Required
 -------------------
 Symbolic Z-matrix:
 Charge =  0 Multiplicity = 2

                          Input orientation:
 ---------------------------------------------------------------------
 Center     Atomic      Atomic             Coordinates (Angstroms)
 Number     Number       Type             X           Y           Z
 ---------------------------------------------------------------------
      1          1           0        0.000000    0.000000    0.000000
      2          1           0       -0.600000    0.000000    0.000000
      3          9           0        2.450000    0.000000    0.000000
 ---------------------------------------------------------------------

 SCF Done:  E(UB3LYP) =  -100.915064480     a.u. after   82 cycles

 Alpha  occ. eigenvalues --  -24.76874  -1.22654  -0.55827  -0.47948  -0.46974
 Alpha  occ. eigenvalues --   -0.45328
 Alpha virt. eigenvalues --    0.09828   0.19838   0.53102   0.85623   0.90480
 Alpha virt. eigenvalues --    0.93635   1.10622   1.10651   1.13456   1.61214
 Alpha virt. eigenvalues --    1.82793   1.93169   1.93195   2.39890   3.64419

  Beta  occ. eigenvalues --  -24.73710  -1.13561  -0.46761  -0.43801  -0.43339
  Beta virt. eigenvalues --   -0.26438   0.09939   0.19919   0.53202   0.91973
  Beta virt. eigenvalues --    0.95047   0.95509   1.10644   1.10653   1.17021
  Beta virt. eigenvalues --    1.61223   1.82800   1.93170   1.93194   2.39910

 Mulliken charges and spin densities:
               1          2
     1  H   -0.010809  -0.002519
     2  H   -0.005512   0.000000
     3  F    0.016321   1.002519
 Sum of Mulliken charges =   0.00000   1.00000

 Dipole moment (field-independent basis, Debye):
    X=              0.1511    Y=              0.0000    Z=              0.0000  Tot=              0.1511
 Quadrupole moment (field-independent basis, Debye-Ang):
   XX=             -5.9850   YY=             -6.6017   ZZ=             -6.0340
   XY=              0.0000   XZ=              0.0000   YZ=              0.3250

  Exact polarizability:       7.034       0.000       1.986       0.000       0.164       2.272
 Approx polarizability:       7.516       0.000       2.091       0.000       0.209       2.456

 ******    2 imaginary frequencies (negative Signs) ******

                      1                      2                      3
                      A                      A                      A
 Frequencies --  -2761.4124             -2745.6692               241.6779
 Red. masses --      1.0090                 1.0090                 1.1085
 Frc consts  --      4.5333                 4.4817                 0.0381
 IR Inten    --      0.0887                 0.0972                 0.4967

                      4
                      A
 Frequencies --   7043.2918
 Red. masses --      1.0078
 Frc consts  --     29.4569
 IR Inten    --      3.0978

 - Thermochemistry -
 -------------------
 Temperature   298.150 Kelvin.  Pressure   1.00000 Atm.
 Atom     1 has atomic number  1 and mass   1.00783

 Molecular mass:    21.01405 amu.
 Principal axes and moments of inertia in atomic units:
                           1         2         3
     Eigenvalues --     0.00000  49.86147  49.86147
           X            1.00000  -0.00000   0.00000
           Y            0.00000   1.00000   0.00000
           Z            0.00000   0.00000   1.00000
 This molecule is a prolate symmetric top.
 Rotational symmetry number  1.
 Rotational temperature (Kelvin)      1.73709
 Rotational constant (GHZ):          36.195109
    2 imaginary frequencies ignored.
 Zero-point vibrational energy      43573.8 (Joules/Mol)
                                   10.41439 (Kcal/Mol)
 Warning -- explicit consideration of   1 degrees of freedom as
           vibrations may cause significant error
 Vibrational temperatures:    347.72 10133.73
          (Kelvin)

 Zero-point correction=                           0.016596 (Hartree/Particle)
 Thermal correction to Energy=                    0.019455
 Thermal correction to Enthalpy=                  0.020399
 Thermal correction to Gibbs Free Energy=        -0.003570
 Sum of electronic and zero-point Energies=           -100.898468
 Sum of electronic and thermal Energies=              -100.895609
 Sum of electronic and thermal Enthalpies=            -100.894665
 Sum of electronic and thermal Free Energies=         -100.918635

                     E (Thermal)             CV                S
                      KCal/Mol        Cal/Mol-Kelvin    Cal/Mol-Kelvin
 Total                   12.208              6.745             50.448
 Electronic               0.000              0.000              1.377
 Translational            0.889              2.981             35.068
 Rotational               0.592              1.987             12.212
 Vibrational             10.727              1.776              1.790
 Vibration     1          0.658              1.776              1.790

 Normal termination of Gaussian 16 at Fri Aug 22 17:34:50 2025.
