 Gaussian 16, Revision C.01,
 Gaussian 16:  ES64L-G16RevC.01  3-Jul-2019

 -----------------------------------------
 # sp b3lyp/6-311g** Force nosymm scf=(qc)
 -----------------------------------------

 -------------------
 Title Card Required
 -------------------
 Symbolic Z-matrix:
 Charge =  0 Multiplicity = 2

                          Input orientation:
 ---------------------------------------------------------------------
 Center     Atomic      Atomic             Coordinates (Angstroms)
 Number     Number       Type             X           Y           Z
 ---------------------------------------------------------------------
      1          1           0        0.000000    0.000000    0.000000
      2          1           0       -2.750000    0.000000    0.000000
      3          9           0        3.950000    0.000000    0.000000
 ---------------------------------------------------------------------

 SCF Done:  E(UB3LYP) =  -100.760554846     a.u. after   44 cycles

 Alpha  occ. eigenvalues --  -24.75874  -1.21802  -0.54999  -0.46179  -0.46179
 Alpha  occ. eigenvalues --   -0.32418
 Alpha virt. eigenvalues --   -0.08378   0.25468   0.35671   0.86614   0.91172
 Alpha virt. eigenvalues --    0.91172   1.01103   1.25156   1.25156   1.26381
 Alpha virt. eigenvalues --    1.43285   1.43285   1.43751   2.16066   2.38439

  Beta  occ. eigenvalues --  -24.72730  -1.12760  -0.43027  -0.43027  -0.32583
  Beta virt. eigenvalues --   -0.25734  -0.08161   0.25311   0.35954   0.92670
  Beta virt. eigenvalues --    0.92670   0.95988   1.05229   1.24977   1.24977
  Beta virt. eigenvalues --    1.26182   1.43604   1.43604   1.44069   2.16123

 Mulliken charges and spin densities:
               1          2
     1  H    0.002168  -0.981984
     2  H    0.000511   0.985011
     3  F   -0.002680   0.996973
 Sum of Mulliken charges =   0.00000   1.00000

 Dipole moment (field-independent basis, Debye):
    X=             -0.0614    Y=              0.0000    Z=             -0.0000  Tot=              0.0614
 Quadrupole moment (field-independent basis, Debye-Ang):
   XX=             -6.7996   YY=             -7.6487   ZZ=             -7.6487
   XY=             -0.0000   XZ=              0.0000   YZ=              0.0000

  Exact polarizability:      16.503      -0.000       2.026       0.000       0.000       2.026
 Approx polarizability:      12.432      -0.000       1.933       0.000      -0.000       1.933

 ******    2 imaginary frequencies (negative Signs) ******

                      1                      2                      3
                      A                      A                      A
 Frequencies --   -465.3459               -77.1888               168.4307
 Red. masses --      1.0079                 1.1084                 1.0142
 Frc consts  --      0.1286                 0.0039                 0.0170
 IR Inten    --      0.7013                 0.7595                 0.0037

                      4
                      A
 Frequencies --    168.4307
 Red. masses --      1.0142
 Frc consts  --      0.0170
 IR Inten    --      0.0037

 - Thermochemistry -
 -------------------
 Temperature   298.150 Kelvin.  Pressure   1.00000 Atm.
 Atom     1 has atomic number  1 and mass   1.00783

 Molecular mass:    21.01405 amu.
 Principal axes and moments of inertia in atomic units:
                           1         2         3
     Eigenvalues --     0.00000 198.13552 198.13552
           X            1.00000  -0.00000   0.00000
           Y            0.00000   1.00000   0.00000
           Z            0.00000   0.00000   1.00000
 This molecule is a prolate symmetric top.
 Rotational symmetry number  1.
 Rotational temperature (Kelvin)      0.43714
 Rotational constant (GHZ):           9.108620
    2 imaginary frequencies ignored.
 Zero-point vibrational energy       2014.9 (Joules/Mol)
                                    0.48157 (Kcal/Mol)
 Warning -- explicit consideration of   2 degrees of freedom as
           vibrations may cause significant error
 Vibrational temperatures:    242.33   242.33
          (Kelvin)

 Zero-point correction=                           0.000767 (Hartree/Particle)
 Thermal correction to Energy=                    0.004352
 Thermal correction to Enthalpy=                  0.005296
 Thermal correction to Gibbs Free Energy=        -0.021457
 Sum of electronic and zero-point Energies=           -100.759787
 Sum of electronic and thermal Energies=              -100.756203
 Sum of electronic and thermal Enthalpies=            -100.755259
 Sum of electronic and thermal Free Energies=         -100.782011

                     E (Thermal)             CV                S
                      KCal/Mol        Cal/Mol-Kelvin    Cal/Mol-Kelvin
 Total                    2.731              8.731             56.305
 Electronic               0.000              0.000              1.377
 Translational            0.889              2.981             35.068
 Rotational               0.592              1.987             14.954
 Vibrational              1.249              3.763              4.906
 Vibration     1          0.625              1.881              2.453
 Vibration     2          0.625              1.881              2.453

 Normal termination of Gaussian 16 at Sat Aug 23 01:40:06 2025.
