 Gaussian 16, Revision C.01,
 Gaussian 16:  ES64L-G16RevC.01  3-Jul-2019

 -----------------------------------------
 # sp b3lyp/6-311g** Force nosymm scf=(qc)
 -----------------------------------------

 -------------------
 Title Card Required
 -------------------
 Symbolic Z-matrix:
 Charge =  0 Multiplicity = 2

                          Input orientation:
 ---------------------------------------------------------------------
 Center     Atomic      Atomic             Coordinates (Angstroms)
 Number     Number       Type             X           Y           Z
 ---------------------------------------------------------------------
      1          1           0        0.000000    0.000000    0.000000
      2          1           0       -2.450000    0.000000    0.000000
      3          9           0        3.600000    0.000000    0.000000
 ---------------------------------------------------------------------

 SCF Done:  E(UB3LYP) =  -100.763384665     a.u. after   30 cycles

 Alpha  occ. eigenvalues --  -24.75602  -1.21549  -0.54725  -0.45949  -0.45949
 Alpha  occ. eigenvalues --   -0.32662
 Alpha virt. eigenvalues --   -0.09595   0.25765   0.34279   0.87303   0.91342
 Alpha virt. eigenvalues --    0.91342   1.01544   1.25013   1.25013   1.26467
 Alpha virt. eigenvalues --    1.41130   1.41130   1.43138   2.15628   2.36457

  Beta  occ. eigenvalues --  -24.72476  -1.12564  -0.42816  -0.42816  -0.32896
  Beta virt. eigenvalues --   -0.25608  -0.09211   0.25575   0.34850   0.92835
  Beta virt. eigenvalues --    0.92835   0.96537   1.05613   1.24737   1.24737
  Beta virt. eigenvalues --    1.26145   1.41713   1.41713   1.43710   2.16037

 Mulliken charges and spin densities:
               1          2
     1  H    0.005725  -0.956202
     2  H    0.002106   0.965040
     3  F   -0.007831   0.991162
 Sum of Mulliken charges =   0.00000   1.00000

 Dipole moment (field-independent basis, Debye):
    X=             -0.1694    Y=             -0.0000    Z=             -0.0000  Tot=              0.1694
 Quadrupole moment (field-independent basis, Debye-Ang):
   XX=             -6.9528   YY=             -7.6707   ZZ=             -7.6707
   XY=              0.0000   XZ=              0.0000   YZ=             -0.0000

  Exact polarizability:      30.951      -0.000       2.002      -0.000       0.000       2.002
 Approx polarizability:      23.073       0.000       1.929       0.000       0.000       1.929

 ******    2 imaginary frequencies (negative Signs) ******

                      1                      2                      3
                      A                      A                      A
 Frequencies --   -715.7242              -124.4132               266.6619
 Red. masses --      1.0079                 1.1084                 1.0140
 Frc consts  --      0.3042                 0.0101                 0.0425
 IR Inten    --      4.0679                 4.3126                 0.0284

                      4
                      A
 Frequencies --    266.6620
 Red. masses --      1.0140
 Frc consts  --      0.0425
 IR Inten    --      0.0284

 - Thermochemistry -
 -------------------
 Temperature   298.150 Kelvin.  Pressure   1.00000 Atm.
 Atom     1 has atomic number  1 and mass   1.00783

 Molecular mass:    21.01405 amu.
 Principal axes and moments of inertia in atomic units:
                           1         2         3
     Eigenvalues --     0.00000 162.30227 162.30227
           X            1.00000  -0.00000   0.00000
           Y            0.00000   1.00000   0.00000
           Z            0.00000   0.00000   1.00000
 This molecule is a prolate symmetric top.
 Rotational symmetry number  1.
 Rotational temperature (Kelvin)      0.53366
 Rotational constant (GHZ):          11.119630
    2 imaginary frequencies ignored.
 Zero-point vibrational energy       3190.0 (Joules/Mol)
                                    0.76242 (Kcal/Mol)
 Warning -- explicit consideration of   2 degrees of freedom as
           vibrations may cause significant error
 Vibrational temperatures:    383.67   383.67
          (Kelvin)

 Zero-point correction=                           0.001215 (Hartree/Particle)
 Thermal correction to Energy=                    0.004502
 Thermal correction to Enthalpy=                  0.005447
 Thermal correction to Gibbs Free Energy=        -0.020324
 Sum of electronic and zero-point Energies=           -100.762170
 Sum of electronic and thermal Energies=              -100.758882
 Sum of electronic and thermal Enthalpies=            -100.757938
 Sum of electronic and thermal Free Energies=         -100.783708

                     E (Thermal)             CV                S
                      KCal/Mol        Cal/Mol-Kelvin    Cal/Mol-Kelvin
 Total                    2.825              8.437             54.238
 Electronic               0.000              0.000              1.377
 Translational            0.889              2.981             35.068
 Rotational               0.592              1.987             14.557
 Vibrational              1.344              3.469              3.235
 Vibration     1          0.672              1.734              1.618
 Vibration     2          0.672              1.734              1.618

 Normal termination of Gaussian 16 at Fri Aug 22 23:06:17 2025.
