 Gaussian 16, Revision C.01,
 Gaussian 16:  ES64L-G16RevC.01  3-Jul-2019

 -----------------------------------------
 # sp b3lyp/6-311g** Force nosymm scf=(qc)
 -----------------------------------------

 -------------------
 Title Card Required
 -------------------
 Symbolic Z-matrix:
 Charge =  0 Multiplicity = 2

                          Input orientation:
 ---------------------------------------------------------------------
 Center     Atomic      Atomic             Coordinates (Angstroms)
 Number     Number       Type             X           Y           Z
 ---------------------------------------------------------------------
      1          1           0        0.000000    0.000000    0.000000
      2          1           0       -3.000000    0.000000    0.000000
      3          9           0        3.550000    0.000000    0.000000
 ---------------------------------------------------------------------

 SCF Done:  E(UB3LYP) =  -100.759907273     a.u. after   32 cycles

 Alpha  occ. eigenvalues --  -24.75482  -1.21438  -0.54605  -0.45847  -0.45847
 Alpha  occ. eigenvalues --   -0.32430
 Alpha virt. eigenvalues --   -0.07994   0.24971   0.36005   0.87458   0.91420
 Alpha virt. eigenvalues --    0.91420   1.01687   1.25107   1.25107   1.25824
 Alpha virt. eigenvalues --    1.43928   1.43945   1.43945   2.15736   2.39524

  Beta  occ. eigenvalues --  -24.72362  -1.12472  -0.42720  -0.42720  -0.32819
  Beta virt. eigenvalues --   -0.25536  -0.07502   0.24753   0.36772   0.92911
  Beta virt. eigenvalues --    0.92911   0.96640   1.05725   1.24658   1.24658
  Beta virt. eigenvalues --    1.25338   1.44692   1.44726   1.44726   2.16010

 Mulliken charges and spin densities:
               1          2
     1  H    0.009210  -0.981575
     2  H    0.000600   0.992442
     3  F   -0.009810   0.989134
 Sum of Mulliken charges =   0.00000   1.00000

 Dipole moment (field-independent basis, Debye):
    X=             -0.1878    Y=              0.0000    Z=             -0.0000  Tot=              0.1878
 Quadrupole moment (field-independent basis, Debye-Ang):
   XX=             -7.2440   YY=             -7.6348   ZZ=             -7.6348
   XY=              0.0000   XZ=             -0.0000   YZ=              0.0000

  Exact polarizability:      24.859       0.000       2.034      -0.000      -0.000       2.034
 Approx polarizability:      19.014       0.000       1.932      -0.000       0.000       1.932

 ******    2 imaginary frequencies (negative Signs) ******

                      1                      2                      3
                      A                      A                      A
 Frequencies --   -356.9161              -125.8892               121.6111
 Red. masses --      1.0104                 1.1054                 1.0160
 Frc consts  --      0.0758                 0.0103                 0.0089
 IR Inten    --      6.2247                 3.6125                 0.0670

                      4
                      A
 Frequencies --    121.6112
 Red. masses --      1.0160
 Frc consts  --      0.0089
 IR Inten    --      0.0670

 - Thermochemistry -
 -------------------
 Temperature   298.150 Kelvin.  Pressure   1.00000 Atm.
 Atom     1 has atomic number  1 and mass   1.00783

 Molecular mass:    21.01405 amu.
 Principal axes and moments of inertia in atomic units:
                           1         2         3
     Eigenvalues --     0.00000 182.15534 182.15534
           X            1.00000  -0.00000   0.00000
           Y            0.00000   1.00000   0.00000
           Z            0.00000   0.00000   1.00000
 This molecule is a prolate symmetric top.
 Rotational symmetry number  1.
 Rotational temperature (Kelvin)      0.47549
 Rotational constant (GHZ):           9.907704
    2 imaginary frequencies ignored.
 Zero-point vibrational energy       1454.8 (Joules/Mol)
                                    0.34770 (Kcal/Mol)
 Warning -- explicit consideration of   2 degrees of freedom as
           vibrations may cause significant error
 Vibrational temperatures:    174.97   174.97
          (Kelvin)

 Zero-point correction=                           0.000554 (Hartree/Particle)
 Thermal correction to Energy=                    0.004303
 Thermal correction to Enthalpy=                  0.005247
 Thermal correction to Gibbs Free Energy=        -0.022017
 Sum of electronic and zero-point Energies=           -100.759353
 Sum of electronic and thermal Energies=              -100.755605
 Sum of electronic and thermal Enthalpies=            -100.754660
 Sum of electronic and thermal Free Energies=         -100.781924

                     E (Thermal)             CV                S
                      KCal/Mol        Cal/Mol-Kelvin    Cal/Mol-Kelvin
 Total                    2.700              8.830             57.381
 Electronic               0.000              0.000              1.377
 Translational            0.889              2.981             35.068
 Rotational               0.592              1.987             14.787
 Vibrational              1.219              3.862              6.149
 Vibration     1          0.609              1.931              3.075
 Vibration     2          0.609              1.931              3.075

 Normal termination of Gaussian 16 at Fri Aug 22 22:40:38 2025.
