 Gaussian 16, Revision C.01,
 Gaussian 16:  ES64L-G16RevC.01  3-Jul-2019

 -----------------------------------------
 # sp b3lyp/6-311g** Force nosymm scf=(qc)
 -----------------------------------------

 -------------------
 Title Card Required
 -------------------
 Symbolic Z-matrix:
 Charge =  0 Multiplicity = 2

                          Input orientation:
 ---------------------------------------------------------------------
 Center     Atomic      Atomic             Coordinates (Angstroms)
 Number     Number       Type             X           Y           Z
 ---------------------------------------------------------------------
      1          1           0        0.000000    0.000000    0.000000
      2          1           0       -1.650000    0.000000    0.000000
      3          9           0        2.100000    0.000000    0.000000
 ---------------------------------------------------------------------

 SCF Done:  E(UB3LYP) =  -100.815850893     a.u. after   12 cycles

 Alpha  occ. eigenvalues --  -24.69818  -1.16139  -0.49075  -0.41107  -0.41107
 Alpha  occ. eigenvalues --   -0.37099
 Alpha virt. eigenvalues --   -0.12051   0.23163   0.31040   0.85308   0.94228
 Alpha virt. eigenvalues --    0.94228   1.02856   1.19276   1.19276   1.25192
 Alpha virt. eigenvalues --    1.35715   1.35715   1.71257   2.15668   2.39875

  Beta  occ. eigenvalues --  -24.67209  -1.08784  -0.38522  -0.38522  -0.36804
  Beta virt. eigenvalues --   -0.23097  -0.10784   0.25523   0.30557   0.89110
  Beta virt. eigenvalues --    0.95297   0.95297   1.06959   1.20959   1.20959
  Beta virt. eigenvalues --    1.30040   1.36467   1.36467   1.72117   2.16503

 Mulliken charges and spin densities:
               1          2
     1  H    0.085055  -0.491440
     2  H    0.056844   0.670636
     3  F   -0.141898   0.820805
 Sum of Mulliken charges =  -0.00000   1.00000

 Dipole moment (field-independent basis, Debye):
    X=             -1.9394    Y=              0.0000    Z=             -0.0000  Tot=              1.9394
 Quadrupole moment (field-independent basis, Debye-Ang):
   XX=             -7.9360   YY=             -7.5835   ZZ=             -7.5835
   XY=              0.0000   XZ=             -0.0000   YZ=              0.0000

  Exact polarizability:      55.941       0.000       2.070      -0.000      -0.000       2.070
 Approx polarizability:      78.311      -0.000       2.010       0.000       0.000       2.010

 ******    2 imaginary frequencies (negative Signs) ******

                      1                      2                      3
                      A                      A                      A
 Frequencies --  -2030.9423              -506.1926               918.8107
 Red. masses --      1.0108                 1.1049                 1.0153
 Frc consts  --      2.4565                 0.1668                 0.5050
 IR Inten    --    417.4863                34.5486                 2.5069

                      4
                      A
 Frequencies --    918.8107
 Red. masses --      1.0153
 Frc consts  --      0.5050
 IR Inten    --      2.5069

 - Thermochemistry -
 -------------------
 Temperature   298.150 Kelvin.  Pressure   1.00000 Atm.
 Atom     1 has atomic number  1 and mass   1.00783

 Molecular mass:    21.01405 amu.
 Principal axes and moments of inertia in atomic units:
                           1         2         3
     Eigenvalues --     0.00000  60.57565  60.57565
           X            1.00000  -0.00000   0.00000
           Y            0.00000   1.00000   0.00000
           Z            0.00000   0.00000   1.00000
 This molecule is a prolate symmetric top.
 Rotational symmetry number  1.
 Rotational temperature (Kelvin)      1.42985
 Rotational constant (GHZ):          29.793182
    2 imaginary frequencies ignored.
 Zero-point vibrational energy      10991.4 (Joules/Mol)
                                    2.62701 (Kcal/Mol)
 Vibrational temperatures:   1321.96  1321.96
          (Kelvin)

 Zero-point correction=                           0.004186 (Hartree/Particle)
 Thermal correction to Energy=                    0.006647
 Thermal correction to Enthalpy=                  0.007592
 Thermal correction to Gibbs Free Energy=        -0.015834
 Sum of electronic and zero-point Energies=           -100.811664
 Sum of electronic and thermal Energies=              -100.809203
 Sum of electronic and thermal Enthalpies=            -100.808259
 Sum of electronic and thermal Free Energies=         -100.831685

                     E (Thermal)             CV                S
                      KCal/Mol        Cal/Mol-Kelvin    Cal/Mol-Kelvin
 Total                    4.171              5.918             49.303
 Electronic               0.000              0.000              1.377
 Translational            0.889              2.981             35.068
 Rotational               0.592              1.987             12.599
 Vibrational              2.690              0.950              0.259

 Normal termination of Gaussian 16 at Fri Aug 22 17:03:30 2025.
