 Gaussian 16, Revision C.01,
 Gaussian 16:  ES64L-G16RevC.01  3-Jul-2019

 -----------------------------------------
 # sp b3lyp/6-311g** Force nosymm scf=(qc)
 -----------------------------------------

 -------------------
 Title Card Required
 -------------------
 Symbolic Z-matrix:
 Charge =  0 Multiplicity = 2

                          Input orientation:
 ---------------------------------------------------------------------
 Center     Atomic      Atomic             Coordinates (Angstroms)
 Number     Number       Type             X           Y           Z
 ---------------------------------------------------------------------
      1          1           0        0.000000    0.000000    0.000000
      2          1           0       -3.400000    0.000000    0.000000
      3          9           0        0.950000    0.000000    0.000000
 ---------------------------------------------------------------------

 SCF Done:  E(UB3LYP) =  -100.971035969     a.u. after    6 cycles

 Alpha  occ. eigenvalues --  -24.64101  -1.17438  -0.52738  -0.39209  -0.39209
 Alpha  occ. eigenvalues --   -0.33740
 Alpha virt. eigenvalues --    0.01968   0.24331   0.36851   0.94225   0.94225
 Alpha virt. eigenvalues --    0.98139   1.23574   1.23776   1.23776   1.29905
 Alpha virt. eigenvalues --    1.36481   1.36481   1.95979   2.14328   2.34905

  Beta  occ. eigenvalues --  -24.64099  -1.17433  -0.52732  -0.39207  -0.39207
  Beta virt. eigenvalues --   -0.05959   0.02669   0.35971   0.39534   0.94225
  Beta virt. eigenvalues --    0.94225   0.98137   1.29529   1.36480   1.36480
  Beta virt. eigenvalues --    1.50090   1.50362   1.50362   1.96015   2.34831

 Mulliken charges and spin densities:
               1          2
     1  H    0.307561   0.000695
     2  H    0.001148   0.998609
     3  F   -0.308709   0.000695
 Sum of Mulliken charges =   0.00000   1.00000

 Dipole moment (field-independent basis, Debye):
    X=             -1.9703    Y=              0.0000    Z=             -0.0000  Tot=              1.9703
 Quadrupole moment (field-independent basis, Debye-Ang):
   XX=             -8.0498   YY=             -6.9162   ZZ=             -6.9162
   XY=              0.0000   XZ=             -0.0000   YZ=              0.0000

  Exact polarizability:       6.237       0.000       2.415      -0.000      -0.000       2.415
 Approx polarizability:       7.405       0.000       2.391      -0.000      -0.000       2.391

 ******    1 imaginary frequencies (negative Signs) ******

                      1                      2                      3
                      A                      A                      A
 Frequencies --    -52.8660               675.3954               675.3954
 Red. masses --      1.0532                 1.0373                 1.0373
 Frc consts  --      0.0017                 0.2788                 0.2788
 IR Inten    --      0.0645               174.1988               174.1988

                      4
                      A
 Frequencies --   3679.3367
 Red. masses --      1.0583
 Frc consts  --      8.4414
 IR Inten    --     96.4689

 - Thermochemistry -
 -------------------
 Temperature   298.150 Kelvin.  Pressure   1.00000 Atm.
 Atom     1 has atomic number  1 and mass   1.00783

 Molecular mass:    21.01405 amu.
 Principal axes and moments of inertia in atomic units:
                           1         2         3
     Eigenvalues --     0.00000  66.50182  66.50182
           X            1.00000  -0.00000   0.00000
           Y            0.00000   1.00000   0.00000
           Z            0.00000   0.00000   1.00000
 This molecule is a prolate symmetric top.
 Rotational symmetry number  1.
 Rotational temperature (Kelvin)      1.30243
 Rotational constant (GHZ):          27.138224
    1 imaginary frequencies ignored.
 Zero-point vibrational energy      30086.8 (Joules/Mol)
                                    7.19093 (Kcal/Mol)
 Vibrational temperatures:    971.74   971.74  5293.74
          (Kelvin)

 Zero-point correction=                           0.011459 (Hartree/Particle)
 Thermal correction to Energy=                    0.014066
 Thermal correction to Enthalpy=                  0.015010
 Thermal correction to Gibbs Free Energy=        -0.008701
 Sum of electronic and zero-point Energies=           -100.959576
 Sum of electronic and thermal Energies=              -100.956970
 Sum of electronic and thermal Enthalpies=            -100.956026
 Sum of electronic and thermal Free Energies=         -100.979737

                     E (Thermal)             CV                S
                      KCal/Mol        Cal/Mol-Kelvin    Cal/Mol-Kelvin
 Total                    8.826              6.722             49.903
 Electronic               0.000              0.000              1.377
 Translational            0.889              2.981             35.068
 Rotational               0.592              1.987             12.784
 Vibrational              7.345              1.754              0.673

 Normal termination of Gaussian 16 at Fri Aug 22 15:59:04 2025.
