 Gaussian 16, Revision C.01,
 Gaussian 16:  ES64L-G16RevC.01  3-Jul-2019

 -----------------------------------------
 # sp b3lyp/6-311g** Force nosymm scf=(qc)
 -----------------------------------------

 -------------------
 Title Card Required
 -------------------
 Symbolic Z-matrix:
 Charge =  0 Multiplicity = 2

                          Input orientation:
 ---------------------------------------------------------------------
 Center     Atomic      Atomic             Coordinates (Angstroms)
 Number     Number       Type             X           Y           Z
 ---------------------------------------------------------------------
      1          1           0        0.000000    0.000000    0.000000
      2          1           0       -2.900000    0.000000    0.000000
      3          9           0        3.050000    0.000000    0.000000
 ---------------------------------------------------------------------

 SCF Done:  E(UB3LYP) =  -100.761931805     a.u. after   22 cycles

 Alpha  occ. eigenvalues --  -24.74287  -1.20331  -0.53406  -0.44843  -0.44843
 Alpha  occ. eigenvalues --   -0.32730
 Alpha virt. eigenvalues --   -0.09159   0.24866   0.34852   0.89287   0.92155
 Alpha virt. eigenvalues --    0.92155   1.03653   1.24821   1.24821   1.25835
 Alpha virt. eigenvalues --    1.42240   1.42240   1.42702   2.15618   2.38719

  Beta  occ. eigenvalues --  -24.71247  -1.11614  -0.41799  -0.41799  -0.33651
  Beta virt. eigenvalues --   -0.24895  -0.07895   0.24843   0.36358   0.93620
  Beta virt. eigenvalues --    0.93620   0.98080   1.07498   1.23743   1.23743
  Beta virt. eigenvalues --    1.24775   1.44238   1.44238   1.44363   2.16196

 Mulliken charges and spin densities:
               1          2
     1  H    0.031090  -0.953908
     2  H    0.001925   0.990357
     3  F   -0.033015   0.963551
 Sum of Mulliken charges =  -0.00000   1.00000

 Dipole moment (field-independent basis, Debye):
    X=             -0.5438    Y=             -0.0000    Z=             -0.0000  Tot=              0.5438
 Quadrupole moment (field-independent basis, Debye-Ang):
   XX=             -8.0624   YY=             -7.6283   ZZ=             -7.6283
   XY=             -0.0000   XZ=             -0.0000   YZ=              0.0000

  Exact polarizability:      35.806      -0.000       2.022      -0.000      -0.000       2.022
 Approx polarizability:      33.695      -0.000       1.925      -0.000       0.000       1.925

 ******    2 imaginary frequencies (negative Signs) ******

                      1                      2                      3
                      A                      A                      A
 Frequencies --   -462.7046              -194.4035               170.6274
 Red. masses --      1.0191                 1.0951                 1.0173
 Frc consts  --      0.1286                 0.0244                 0.0175
 IR Inten    --     28.7806                 8.1811                 0.8415

                      4
                      A
 Frequencies --    170.6274
 Red. masses --      1.0173
 Frc consts  --      0.0175
 IR Inten    --      0.8415

 - Thermochemistry -
 -------------------
 Temperature   298.150 Kelvin.  Pressure   1.00000 Atm.
 Atom     1 has atomic number  1 and mass   1.00783

 Molecular mass:    21.01405 amu.
 Principal axes and moments of inertia in atomic units:
                           1         2         3
     Eigenvalues --     0.00000 146.91252 146.91252
           X            1.00000  -0.00000   0.00000
           Y            0.00000   1.00000   0.00000
           Z            0.00000   0.00000   1.00000
 This molecule is a prolate symmetric top.
 Rotational symmetry number  1.
 Rotational temperature (Kelvin)      0.58956
 Rotational constant (GHZ):          12.284462
    2 imaginary frequencies ignored.
 Zero-point vibrational energy       2041.2 (Joules/Mol)
                                    0.48785 (Kcal/Mol)
 Warning -- explicit consideration of   2 degrees of freedom as
           vibrations may cause significant error
 Vibrational temperatures:    245.49   245.49
          (Kelvin)

 Zero-point correction=                           0.000777 (Hartree/Particle)
 Thermal correction to Energy=                    0.004354
 Thermal correction to Enthalpy=                  0.005299
 Thermal correction to Gibbs Free Energy=        -0.021148
 Sum of electronic and zero-point Energies=           -100.761154
 Sum of electronic and thermal Energies=              -100.757577
 Sum of electronic and thermal Enthalpies=            -100.756633
 Sum of electronic and thermal Free Energies=         -100.783080

                     E (Thermal)             CV                S
                      KCal/Mol        Cal/Mol-Kelvin    Cal/Mol-Kelvin
 Total                    2.732              8.725             55.662
 Electronic               0.000              0.000              1.377
 Translational            0.889              2.981             35.068
 Rotational               0.592              1.987             14.359
 Vibrational              1.251              3.757              4.857
 Vibration     1          0.626              1.879              2.429
 Vibration     2          0.626              1.879              2.429

 Normal termination of Gaussian 16 at Fri Aug 22 19:44:40 2025.
