 Gaussian 16, Revision C.01,
 Gaussian 16:  ES64L-G16RevC.01  3-Jul-2019

 -----------------------------------------
 # sp b3lyp/6-311g** Force nosymm scf=(qc)
 -----------------------------------------

 -------------------
 Title Card Required
 -------------------
 Symbolic Z-matrix:
 Charge =  0 Multiplicity = 2

                          Input orientation:
 ---------------------------------------------------------------------
 Center     Atomic      Atomic             Coordinates (Angstroms)
 Number     Number       Type             X           Y           Z
 ---------------------------------------------------------------------
      1          1           0        0.000000    0.000000    0.000000
      2          1           0       -1.500000    0.000000    0.000000
      3          9           0        3.450000    0.000000    0.000000
 ---------------------------------------------------------------------

 SCF Done:  E(UB3LYP) =  -100.820313872     a.u. after  315 cycles

 Alpha  occ. eigenvalues --  -24.76414  -1.22286  -0.55484  -0.46682  -0.46639
 Alpha  occ. eigenvalues --   -0.33554
 Alpha virt. eigenvalues --   -0.09779   0.24966   0.30394   0.85915   0.90791
 Alpha virt. eigenvalues --    0.92097   1.01353   1.07599   1.20383   1.20386
 Alpha virt. eigenvalues --    1.41495   1.41499   1.82034   2.22390   2.46598

  Beta  occ. eigenvalues --  -24.73257  -1.13209  -0.43520  -0.43474  -0.33551
  Beta virt. eigenvalues --   -0.26126  -0.09785   0.24971   0.30440   0.92292
  Beta virt. eigenvalues --    0.93591   0.95380   1.05430   1.07617   1.20380
  Beta virt. eigenvalues --    1.20383   1.41493   1.41496   1.82058   2.22448

 Mulliken charges and spin densities:
               1          2
     1  H    0.000520  -0.118779
     2  H   -0.003516   0.118479
     3  F    0.002997   1.000300
 Sum of Mulliken charges =   0.00000   1.00000

 Dipole moment (field-independent basis, Debye):
    X=              0.0549    Y=              0.0000    Z=              0.0000  Tot=              0.0549
 Quadrupole moment (field-independent basis, Debye-Ang):
   XX=             -6.2485   YY=             -6.8974   ZZ=             -7.7616
   XY=              0.0000   XZ=              0.0000   YZ=             -0.0037

  Exact polarizability:      22.834       0.000       2.506       0.000      -0.002       2.040
 Approx polarizability:      43.292       0.000       2.618       0.000      -0.002       2.036

 ******    2 imaginary frequencies (negative Signs) ******

                      1                      2                      3
                      A                      A                      A
 Frequencies --  -2211.2089               -38.3676              1217.6165
 Red. masses --      1.0078                 1.1085                 1.0110
 Frc consts  --      2.9033                 0.0010                 0.8831
 IR Inten    --      0.0626                 0.2143                 0.0044

                      4
                      A
 Frequencies --   1219.3557
 Red. masses --      1.0110
 Frc consts  --      0.8856
 IR Inten    --      0.0028

 - Thermochemistry -
 -------------------
 Temperature   298.150 Kelvin.  Pressure   1.00000 Atm.
 Atom     1 has atomic number  1 and mass   1.00783

 Molecular mass:    21.01405 amu.
 Principal axes and moments of inertia in atomic units:
                           1         2         3
     Eigenvalues --     0.00000 118.84276 118.84276
           X            1.00000  -0.00000   0.00000
           Y            0.00000   1.00000   0.00000
           Z            0.00000   0.00000   1.00000
 This molecule is a prolate symmetric top.
 Rotational symmetry number  1.
 Rotational temperature (Kelvin)      0.72881
 Rotational constant (GHZ):          15.185958
    2 imaginary frequencies ignored.
 Zero-point vibrational energy      14576.3 (Joules/Mol)
                                    3.48383 (Kcal/Mol)
 Vibrational temperatures:   1751.88  1754.38
          (Kelvin)

 Zero-point correction=                           0.005552 (Hartree/Particle)
 Thermal correction to Energy=                    0.007943
 Thermal correction to Enthalpy=                  0.008888
 Thermal correction to Gibbs Free Energy=        -0.015088
 Sum of electronic and zero-point Energies=           -100.814762
 Sum of electronic and thermal Energies=              -100.812370
 Sum of electronic and thermal Enthalpies=            -100.811426
 Sum of electronic and thermal Free Energies=         -100.835402

                     E (Thermal)             CV                S
                      KCal/Mol        Cal/Mol-Kelvin    Cal/Mol-Kelvin
 Total                    4.985              5.354             50.460
 Electronic               0.000              0.000              1.377
 Translational            0.889              2.981             35.068
 Rotational               0.592              1.987             13.938
 Vibrational              3.503              0.386              0.077

 Normal termination of Gaussian 16 at Fri Aug 22 21:37:15 2025.
