 Gaussian 16, Revision C.01,
 Gaussian 16:  ES64L-G16RevC.01  3-Jul-2019

 -----------------------------------------
 # sp b3lyp/6-311g** Force nosymm scf=(qc)
 -----------------------------------------

 -------------------
 Title Card Required
 -------------------
 Symbolic Z-matrix:
 Charge =  0 Multiplicity = 2

                          Input orientation:
 ---------------------------------------------------------------------
 Center     Atomic      Atomic             Coordinates (Angstroms)
 Number     Number       Type             X           Y           Z
 ---------------------------------------------------------------------
      1          1           0        0.000000    0.000000    0.000000
      2          1           0       -0.750000    0.000000    0.000000
      3          9           0        1.550000    0.000000    0.000000
 ---------------------------------------------------------------------

 SCF Done:  E(UB3LYP) =  -100.937421332     a.u. after    7 cycles

 Alpha  occ. eigenvalues --  -24.71647  -1.18543  -0.55710  -0.43250  -0.43060
 Alpha  occ. eigenvalues --   -0.43060
 Alpha virt. eigenvalues --    0.08756   0.19923   0.43102   0.88973   0.88973
 Alpha virt. eigenvalues --    0.97148   1.08159   1.08159   1.26652   1.69103
 Alpha virt. eigenvalues --    1.80909   1.80909   1.97488   2.42544   3.08043

  Beta  occ. eigenvalues --  -24.68946  -1.11082  -0.47282  -0.40423  -0.40423
  Beta virt. eigenvalues --   -0.23739   0.10045   0.20823   0.45095   0.90147
  Beta virt. eigenvalues --    0.90147   1.03538   1.10209   1.10209   1.30299
  Beta virt. eigenvalues --    1.71923   1.82077   1.82077   1.98500   2.44897

 Mulliken charges and spin densities:
               1          2
     1  H    0.111838  -0.044857
     2  H    0.021437   0.222805
     3  F   -0.133274   0.822053
 Sum of Mulliken charges =   0.00000   1.00000

 Dipole moment (field-independent basis, Debye):
    X=             -1.0791    Y=             -0.0000    Z=             -0.0000  Tot=              1.0791
 Quadrupole moment (field-independent basis, Debye-Ang):
   XX=             -6.7952   YY=             -6.8033   ZZ=             -6.8033
   XY=             -0.0000   XZ=             -0.0000   YZ=              0.0000

  Exact polarizability:      20.253       0.000       2.279      -0.000      -0.000       2.279
 Approx polarizability:      25.665       0.000       2.318      -0.000      -0.000       2.318

 ******    3 imaginary frequencies (negative Signs) ******

                      1                      2                      3
                      A                      A                      A
 Frequencies --   -818.7697              -818.7697              -378.0113
 Red. masses --      1.0115                 1.0115                 1.1081
 Frc consts  --      0.3995                 0.3995                 0.0933
 IR Inten    --      0.4348                 0.4348                95.7998

                      4
                      A
 Frequencies --   4035.3688
 Red. masses --      1.0082
 Frc consts  --      9.6731
 IR Inten    --    667.1782

 - Thermochemistry -
 -------------------
 Temperature   298.150 Kelvin.  Pressure   1.00000 Atm.
 Atom     1 has atomic number  1 and mass   1.00783

 Molecular mass:    21.01405 amu.
 Principal axes and moments of inertia in atomic units:
                           1         2         3
     Eigenvalues --     0.00000  25.12691  25.12691
           X            1.00000  -0.00000   0.00000
           Y            0.00000   1.00000   0.00000
           Z            0.00000   0.00000   1.00000
 This molecule is a prolate symmetric top.
 Rotational symmetry number  1.
 Rotational temperature (Kelvin)      3.44706
 Rotational constant (GHZ):          71.825044
    3 imaginary frequencies ignored.
 Zero-point vibrational energy      24136.9 (Joules/Mol)
                                    5.76885 (Kcal/Mol)
 Vibrational temperatures:   5806.00
          (Kelvin)

 Zero-point correction=                           0.009193 (Hartree/Particle)
 Thermal correction to Energy=                    0.011554
 Thermal correction to Enthalpy=                  0.012498
 Thermal correction to Gibbs Free Energy=        -0.009974
 Sum of electronic and zero-point Energies=           -100.928228
 Sum of electronic and thermal Energies=              -100.925868
 Sum of electronic and thermal Enthalpies=            -100.924923
 Sum of electronic and thermal Free Energies=         -100.947395

                     E (Thermal)             CV                S
                      KCal/Mol        Cal/Mol-Kelvin    Cal/Mol-Kelvin
 Total                    7.250              4.968             47.296
 Electronic               0.000              0.000              1.377
 Translational            0.889              2.981             35.068
 Rotational               0.592              1.987             10.850
 Vibrational              5.769              0.000              0.000

 Normal termination of Gaussian 16 at Fri Aug 22 16:27:10 2025.
