 Gaussian 16, Revision C.01,
 Gaussian 16:  ES64L-G16RevC.01  3-Jul-2019

 -----------------------------------------
 # sp b3lyp/6-311g** Force nosymm scf=(qc)
 -----------------------------------------

 -------------------
 Title Card Required
 -------------------
 Symbolic Z-matrix:
 Charge =  0 Multiplicity = 2

                          Input orientation:
 ---------------------------------------------------------------------
 Center     Atomic      Atomic             Coordinates (Angstroms)
 Number     Number       Type             X           Y           Z
 ---------------------------------------------------------------------
      1          1           0        0.000000    0.000000    0.000000
      2          1           0       -3.500000    0.000000    0.000000
      3          9           0        1.850000    0.000000    0.000000
 ---------------------------------------------------------------------

 SCF Done:  E(UB3LYP) =  -100.799064747     a.u. after   19 cycles

 Alpha  occ. eigenvalues --  -24.64908  -1.07539  -0.38980  -0.36659  -0.36659
 Alpha  occ. eigenvalues --   -0.33574
 Alpha virt. eigenvalues --   -0.19618   0.19668   0.27360   0.92154   0.95033
 Alpha virt. eigenvalues --    0.95033   1.08018   1.23135   1.23135   1.23901
 Alpha virt. eigenvalues --    1.23901   1.23954   1.62105   2.11347   2.14882

  Beta  occ. eigenvalues --  -24.66950  -1.13186  -0.45789  -0.38657  -0.38657
  Beta virt. eigenvalues --   -0.14996  -0.05247   0.27266   0.39373   0.91517
  Beta virt. eigenvalues --    0.94873   0.94873   1.05796   1.34073   1.34073
  Beta virt. eigenvalues --    1.46873   1.46873   1.47057   1.67661   2.26628

 Mulliken charges and spin densities:
               1          2
     1  H    0.239951   0.643552
     2  H    0.001567   0.998487
     3  F   -0.241517  -0.642039
 Sum of Mulliken charges =   0.00000   1.00000

 Dipole moment (field-independent basis, Debye):
    X=             -2.2138    Y=             -0.0000    Z=              0.0000  Tot=              2.2138
 Quadrupole moment (field-independent basis, Debye-Ang):
   XX=            -10.2020   YY=             -7.4446   ZZ=             -7.4446
   XY=             -0.0000   XZ=              0.0000   YZ=             -0.0000

  Exact polarizability:      24.244       0.000       2.087      -0.000      -0.000       2.087
 Approx polarizability:      37.203      -0.000       1.975       0.000       0.000       1.975

 ******    1 imaginary frequencies (negative Signs) ******

                      1                      2                      3
                      A                      A                      A
 Frequencies --  -1402.4647                39.6644               604.4378
 Red. masses --      1.0587                 1.0529                 1.0272
 Frc consts  --      1.2269                 0.0010                 0.2211
 IR Inten    --    126.2979                 0.3297                53.5729

                      4
                      A
 Frequencies --    604.4378
 Red. masses --      1.0272
 Frc consts  --      0.2211
 IR Inten    --     53.5729

 - Thermochemistry -
 -------------------
 Temperature   298.150 Kelvin.  Pressure   1.00000 Atm.
 Atom     1 has atomic number  1 and mass   1.00783

 Molecular mass:    21.01405 amu.
 Principal axes and moments of inertia in atomic units:
                           1         2         3
     Eigenvalues --     0.00000 106.38229 106.38229
           X            1.00000  -0.00000   0.00000
           Y            0.00000   1.00000   0.00000
           Z            0.00000   0.00000   1.00000
 This molecule is a prolate symmetric top.
 Rotational symmetry number  1.
 Rotational temperature (Kelvin)      0.81418
 Rotational constant (GHZ):          16.964678
    1 imaginary frequencies ignored.
 Zero-point vibrational energy       7467.9 (Joules/Mol)
                                    1.78488 (Kcal/Mol)
 Warning -- explicit consideration of   3 degrees of freedom as
           vibrations may cause significant error
 Vibrational temperatures:     57.07   869.65   869.65
          (Kelvin)

 Zero-point correction=                           0.002844 (Hartree/Particle)
 Thermal correction to Energy=                    0.006377
 Thermal correction to Enthalpy=                  0.007321
 Thermal correction to Gibbs Free Energy=        -0.019440
 Sum of electronic and zero-point Energies=           -100.796220
 Sum of electronic and thermal Energies=              -100.792688
 Sum of electronic and thermal Enthalpies=            -100.791744
 Sum of electronic and thermal Free Energies=         -100.818505

                     E (Thermal)             CV                S
                      KCal/Mol        Cal/Mol-Kelvin    Cal/Mol-Kelvin
 Total                    4.001              8.994             56.323
 Electronic               0.000              0.000              1.377
 Translational            0.889              2.981             35.068
 Rotational               0.592              1.987             13.718
 Vibrational              2.520              4.026              6.160
 Vibration     1          0.594              1.981              5.276
 Vibration     2          0.963              1.022              0.442
 Vibration     3          0.963              1.022              0.442

 Normal termination of Gaussian 16 at Fri Aug 22 16:48:14 2025.
