 Gaussian 16, Revision C.01,
 Gaussian 16:  ES64L-G16RevC.01  3-Jul-2019

 -----------------------------------------
 # sp b3lyp/6-311g** Force nosymm scf=(qc)
 -----------------------------------------

 -------------------
 Title Card Required
 -------------------
 Symbolic Z-matrix:
 Charge =  0 Multiplicity = 2

                          Input orientation:
 ---------------------------------------------------------------------
 Center     Atomic      Atomic             Coordinates (Angstroms)
 Number     Number       Type             X           Y           Z
 ---------------------------------------------------------------------
      1          1           0        0.000000    0.000000    0.000000
      2          1           0       -1.700000    0.000000    0.000000
      3          9           0        1.250000    0.000000    0.000000
 ---------------------------------------------------------------------

 SCF Done:  E(UB3LYP) =  -100.918923842     a.u. after    8 cycles

 Alpha  occ. eigenvalues --  -24.63445  -1.11219  -0.47836  -0.37462  -0.36590
 Alpha  occ. eigenvalues --   -0.36590
 Alpha virt. eigenvalues --   -0.02651   0.21949   0.28598   0.93719   0.93719
 Alpha virt. eigenvalues --    1.01674   1.05576   1.18052   1.18052   1.37232
 Alpha virt. eigenvalues --    1.37232   1.51113   1.75640   2.17855   2.35392

  Beta  occ. eigenvalues --  -24.63042  -1.10194  -0.45618  -0.36220  -0.36220
  Beta virt. eigenvalues --   -0.17561   0.00925   0.26568   0.31927   0.93745
  Beta virt. eigenvalues --    0.93745   1.02758   1.13150   1.29792   1.29792
  Beta virt. eigenvalues --    1.41000   1.41000   1.55775   1.81052   2.26966

 Mulliken charges and spin densities:
               1          2
     1  H    0.317484  -0.038365
     2  H    0.047210   0.917965
     3  F   -0.364694   0.120401
 Sum of Mulliken charges =  -0.00000   1.00000

 Dipole moment (field-independent basis, Debye):
    X=             -2.7819    Y=              0.0000    Z=              0.0000  Tot=              2.7819
 Quadrupole moment (field-independent basis, Debye-Ang):
   XX=             -8.1573   YY=             -7.0757   ZZ=             -7.0757
   XY=              0.0000   XZ=              0.0000   YZ=              0.0000

  Exact polarizability:      19.829      -0.000       2.388      -0.000      -0.000       2.388
 Approx polarizability:      25.158      -0.000       2.352      -0.000      -0.000       2.352

 ******    1 imaginary frequencies (negative Signs) ******

                      1                      2                      3
                      A                      A                      A
 Frequencies --  -1331.4805               361.0667              1127.6030
 Red. masses --      1.0176                 1.0970                 1.0221
 Frc consts  --      1.0629                 0.0843                 0.7657
 IR Inten    --    155.2770                23.6106                79.9379

                      4
                      A
 Frequencies --   1127.6030
 Red. masses --      1.0221
 Frc consts  --      0.7657
 IR Inten    --     79.9379

 - Thermochemistry -
 -------------------
 Temperature   298.150 Kelvin.  Pressure   1.00000 Atm.
 Atom     1 has atomic number  1 and mass   1.00783

 Molecular mass:    21.01405 amu.
 Principal axes and moments of inertia in atomic units:
                           1         2         3
     Eigenvalues --     0.00000  33.89904  33.89904
           X            1.00000  -0.00000   0.00000
           Y            0.00000   1.00000   0.00000
           Z            0.00000   0.00000   1.00000
 This molecule is a prolate symmetric top.
 Rotational symmetry number  1.
 Rotational temperature (Kelvin)      2.55506
 Rotational constant (GHZ):          53.238716
    1 imaginary frequencies ignored.
 Zero-point vibrational energy      15648.8 (Joules/Mol)
                                    3.74015 (Kcal/Mol)
 Warning -- explicit consideration of   1 degrees of freedom as
           vibrations may cause significant error
 Vibrational temperatures:    519.49  1622.37  1622.37
          (Kelvin)

 Zero-point correction=                           0.005960 (Hartree/Particle)
 Thermal correction to Energy=                    0.008715
 Thermal correction to Enthalpy=                  0.009659
 Thermal correction to Gibbs Free Energy=        -0.013679
 Sum of electronic and zero-point Energies=           -100.912964
 Sum of electronic and thermal Energies=              -100.910209
 Sum of electronic and thermal Enthalpies=            -100.909265
 Sum of electronic and thermal Free Energies=         -100.932603

                     E (Thermal)             CV                S
                      KCal/Mol        Cal/Mol-Kelvin    Cal/Mol-Kelvin
 Total                    5.469              7.035             49.120
 Electronic               0.000              0.000              1.377
 Translational            0.889              2.981             35.068
 Rotational               0.592              1.987             11.445
 Vibrational              3.987              2.067              1.229
 Vibration     1          0.735              1.552              1.118

 Normal termination of Gaussian 16 at Fri Aug 22 16:12:23 2025.
