 Gaussian 16, Revision C.01,
 Gaussian 16:  ES64L-G16RevC.01  3-Jul-2019

 -----------------------------------------
 # sp b3lyp/6-311g** Force nosymm scf=(qc)
 -----------------------------------------

 -------------------
 Title Card Required
 -------------------
 Symbolic Z-matrix:
 Charge =  0 Multiplicity = 2

                          Input orientation:
 ---------------------------------------------------------------------
 Center     Atomic      Atomic             Coordinates (Angstroms)
 Number     Number       Type             X           Y           Z
 ---------------------------------------------------------------------
      1          1           0        0.000000    0.000000    0.000000
      2          1           0       -3.950000    0.000000    0.000000
      3          9           0        3.350000    0.000000    0.000000
 ---------------------------------------------------------------------

 SCF Done:  E(UB3LYP) =  -100.759232715     a.u. after   28 cycles

 Alpha  occ. eigenvalues --  -24.75085  -1.21071  -0.54207  -0.45513  -0.45513
 Alpha  occ. eigenvalues --   -0.32330
 Alpha virt. eigenvalues --   -0.06599   0.24067   0.36945   0.88083   0.91668
 Alpha virt. eigenvalues --    0.91668   1.02263   1.25165   1.25165   1.25189
 Alpha virt. eigenvalues --    1.46051   1.46051   1.46403   2.14509   2.42126

  Beta  occ. eigenvalues --  -24.71990  -1.12184  -0.42412  -0.42412  -0.33018
  Beta virt. eigenvalues --   -0.25324  -0.05883   0.23791   0.38172   0.93151
  Beta virt. eigenvalues --    0.93151   0.97112   1.06203   1.24376   1.24376
  Beta virt. eigenvalues --    1.24400   1.46646   1.46755   1.46755   2.14720

 Mulliken charges and spin densities:
               1          2
     1  H    0.017134  -0.980460
     2  H    0.000074   0.999303
     3  F   -0.017208   0.981157
 Sum of Mulliken charges =  -0.00000   1.00000

 Dipole moment (field-independent basis, Debye):
    X=             -0.2977    Y=              0.0000    Z=             -0.0000  Tot=              0.2977
 Quadrupole moment (field-independent basis, Debye-Ang):
   XX=             -7.6719   YY=             -7.6151   ZZ=             -7.6151
   XY=              0.0000   XZ=             -0.0000   YZ=              0.0000

  Exact polarizability:      26.312       0.000       2.033      -0.000       0.000       2.033
 Approx polarizability:      22.455       0.000       1.932      -0.000      -0.000       1.932

 ******    2 imaginary frequencies (negative Signs) ******

                      1                      2                      3
                      A                      A                      A
 Frequencies --   -252.6428               -71.5985                76.2559
 Red. masses --      1.0490                 1.0626                 1.0201
 Frc consts  --      0.0394                 0.0032                 0.0035
 IR Inten    --     18.2081                 0.1632                 0.2746

                      4
                      A
 Frequencies --     76.2559
 Red. masses --      1.0201
 Frc consts  --      0.0035
 IR Inten    --      0.2746

 - Thermochemistry -
 -------------------
 Temperature   298.150 Kelvin.  Pressure   1.00000 Atm.
 Atom     1 has atomic number  1 and mass   1.00783

 Molecular mass:    21.01405 amu.
 Principal axes and moments of inertia in atomic units:
                           1         2         3
     Eigenvalues --     0.00000 212.60353 212.60353
           X            1.00000  -0.00000   0.00000
           Y            0.00000   1.00000   0.00000
           Z            0.00000   0.00000   1.00000
 This molecule is a prolate symmetric top.
 Rotational symmetry number  1.
 Rotational temperature (Kelvin)      0.40740
 Rotational constant (GHZ):           8.488764
    2 imaginary frequencies ignored.
 Zero-point vibrational energy        912.2 (Joules/Mol)
                                    0.21803 (Kcal/Mol)
 Warning -- explicit consideration of   2 degrees of freedom as
           vibrations may cause significant error
 Vibrational temperatures:    109.72   109.72
          (Kelvin)

 Zero-point correction=                           0.000347 (Hartree/Particle)
 Thermal correction to Energy=                    0.004270
 Thermal correction to Enthalpy=                  0.005214
 Thermal correction to Gibbs Free Energy=        -0.023061
 Sum of electronic and zero-point Energies=           -100.758885
 Sum of electronic and thermal Energies=              -100.754963
 Sum of electronic and thermal Enthalpies=            -100.754018
 Sum of electronic and thermal Free Energies=         -100.782293

                     E (Thermal)             CV                S
                      KCal/Mol        Cal/Mol-Kelvin    Cal/Mol-Kelvin
 Total                    2.680              8.898             59.509
 Electronic               0.000              0.000              1.377
 Translational            0.889              2.981             35.068
 Rotational               0.592              1.987             15.094
 Vibrational              1.198              3.930              7.970
 Vibration     1          0.599              1.965              3.985
 Vibration     2          0.599              1.965              3.985

 Normal termination of Gaussian 16 at Fri Aug 22 21:03:45 2025.
