 Gaussian 16, Revision C.01,
 Gaussian 16:  ES64L-G16RevC.01  3-Jul-2019

 -----------------------------------------
 # sp b3lyp/6-311g** Force nosymm scf=(qc)
 -----------------------------------------

 -------------------
 Title Card Required
 -------------------
 Symbolic Z-matrix:
 Charge =  0 Multiplicity = 2

                          Input orientation:
 ---------------------------------------------------------------------
 Center     Atomic      Atomic             Coordinates (Angstroms)
 Number     Number       Type             X           Y           Z
 ---------------------------------------------------------------------
      1          1           0        0.000000    0.000000    0.000000
      2          1           0       -1.900000    0.000000    0.000000
      3          9           0        2.700000    0.000000    0.000000
 ---------------------------------------------------------------------

 SCF Done:  E(UB3LYP) =  -100.783726881     a.u. after   22 cycles

 Alpha  occ. eigenvalues --  -24.73147  -1.19265  -0.52265  -0.43881  -0.43881
 Alpha  occ. eigenvalues --   -0.34501
 Alpha virt. eigenvalues --   -0.12336   0.25016   0.31494   0.90248   0.92832
 Alpha virt. eigenvalues --    0.92832   1.05218   1.14693   1.23375   1.23375
 Alpha virt. eigenvalues --    1.35601   1.35601   1.53998   2.12078   2.37288

  Beta  occ. eigenvalues --  -24.70195  -1.10829  -0.40932  -0.40932  -0.34555
  Beta virt. eigenvalues --   -0.24371  -0.11612   0.26311   0.31487   0.94260
  Beta virt. eigenvalues --    0.94260   0.98151   1.08302   1.16283   1.23340
  Beta virt. eigenvalues --    1.23340   1.36680   1.36680   1.54764   2.13141

 Mulliken charges and spin densities:
               1          2
     1  H    0.031515  -0.748165
     2  H    0.025832   0.814091
     3  F   -0.057346   0.934074
 Sum of Mulliken charges =   0.00000   1.00000

 Dipole moment (field-independent basis, Debye):
    X=             -1.0263    Y=             -0.0000    Z=              0.0000  Tot=              1.0263
 Quadrupole moment (field-independent basis, Debye-Ang):
   XX=             -7.6512   YY=             -7.6981   ZZ=             -7.6981
   XY=             -0.0000   XZ=              0.0000   YZ=              0.0000

  Exact polarizability:      62.525      -0.000       2.006       0.000      -0.000       2.006
 Approx polarizability:      66.016       0.000       1.938      -0.000      -0.000       1.938

 ******    2 imaginary frequencies (negative Signs) ******

                      1                      2                      3
                      A                      A                      A
 Frequencies --  -1560.2134              -321.0911               648.3958
 Red. masses --      1.0082                 1.1080                 1.0142
 Frc consts  --      1.4461                 0.0673                 0.2512
 IR Inten    --     87.2681                44.0485                 0.3679

                      4
                      A
 Frequencies --    648.3958
 Red. masses --      1.0142
 Frc consts  --      0.2512
 IR Inten    --      0.3679

 - Thermochemistry -
 -------------------
 Temperature   298.150 Kelvin.  Pressure   1.00000 Atm.
 Atom     1 has atomic number  1 and mass   1.00783

 Molecular mass:    21.01405 amu.
 Principal axes and moments of inertia in atomic units:
                           1         2         3
     Eigenvalues --     0.00000  93.19357  93.19357
           X            1.00000  -0.00000   0.00000
           Y            0.00000   1.00000   0.00000
           Z            0.00000   0.00000   1.00000
 This molecule is a prolate symmetric top.
 Rotational symmetry number  1.
 Rotational temperature (Kelvin)      0.92940
 Rotational constant (GHZ):          19.365512
    2 imaginary frequencies ignored.
 Zero-point vibrational energy       7756.5 (Joules/Mol)
                                    1.85386 (Kcal/Mol)
 Vibrational temperatures:    932.90   932.90
          (Kelvin)

 Zero-point correction=                           0.002954 (Hartree/Particle)
 Thermal correction to Energy=                    0.005585
 Thermal correction to Enthalpy=                  0.006529
 Thermal correction to Gibbs Free Energy=        -0.017535
 Sum of electronic and zero-point Energies=           -100.780773
 Sum of electronic and thermal Energies=              -100.778142
 Sum of electronic and thermal Enthalpies=            -100.777198
 Sum of electronic and thermal Free Energies=         -100.801262

                     E (Thermal)             CV                S
                      KCal/Mol        Cal/Mol-Kelvin    Cal/Mol-Kelvin
 Total                    3.505              6.830             50.647
 Electronic               0.000              0.000              1.377
 Translational            0.889              2.981             35.068
 Rotational               0.592              1.987             13.455
 Vibrational              2.024              1.862              0.747

 Normal termination of Gaussian 16 at Fri Aug 22 18:25:16 2025.
