 Gaussian 16, Revision C.01,
 Gaussian 16:  ES64L-G16RevC.01  3-Jul-2019

 -----------------------------------------
 # sp b3lyp/6-311g** Force nosymm scf=(qc)
 -----------------------------------------

 -------------------
 Title Card Required
 -------------------
 Symbolic Z-matrix:
 Charge =  0 Multiplicity = 2

                          Input orientation:
 ---------------------------------------------------------------------
 Center     Atomic      Atomic             Coordinates (Angstroms)
 Number     Number       Type             X           Y           Z
 ---------------------------------------------------------------------
      1          1           0        0.000000    0.000000    0.000000
      2          1           0       -1.500000    0.000000    0.000000
      3          9           0        1.700000    0.000000    0.000000
 ---------------------------------------------------------------------

 SCF Done:  E(UB3LYP) =  -100.854093809     a.u. after   12 cycles

 Alpha  occ. eigenvalues --  -24.66919  -1.13425  -0.47383  -0.38835  -0.38765
 Alpha  occ. eigenvalues --   -0.38765
 Alpha virt. eigenvalues --   -0.09041   0.21466   0.29874   0.89936   0.93760
 Alpha virt. eigenvalues --    0.93760   1.03312   1.15619   1.15619   1.39547
 Alpha virt. eigenvalues --    1.39547   1.40065   1.87128   2.19322   2.43067

  Beta  occ. eigenvalues --  -24.64872  -1.07793  -0.39575  -0.36768  -0.36768
  Beta virt. eigenvalues --   -0.22583  -0.06433   0.24153   0.30225   0.93860
  Beta virt. eigenvalues --    0.94125   0.94125   1.07165   1.19971   1.19971
  Beta virt. eigenvalues --    1.40520   1.40520   1.45197   1.90029   2.20736

 Mulliken charges and spin densities:
               1          2
     1  H    0.170249  -0.311442
     2  H    0.071849   0.672537
     3  F   -0.242098   0.638905
 Sum of Mulliken charges =  -0.00000   1.00000

 Dipole moment (field-independent basis, Debye):
    X=             -2.5282    Y=             -0.0000    Z=             -0.0000  Tot=              2.5282
 Quadrupole moment (field-independent basis, Debye-Ang):
   XX=             -8.0559   YY=             -7.3725   ZZ=             -7.3725
   XY=             -0.0000   XZ=             -0.0000   YZ=             -0.0000

  Exact polarizability:      43.606      -0.000       2.212      -0.000       0.000       2.212
 Approx polarizability:      65.878       0.000       2.149       0.000       0.000       2.149

 ******    2 imaginary frequencies (negative Signs) ******

                      1                      2                      3
                      A                      A                      A
 Frequencies --  -2432.8976              -528.6548              1053.2881
 Red. masses --      1.0188                 1.0956                 1.0165
 Frc consts  --      3.5529                 0.1804                 0.6644
 IR Inten    --    654.2099                 0.1535                11.2768

                      4
                      A
 Frequencies --   1053.2881
 Red. masses --      1.0165
 Frc consts  --      0.6644
 IR Inten    --     11.2768

 - Thermochemistry -
 -------------------
 Temperature   298.150 Kelvin.  Pressure   1.00000 Atm.
 Atom     1 has atomic number  1 and mass   1.00783

 Molecular mass:    21.01405 amu.
 Principal axes and moments of inertia in atomic units:
                           1         2         3
     Eigenvalues --     0.00000  43.11069  43.11069
           X            1.00000  -0.00000   0.00000
           Y            0.00000   1.00000   0.00000
           Z            0.00000   0.00000   1.00000
 This molecule is a prolate symmetric top.
 Rotational symmetry number  1.
 Rotational temperature (Kelvin)      2.00911
 Rotational constant (GHZ):          41.862963
    2 imaginary frequencies ignored.
 Zero-point vibrational energy      12600.1 (Joules/Mol)
                                    3.01150 (Kcal/Mol)
 Vibrational temperatures:   1515.45  1515.45
          (Kelvin)

 Zero-point correction=                           0.004799 (Hartree/Particle)
 Thermal correction to Energy=                    0.007219
 Thermal correction to Enthalpy=                  0.008164
 Thermal correction to Gibbs Free Energy=        -0.014889
 Sum of electronic and zero-point Energies=           -100.849295
 Sum of electronic and thermal Energies=              -100.846874
 Sum of electronic and thermal Enthalpies=            -100.845930
 Sum of electronic and thermal Free Energies=         -100.868983

                     E (Thermal)             CV                S
                      KCal/Mol        Cal/Mol-Kelvin    Cal/Mol-Kelvin
 Total                    4.530              5.613             48.519
 Electronic               0.000              0.000              1.377
 Translational            0.889              2.981             35.068
 Rotational               0.592              1.987             11.923
 Vibrational              3.049              0.645              0.151

 Normal termination of Gaussian 16 at Fri Aug 22 16:36:59 2025.
