 Gaussian 16, Revision C.01,
 Gaussian 16:  ES64L-G16RevC.01  3-Jul-2019

 -----------------------------------------
 # sp b3lyp/6-311g** Force nosymm scf=(qc)
 -----------------------------------------

 -------------------
 Title Card Required
 -------------------
 Symbolic Z-matrix:
 Charge =  0 Multiplicity = 2

                          Input orientation:
 ---------------------------------------------------------------------
 Center     Atomic      Atomic             Coordinates (Angstroms)
 Number     Number       Type             X           Y           Z
 ---------------------------------------------------------------------
      1          1           0        0.000000    0.000000    0.000000
      2          1           0       -1.700000    0.000000    0.000000
      3          9           0        3.950000    0.000000    0.000000
 ---------------------------------------------------------------------

 SCF Done:  E(UB3LYP) =  -100.794731131     a.u. after   83 cycles

 Alpha  occ. eigenvalues --  -24.76181  -1.22087  -0.55291  -0.46462  -0.46448
 Alpha  occ. eigenvalues --   -0.33075
 Alpha virt. eigenvalues --   -0.10564   0.25735   0.31014   0.86070   0.90948
 Alpha virt. eigenvalues --    0.91282   1.00883   1.07637   1.23841   1.23842
 Alpha virt. eigenvalues --    1.38282   1.38284   1.67632   2.16891   2.41359

  Beta  occ. eigenvalues --  -24.73027  -1.13015  -0.43301  -0.43285  -0.33067
  Beta virt. eigenvalues --   -0.25943  -0.10592   0.25728   0.31026   0.92449
  Beta virt. eigenvalues --    0.92756   0.95538   1.05026   1.07632   1.23838
  Beta virt. eigenvalues --    1.23841   1.38272   1.38273   1.67641   2.16982

 Mulliken charges and spin densities:
               1          2
     1  H    0.000857  -0.612236
     2  H   -0.001554   0.612228
     3  F    0.000697   1.000008
 Sum of Mulliken charges =   0.00000   1.00000

 Dipole moment (field-independent basis, Debye):
    X=              0.0207    Y=             -0.0000    Z=             -0.0000  Tot=              0.0207
 Quadrupole moment (field-independent basis, Debye-Ang):
   XX=             -6.6148   YY=             -7.6010   ZZ=             -7.0700
   XY=             -0.0000   XZ=             -0.0001   YZ=              0.3412

  Exact polarizability:      23.726      -0.000       2.108      -0.000       0.183       2.393
 Approx polarizability:      37.716      -0.000       2.092      -0.000       0.230       2.450

 ******    2 imaginary frequencies (negative Signs) ******

                      1                      2                      3
                      A                      A                      A
 Frequencies --  -1906.5714               -51.8621               909.0513
 Red. masses --      1.0078                 1.1085                 1.0109
 Frc consts  --      2.1584                 0.0018                 0.4922
 IR Inten    --      0.0063                 0.0306                 0.0014

                      4
                      A
 Frequencies --    909.6337
 Red. masses --      1.0109
 Frc consts  --      0.4928
 IR Inten    --      0.0007

 - Thermochemistry -
 -------------------
 Temperature   298.150 Kelvin.  Pressure   1.00000 Atm.
 Atom     1 has atomic number  1 and mass   1.00783

 Molecular mass:    21.01405 amu.
 Principal axes and moments of inertia in atomic units:
                           1         2         3
     Eigenvalues --     0.00000 155.13543 155.13543
           X            1.00000  -0.00000   0.00000
           Y            0.00000   1.00000   0.00000
           Z            0.00000   0.00000   1.00000
 This molecule is a prolate symmetric top.
 Rotational symmetry number  1.
 Rotational temperature (Kelvin)      0.55831
 Rotational constant (GHZ):          11.633327
    2 imaginary frequencies ignored.
 Zero-point vibrational energy      10878.2 (Joules/Mol)
                                    2.59994 (Kcal/Mol)
 Vibrational temperatures:   1307.92  1308.76
          (Kelvin)

 Zero-point correction=                           0.004143 (Hartree/Particle)
 Thermal correction to Energy=                    0.006608
 Thermal correction to Enthalpy=                  0.007552
 Thermal correction to Gibbs Free Energy=        -0.016766
 Sum of electronic and zero-point Energies=           -100.790588
 Sum of electronic and thermal Energies=              -100.788123
 Sum of electronic and thermal Enthalpies=            -100.787179
 Sum of electronic and thermal Free Energies=         -100.811497

                     E (Thermal)             CV                S
                      KCal/Mol        Cal/Mol-Kelvin    Cal/Mol-Kelvin
 Total                    4.147              5.943             51.182
 Electronic               0.000              0.000              1.377
 Translational            0.889              2.981             35.068
 Rotational               0.592              1.987             14.468
 Vibrational              2.665              0.975              0.269

 Normal termination of Gaussian 16 at Sat Aug 23 01:35:23 2025.
