 Gaussian 16, Revision C.01,
 Gaussian 16:  ES64L-G16RevC.01  3-Jul-2019

 -----------------------------------------
 # sp b3lyp/6-311g** Force nosymm scf=(qc)
 -----------------------------------------

 -------------------
 Title Card Required
 -------------------
 Symbolic Z-matrix:
 Charge =  0 Multiplicity = 2

                          Input orientation:
 ---------------------------------------------------------------------
 Center     Atomic      Atomic             Coordinates (Angstroms)
 Number     Number       Type             X           Y           Z
 ---------------------------------------------------------------------
      1          1           0        0.000000    0.000000    0.000000
      2          1           0       -2.250000    0.000000    0.000000
      3          9           0        2.150000    0.000000    0.000000
 ---------------------------------------------------------------------

 SCF Done:  E(UB3LYP) =  -100.785774223     a.u. after   18 cycles

 Alpha  occ. eigenvalues --  -24.69297  -1.15607  -0.48351  -0.40641  -0.40641
 Alpha  occ. eigenvalues --   -0.35154
 Alpha virt. eigenvalues --   -0.13458   0.24397   0.31689   0.88882   0.94719
 Alpha virt. eigenvalues --    0.94719   1.06150   1.22631   1.22631   1.27343
 Alpha virt. eigenvalues --    1.35042   1.35042   1.52470   2.12267   2.30167

  Beta  occ. eigenvalues --  -24.66724  -1.08361  -0.38093  -0.38093  -0.36749
  Beta virt. eigenvalues --   -0.21828  -0.10892   0.25957   0.33359   0.92548
  Beta virt. eigenvalues --    0.95743   0.95743   1.08877   1.22196   1.22196
  Beta virt. eigenvalues --    1.38996   1.38996   1.41517   1.45850   2.12305

 Mulliken charges and spin densities:
               1          2
     1  H    0.126459  -0.750527
     2  H    0.026549   0.940568
     3  F   -0.153008   0.809959
 Sum of Mulliken charges =  -0.00000   1.00000

 Dipole moment (field-independent basis, Debye):
    X=             -1.9321    Y=              0.0000    Z=              0.0000  Tot=              1.9321
 Quadrupole moment (field-independent basis, Debye-Ang):
   XX=             -8.9782   YY=             -7.5731   ZZ=             -7.5731
   XY=              0.0000   XZ=              0.0000   YZ=             -0.0000

  Exact polarizability:      46.453       0.000       2.036       0.000       0.000       2.036
 Approx polarizability:      52.575      -0.000       1.936      -0.000       0.000       1.936

 ******    2 imaginary frequencies (negative Signs) ******

                      1                      2                      3
                      A                      A                      A
 Frequencies --  -1189.1219              -475.0493               491.4457
 Red. masses --      1.0236                 1.0901                 1.0185
 Frc consts  --      0.8527                 0.1449                 0.1449
 IR Inten    --     73.0730                35.3110                11.8114

                      4
                      A
 Frequencies --    491.4457
 Red. masses --      1.0185
 Frc consts  --      0.1449
 IR Inten    --     11.8114

 - Thermochemistry -
 -------------------
 Temperature   298.150 Kelvin.  Pressure   1.00000 Atm.
 Atom     1 has atomic number  1 and mass   1.00783

 Molecular mass:    21.01405 amu.
 Principal axes and moments of inertia in atomic units:
                           1         2         3
     Eigenvalues --     0.00000  78.90795  78.90795
           X            1.00000  -0.00000   0.00000
           Y            0.00000   1.00000   0.00000
           Z            0.00000   0.00000   1.00000
 This molecule is a prolate symmetric top.
 Rotational symmetry number  1.
 Rotational temperature (Kelvin)      1.09766
 Rotational constant (GHZ):          22.871474
    2 imaginary frequencies ignored.
 Zero-point vibrational energy       5879.0 (Joules/Mol)
                                    1.40511 (Kcal/Mol)
 Warning -- explicit consideration of   2 degrees of freedom as
           vibrations may cause significant error
 Vibrational temperatures:    707.08   707.08
          (Kelvin)

 Zero-point correction=                           0.002239 (Hartree/Particle)
 Thermal correction to Energy=                    0.005061
 Thermal correction to Enthalpy=                  0.006005
 Thermal correction to Gibbs Free Energy=        -0.018193
 Sum of electronic and zero-point Energies=           -100.783535
 Sum of electronic and thermal Energies=              -100.780714
 Sum of electronic and thermal Enthalpies=            -100.779769
 Sum of electronic and thermal Free Energies=         -100.803968

                     E (Thermal)             CV                S
                      KCal/Mol        Cal/Mol-Kelvin    Cal/Mol-Kelvin
 Total                    3.176              7.506             50.929
 Electronic               0.000              0.000              1.377
 Translational            0.889              2.981             35.068
 Rotational               0.592              1.987             13.124
 Vibrational              1.694              2.538              1.360
 Vibration     1          0.847              1.269              0.680
 Vibration     2          0.847              1.269              0.680

 Normal termination of Gaussian 16 at Fri Aug 22 17:07:53 2025.
