 Gaussian 16, Revision C.01,
 Gaussian 16:  ES64L-G16RevC.01  3-Jul-2019

 -----------------------------------------
 # sp b3lyp/6-311g** Force nosymm scf=(qc)
 -----------------------------------------

 -------------------
 Title Card Required
 -------------------
 Symbolic Z-matrix:
 Charge =  0 Multiplicity = 2

                          Input orientation:
 ---------------------------------------------------------------------
 Center     Atomic      Atomic             Coordinates (Angstroms)
 Number     Number       Type             X           Y           Z
 ---------------------------------------------------------------------
      1          1           0        0.000000    0.000000    0.000000
      2          1           0       -1.500000    0.000000    0.000000
      3          9           0        2.900000    0.000000    0.000000
 ---------------------------------------------------------------------

 SCF Done:  E(UB3LYP) =  -100.820983879     a.u. after   25 cycles

 Alpha  occ. eigenvalues --  -24.75107  -1.21096  -0.54248  -0.45550  -0.45550
 Alpha  occ. eigenvalues --   -0.34726
 Alpha virt. eigenvalues --   -0.10353   0.24313   0.30312   0.89691   0.91595
 Alpha virt. eigenvalues --    0.91595   1.04585   1.06983   1.19267   1.19267
 Alpha virt. eigenvalues --    1.40670   1.40670   1.81328   2.21425   2.46920

  Beta  occ. eigenvalues --  -24.72033  -1.12275  -0.42472  -0.42472  -0.34495
  Beta virt. eigenvalues --   -0.25631  -0.10023   0.24728   0.30633   0.93063
  Beta virt. eigenvalues --    0.93063   0.98245   1.06740   1.09337   1.19518
  Beta virt. eigenvalues --    1.19518   1.40890   1.40890   1.81704   2.22029

 Mulliken charges and spin densities:
               1          2
     1  H    0.000071  -0.249835
     2  H    0.020900   0.276135
     3  F   -0.020971   0.973700
 Sum of Mulliken charges =   0.00000   1.00000

 Dipole moment (field-independent basis, Debye):
    X=             -0.4581    Y=              0.0000    Z=              0.0000  Tot=              0.4581
 Quadrupole moment (field-independent basis, Debye-Ang):
   XX=             -6.1959   YY=             -7.7218   ZZ=             -7.7218
   XY=              0.0000   XZ=              0.0000   YZ=              0.0000

  Exact polarizability:      51.858      -0.000       2.022      -0.000      -0.000       2.022
 Approx polarizability:      67.951       0.000       2.031       0.000      -0.000       2.031

 ******    2 imaginary frequencies (negative Signs) ******

                      1                      2                      3
                      A                      A                      A
 Frequencies --  -2029.0123              -194.7759              1183.1295
 Red. masses --      1.0080                 1.1083                 1.0119
 Frc consts  --      2.4450                 0.0248                 0.8346
 IR Inten    --    362.5073                16.8321                 0.0825

                      4
                      A
 Frequencies --   1183.1295
 Red. masses --      1.0119
 Frc consts  --      0.8346
 IR Inten    --      0.0825

 - Thermochemistry -
 -------------------
 Temperature   298.150 Kelvin.  Pressure   1.00000 Atm.
 Atom     1 has atomic number  1 and mass   1.00783

 Molecular mass:    21.01405 amu.
 Principal axes and moments of inertia in atomic units:
                           1         2         3
     Eigenvalues --     0.00000  90.74624  90.74624
           X            1.00000  -0.00000   0.00000
           Y            0.00000   1.00000   0.00000
           Z            0.00000   0.00000   1.00000
 This molecule is a prolate symmetric top.
 Rotational symmetry number  1.
 Rotational temperature (Kelvin)      0.95446
 Rotational constant (GHZ):          19.887778
    2 imaginary frequencies ignored.
 Zero-point vibrational energy      14153.4 (Joules/Mol)
                                    3.38274 (Kcal/Mol)
 Vibrational temperatures:   1702.26  1702.26
          (Kelvin)

 Zero-point correction=                           0.005391 (Hartree/Particle)
 Thermal correction to Energy=                    0.007787
 Thermal correction to Enthalpy=                  0.008731
 Thermal correction to Gibbs Free Energy=        -0.014995
 Sum of electronic and zero-point Energies=           -100.815593
 Sum of electronic and thermal Energies=              -100.813197
 Sum of electronic and thermal Enthalpies=            -100.812253
 Sum of electronic and thermal Free Energies=         -100.835979

                     E (Thermal)             CV                S
                      KCal/Mol        Cal/Mol-Kelvin    Cal/Mol-Kelvin
 Total                    4.886              5.400             49.936
 Electronic               0.000              0.000              1.377
 Translational            0.889              2.981             35.068
 Rotational               0.592              1.987             13.402
 Vibrational              3.405              0.432              0.089

 Normal termination of Gaussian 16 at Fri Aug 22 19:02:12 2025.
