 Gaussian 16, Revision C.01,
 Gaussian 16:  ES64L-G16RevC.01  3-Jul-2019

 -----------------------------------------
 # sp b3lyp/6-311g** Force nosymm scf=(qc)
 -----------------------------------------

 -------------------
 Title Card Required
 -------------------
 Symbolic Z-matrix:
 Charge =  0 Multiplicity = 2

                          Input orientation:
 ---------------------------------------------------------------------
 Center     Atomic      Atomic             Coordinates (Angstroms)
 Number     Number       Type             X           Y           Z
 ---------------------------------------------------------------------
      1          1           0        0.000000    0.000000    0.000000
      2          1           0       -0.700000    0.000000    0.000000
      3          9           0        1.600000    0.000000    0.000000
 ---------------------------------------------------------------------

 SCF Done:  E(UB3LYP) =  -100.934074621     a.u. after    7 cycles

 Alpha  occ. eigenvalues --  -24.72454  -1.19178  -0.55983  -0.44243  -0.43662
 Alpha  occ. eigenvalues --   -0.43662
 Alpha virt. eigenvalues --    0.09488   0.19949   0.44973   0.89081   0.89081
 Alpha virt. eigenvalues --    0.96811   1.08592   1.08592   1.25839   1.69482
 Alpha virt. eigenvalues --    1.84613   1.84613   1.90665   2.44634   3.33009

  Beta  occ. eigenvalues --  -24.69650  -1.11382  -0.47819  -0.40912  -0.40912
  Beta virt. eigenvalues --   -0.24036   0.10551   0.20751   0.46727   0.90281
  Beta virt. eigenvalues --    0.90281   1.03492   1.10317   1.10317   1.29460
  Beta virt. eigenvalues --    1.71970   1.85542   1.85542   1.91555   2.46592

 Mulliken charges and spin densities:
               1          2
     1  H    0.090516  -0.037869
     2  H    0.018593   0.179841
     3  F   -0.109109   0.858028
 Sum of Mulliken charges =   0.00000   1.00000

 Dipole moment (field-independent basis, Debye):
    X=             -0.8999    Y=             -0.0000    Z=             -0.0000  Tot=              0.8999
 Quadrupole moment (field-independent basis, Debye-Ang):
   XX=             -6.6156   YY=             -6.7629   ZZ=             -6.7629
   XY=             -0.0000   XZ=             -0.0000   YZ=              0.0000

  Exact polarizability:      18.540       0.000       2.232       0.000      -0.000       2.232
 Approx polarizability:      22.558      -0.000       2.281       0.000      -0.000       2.281

 ******    3 imaginary frequencies (negative Signs) ******

                      1                      2                      3
                      A                      A                      A
 Frequencies --  -1458.2776             -1458.2776              -136.7310
 Red. masses --      1.0110                 1.0110                 1.1084
 Frc consts  --      1.2667                 1.2667                 0.0122
 IR Inten    --      0.0767                 0.0767                71.5258

                      4
                      A
 Frequencies --   4883.2764
 Red. masses --      1.0079
 Frc consts  --     14.1612
 IR Inten    --    569.6702

 - Thermochemistry -
 -------------------
 Temperature   298.150 Kelvin.  Pressure   1.00000 Atm.
 Atom     1 has atomic number  1 and mass   1.00783

 Molecular mass:    21.01405 amu.
 Principal axes and moments of inertia in atomic units:
                           1         2         3
     Eigenvalues --     0.00000  25.62687  25.62687
           X            1.00000  -0.00000   0.00000
           Y            0.00000   1.00000   0.00000
           Z            0.00000   0.00000   1.00000
 This molecule is a prolate symmetric top.
 Rotational symmetry number  1.
 Rotational temperature (Kelvin)      3.37981
 Rotational constant (GHZ):          70.423797
    3 imaginary frequencies ignored.
 Zero-point vibrational energy      29208.5 (Joules/Mol)
                                    6.98099 (Kcal/Mol)
 Vibrational temperatures:   7025.95
          (Kelvin)

 Zero-point correction=                           0.011125 (Hartree/Particle)
 Thermal correction to Energy=                    0.013485
 Thermal correction to Enthalpy=                  0.014430
 Thermal correction to Gibbs Free Energy=        -0.008061
 Sum of electronic and zero-point Energies=           -100.922950
 Sum of electronic and thermal Energies=              -100.920589
 Sum of electronic and thermal Enthalpies=            -100.919645
 Sum of electronic and thermal Free Energies=         -100.942135

                     E (Thermal)             CV                S
                      KCal/Mol        Cal/Mol-Kelvin    Cal/Mol-Kelvin
 Total                    8.462              4.968             47.335
 Electronic               0.000              0.000              1.377
 Translational            0.889              2.981             35.068
 Rotational               0.592              1.987             10.889
 Vibrational              6.981              0.000              0.000

 Normal termination of Gaussian 16 at Fri Aug 22 16:30:00 2025.
