 Gaussian 16, Revision C.01,
 Gaussian 16:  ES64L-G16RevC.01  3-Jul-2019

 -----------------------------------------
 # sp b3lyp/6-311g** Force nosymm scf=(qc)
 -----------------------------------------

 -------------------
 Title Card Required
 -------------------
 Symbolic Z-matrix:
 Charge =  0 Multiplicity = 2

                          Input orientation:
 ---------------------------------------------------------------------
 Center     Atomic      Atomic             Coordinates (Angstroms)
 Number     Number       Type             X           Y           Z
 ---------------------------------------------------------------------
      1          1           0        0.000000    0.000000    0.000000
      2          1           0       -2.250000    0.000000    0.000000
      3          9           0        2.600000    0.000000    0.000000
 ---------------------------------------------------------------------

 SCF Done:  E(UB3LYP) =  -100.772921061     a.u. after   18 cycles

 Alpha  occ. eigenvalues --  -24.72357  -1.18526  -0.51462  -0.43216  -0.43216
 Alpha  occ. eigenvalues --   -0.34055
 Alpha virt. eigenvalues --   -0.12191   0.25073   0.32702   0.90325   0.93299
 Alpha virt. eigenvalues --    0.93299   1.06242   1.23740   1.23740   1.25524
 Alpha virt. eigenvalues --    1.36850   1.36850   1.42896   2.13153   2.33760

  Beta  occ. eigenvalues --  -24.69462  -1.10269  -0.40326  -0.40326  -0.34893
  Beta virt. eigenvalues --   -0.23798  -0.10578   0.26217   0.33543   0.94700
  Beta virt. eigenvalues --    0.94700   0.97986   1.09560   1.22835   1.22835
  Beta virt. eigenvalues --    1.26753   1.39503   1.39503   1.44179   2.13717

 Mulliken charges and spin densities:
               1          2
     1  H    0.057254  -0.854103
     2  H    0.016883   0.938650
     3  F   -0.074137   0.915453
 Sum of Mulliken charges =  -0.00000   1.00000

 Dipole moment (field-independent basis, Debye):
    X=             -1.1654    Y=              0.0000    Z=             -0.0000  Tot=              1.1654
 Quadrupole moment (field-independent basis, Debye-Ang):
   XX=             -8.3857   YY=             -7.6458   ZZ=             -7.6458
   XY=              0.0000   XZ=             -0.0000   YZ=             -0.0000

  Exact polarizability:      52.177       0.000       2.009      -0.000       0.000       2.009
 Approx polarizability:      52.530       0.000       1.919      -0.000       0.000       1.919

 ******    2 imaginary frequencies (negative Signs) ******

                      1                      2                      3
                      A                      A                      A
 Frequencies --  -1017.4713              -350.3261               398.1640
 Red. masses --      1.0108                 1.1050                 1.0163
 Frc consts  --      0.6165                 0.0799                 0.0949
 IR Inten    --     41.0206                39.3546                 2.2881

                      4
                      A
 Frequencies --    398.1640
 Red. masses --      1.0163
 Frc consts  --      0.0949
 IR Inten    --      2.2881

 - Thermochemistry -
 -------------------
 Temperature   298.150 Kelvin.  Pressure   1.00000 Atm.
 Atom     1 has atomic number  1 and mass   1.00783

 Molecular mass:    21.01405 amu.
 Principal axes and moments of inertia in atomic units:
                           1         2         3
     Eigenvalues --     0.00000  99.40686  99.40686
           X            1.00000  -0.00000   0.00000
           Y            0.00000   1.00000   0.00000
           Z            0.00000   0.00000   1.00000
 This molecule is a prolate symmetric top.
 Rotational symmetry number  1.
 Rotational temperature (Kelvin)      0.87131
 Rotational constant (GHZ):          18.155097
    2 imaginary frequencies ignored.
 Zero-point vibrational energy       4763.1 (Joules/Mol)
                                    1.13841 (Kcal/Mol)
 Warning -- explicit consideration of   2 degrees of freedom as
           vibrations may cause significant error
 Vibrational temperatures:    572.87   572.87
          (Kelvin)

 Zero-point correction=                           0.001814 (Hartree/Particle)
 Thermal correction to Energy=                    0.004797
 Thermal correction to Enthalpy=                  0.005741
 Thermal correction to Gibbs Free Energy=        -0.018950
 Sum of electronic and zero-point Energies=           -100.771107
 Sum of electronic and thermal Energies=              -100.768124
 Sum of electronic and thermal Enthalpies=            -100.767180
 Sum of electronic and thermal Free Energies=         -100.791871

                     E (Thermal)             CV                S
                      KCal/Mol        Cal/Mol-Kelvin    Cal/Mol-Kelvin
 Total                    3.010              7.916             51.968
 Electronic               0.000              0.000              1.377
 Translational            0.889              2.981             35.068
 Rotational               0.592              1.987             13.583
 Vibrational              1.529              2.948              1.939
 Vibration     1          0.764              1.474              0.969
 Vibration     2          0.764              1.474              0.969

 Normal termination of Gaussian 16 at Fri Aug 22 18:03:59 2025.
