 Gaussian 16, Revision C.01,
 Gaussian 16:  ES64L-G16RevC.01  3-Jul-2019

 -----------------------------------------
 # sp b3lyp/6-311g** Force nosymm scf=(qc)
 -----------------------------------------

 -------------------
 Title Card Required
 -------------------
 Symbolic Z-matrix:
 Charge =  0 Multiplicity = 2

                          Input orientation:
 ---------------------------------------------------------------------
 Center     Atomic      Atomic             Coordinates (Angstroms)
 Number     Number       Type             X           Y           Z
 ---------------------------------------------------------------------
      1          1           0        0.000000    0.000000    0.000000
      2          1           0       -2.450000    0.000000    0.000000
      3          9           0        1.950000    0.000000    0.000000
 ---------------------------------------------------------------------

 SCF Done:  E(UB3LYP) =  -100.794669260     a.u. after   12 cycles

 Alpha  occ. eigenvalues --  -24.67684  -1.13992  -0.46656  -0.39279  -0.39279
 Alpha  occ. eigenvalues --   -0.35128
 Alpha virt. eigenvalues --   -0.14038   0.23912   0.30475   0.90282   0.95009
 Alpha virt. eigenvalues --    0.95009   1.06193   1.22536   1.22536   1.25862
 Alpha virt. eigenvalues --    1.34554   1.34554   1.62683   2.13326   2.28183

  Beta  occ. eigenvalues --  -24.65402  -1.07633  -0.38003  -0.37035  -0.37035
  Beta virt. eigenvalues --   -0.20525  -0.10090   0.24834   0.34404   0.92178
  Beta virt. eigenvalues --    0.95527   0.95527   1.08711   1.22726   1.22726
  Beta virt. eigenvalues --    1.40729   1.40729   1.42524   1.56946   2.13144

 Mulliken charges and spin densities:
               1          2
     1  H    0.186368  -0.683073
     2  H    0.020684   0.965735
     3  F   -0.207052   0.717338
 Sum of Mulliken charges =   0.00000   1.00000

 Dipole moment (field-independent basis, Debye):
    X=             -2.2333    Y=              0.0000    Z=              0.0000  Tot=              2.2333
 Quadrupole moment (field-independent basis, Debye-Ang):
   XX=             -9.3858   YY=             -7.5119   ZZ=             -7.5119
   XY=             -0.0000   XZ=             -0.0000   YZ=              0.0000

  Exact polarizability:      37.781      -0.000       2.067      -0.000       0.000       2.067
 Approx polarizability:      46.138      -0.000       1.960      -0.000      -0.000       1.960

 ******    2 imaginary frequencies (negative Signs) ******

                      1                      2                      3
                      A                      A                      A
 Frequencies --  -1304.7188              -414.5071               547.8384
 Red. masses --      1.0432                 1.0687                 1.0209
 Frc consts  --      1.0463                 0.1082                 0.1805
 IR Inten    --     94.5978                16.4935                28.1280

                      4
                      A
 Frequencies --    547.8384
 Red. masses --      1.0209
 Frc consts  --      0.1805
 IR Inten    --     28.1280

 - Thermochemistry -
 -------------------
 Temperature   298.150 Kelvin.  Pressure   1.00000 Atm.
 Atom     1 has atomic number  1 and mass   1.00783

 Molecular mass:    21.01405 amu.
 Principal axes and moments of inertia in atomic units:
                           1         2         3
     Eigenvalues --     0.00000  76.40209  76.40209
           X            1.00000  -0.00000   0.00000
           Y            0.00000   1.00000   0.00000
           Z            0.00000   0.00000   1.00000
 This molecule is a prolate symmetric top.
 Rotational symmetry number  1.
 Rotational temperature (Kelvin)      1.13366
 Rotational constant (GHZ):          23.621620
    2 imaginary frequencies ignored.
 Zero-point vibrational energy       6553.6 (Joules/Mol)
                                    1.56635 (Kcal/Mol)
 Warning -- explicit consideration of   2 degrees of freedom as
           vibrations may cause significant error
 Vibrational temperatures:    788.22   788.22
          (Kelvin)

 Zero-point correction=                           0.002496 (Hartree/Particle)
 Thermal correction to Energy=                    0.005239
 Thermal correction to Enthalpy=                  0.006183
 Thermal correction to Gibbs Free Energy=        -0.017860
 Sum of electronic and zero-point Energies=           -100.792173
 Sum of electronic and thermal Energies=              -100.789431
 Sum of electronic and thermal Enthalpies=            -100.788486
 Sum of electronic and thermal Free Energies=         -100.812529

                     E (Thermal)             CV                S
                      KCal/Mol        Cal/Mol-Kelvin    Cal/Mol-Kelvin
 Total                    3.287              7.257             50.603
 Electronic               0.000              0.000              1.377
 Translational            0.889              2.981             35.068
 Rotational               0.592              1.987             13.060
 Vibrational              1.806              2.289              1.097
 Vibration     1          0.903              1.144              0.549
 Vibration     2          0.903              1.144              0.549

 Normal termination of Gaussian 16 at Fri Aug 22 16:53:41 2025.
