 Gaussian 16, Revision C.01,
 Gaussian 16:  ES64L-G16RevC.01  3-Jul-2019

 -----------------------------------------
 # sp b3lyp/6-311g** Force nosymm scf=(qc)
 -----------------------------------------

 -------------------
 Title Card Required
 -------------------
 Symbolic Z-matrix:
 Charge =  0 Multiplicity = 2

                          Input orientation:
 ---------------------------------------------------------------------
 Center     Atomic      Atomic             Coordinates (Angstroms)
 Number     Number       Type             X           Y           Z
 ---------------------------------------------------------------------
      1          1           0        0.000000    0.000000    0.000000
      2          1           0       -3.300000    0.000000    0.000000
      3          9           0        1.550000    0.000000    0.000000
 ---------------------------------------------------------------------

 SCF Done:  E(UB3LYP) =  -100.844089955     a.u. after    7 cycles

 Alpha  occ. eigenvalues --  -24.64410  -1.09698  -0.42847  -0.36390  -0.36390
 Alpha  occ. eigenvalues --   -0.34235
 Alpha virt. eigenvalues --   -0.15353   0.20512   0.27847   0.93856   0.93856
 Alpha virt. eigenvalues --    1.02541   1.07880   1.23280   1.23280   1.23438
 Alpha virt. eigenvalues --    1.30931   1.30931   1.73719   2.13597   2.18552

  Beta  occ. eigenvalues --  -24.64180  -1.09087  -0.42339  -0.36171  -0.36171
  Beta virt. eigenvalues --   -0.16107  -0.07111   0.23082   0.37818   0.93753
  Beta virt. eigenvalues --    0.93753   1.02970   1.07815   1.29707   1.29707
  Beta virt. eigenvalues --    1.45168   1.45635   1.45635   1.73185   2.16621

 Mulliken charges and spin densities:
               1          2
     1  H    0.341859  -0.069133
     2  H    0.003372   0.996376
     3  F   -0.345231   0.072757
 Sum of Mulliken charges =  -0.00000   1.00000

 Dipole moment (field-independent basis, Debye):
    X=             -2.6768    Y=             -0.0000    Z=             -0.0000  Tot=              2.6768
 Quadrupole moment (field-independent basis, Debye-Ang):
   XX=             -9.9873   YY=             -7.3493   ZZ=             -7.3493
   XY=             -0.0000   XZ=             -0.0000   YZ=              0.0000

  Exact polarizability:      18.107       0.000       2.166      -0.000      -0.000       2.166
 Approx polarizability:      33.387      -0.000       2.087       0.000      -0.000       2.087

 ******    2 imaginary frequencies (negative Signs) ******

                      1                      2                      3
                      A                      A                      A
 Frequencies --  -1492.6208              -111.0967               971.5475
 Red. masses --      1.0563                 1.0552                 1.0291
 Frc consts  --      1.3866                 0.0077                 0.5723
 IR Inten    --      7.0567                 0.4274               110.5270

                      4
                      A
 Frequencies --    971.5475
 Red. masses --      1.0291
 Frc consts  --      0.5723
 IR Inten    --    110.5270

 - Thermochemistry -
 -------------------
 Temperature   298.150 Kelvin.  Pressure   1.00000 Atm.
 Atom     1 has atomic number  1 and mass   1.00783

 Molecular mass:    21.01405 amu.
 Principal axes and moments of inertia in atomic units:
                           1         2         3
     Eigenvalues --     0.00000  86.23432  86.23432
           X            1.00000  -0.00000   0.00000
           Y            0.00000   1.00000   0.00000
           Z            0.00000   0.00000   1.00000
 This molecule is a prolate symmetric top.
 Rotational symmetry number  1.
 Rotational temperature (Kelvin)      1.00440
 Rotational constant (GHZ):          20.928341
    2 imaginary frequencies ignored.
 Zero-point vibrational energy      11622.3 (Joules/Mol)
                                    2.77779 (Kcal/Mol)
 Vibrational temperatures:   1397.84  1397.84
          (Kelvin)

 Zero-point correction=                           0.004427 (Hartree/Particle)
 Thermal correction to Energy=                    0.006869
 Thermal correction to Enthalpy=                  0.007814
 Thermal correction to Gibbs Free Energy=        -0.015922
 Sum of electronic and zero-point Energies=           -100.839663
 Sum of electronic and thermal Energies=              -100.837221
 Sum of electronic and thermal Enthalpies=            -100.836276
 Sum of electronic and thermal Free Energies=         -100.860012

                     E (Thermal)             CV                S
                      KCal/Mol        Cal/Mol-Kelvin    Cal/Mol-Kelvin
 Total                    4.311              5.787             49.956
 Electronic               0.000              0.000              1.377
 Translational            0.889              2.981             35.068
 Rotational               0.592              1.987             13.301
 Vibrational              2.829              0.819              0.210

 Normal termination of Gaussian 16 at Fri Aug 22 16:29:19 2025.
