 Gaussian 16, Revision C.01,
 Gaussian 16:  ES64L-G16RevC.01  3-Jul-2019

 -----------------------------------------
 # sp b3lyp/6-311g** Force nosymm scf=(qc)
 -----------------------------------------

 -------------------
 Title Card Required
 -------------------
 Symbolic Z-matrix:
 Charge =  0 Multiplicity = 2

                          Input orientation:
 ---------------------------------------------------------------------
 Center     Atomic      Atomic             Coordinates (Angstroms)
 Number     Number       Type             X           Y           Z
 ---------------------------------------------------------------------
      1          1           0        0.000000    0.000000    0.000000
      2          1           0       -2.900000    0.000000    0.000000
      3          9           0        2.750000    0.000000    0.000000
 ---------------------------------------------------------------------

 SCF Done:  E(UB3LYP) =  -100.764545358     a.u. after   20 cycles

 Alpha  occ. eigenvalues --  -24.73074  -1.19204  -0.52188  -0.43826  -0.43826
 Alpha  occ. eigenvalues --   -0.32997
 Alpha virt. eigenvalues --   -0.10067   0.24583   0.34524   0.90087   0.92875
 Alpha virt. eigenvalues --    0.92875   1.05457   1.24556   1.24556   1.25694
 Alpha virt. eigenvalues --    1.41100   1.41100   1.42429   2.15382   2.37149

  Beta  occ. eigenvalues --  -24.70121  -1.10764  -0.40875  -0.40875  -0.34460
  Beta virt. eigenvalues --   -0.24188  -0.08024   0.24936   0.36326   0.94308
  Beta virt. eigenvalues --    0.94308   0.98250   1.08910   1.22915   1.22915
  Beta virt. eigenvalues --    1.25477   1.44156   1.44156   1.44317   2.15355

 Mulliken charges and spin densities:
               1          2
     1  H    0.055728  -0.925041
     2  H    0.002994   0.990383
     3  F   -0.058722   0.934658
 Sum of Mulliken charges =  -0.00000   1.00000

 Dipole moment (field-independent basis, Debye):
    X=             -0.8685    Y=              0.0000    Z=             -0.0000  Tot=              0.8685
 Quadrupole moment (field-independent basis, Debye-Ang):
   XX=             -8.6502   YY=             -7.6112   ZZ=             -7.6112
   XY=              0.0000   XZ=             -0.0000   YZ=              0.0000

  Exact polarizability:      36.774       0.000       2.019      -0.000       0.000       2.019
 Approx polarizability:      39.598       0.000       1.920      -0.000      -0.000       1.920

 ******    2 imaginary frequencies (negative Signs) ******

                      1                      2                      3
                      A                      A                      A
 Frequencies --   -551.1642              -223.9150               209.2308
 Red. masses --      1.0312                 1.0815                 1.0186
 Frc consts  --      0.1846                 0.0319                 0.0263
 IR Inten    --     52.1428                 6.7539                 2.7685

                      4
                      A
 Frequencies --    209.2308
 Red. masses --      1.0186
 Frc consts  --      0.0263
 IR Inten    --      2.7685

 - Thermochemistry -
 -------------------
 Temperature   298.150 Kelvin.  Pressure   1.00000 Atm.
 Atom     1 has atomic number  1 and mass   1.00783

 Molecular mass:    21.01405 amu.
 Principal axes and moments of inertia in atomic units:
                           1         2         3
     Eigenvalues --     0.00000 129.92771 129.92771
           X            1.00000  -0.00000   0.00000
           Y            0.00000   1.00000   0.00000
           Z            0.00000   0.00000   1.00000
 This molecule is a prolate symmetric top.
 Rotational symmetry number  1.
 Rotational temperature (Kelvin)      0.66663
 Rotational constant (GHZ):          13.890349
    2 imaginary frequencies ignored.
 Zero-point vibrational energy       2503.0 (Joules/Mol)
                                    0.59822 (Kcal/Mol)
 Warning -- explicit consideration of   2 degrees of freedom as
           vibrations may cause significant error
 Vibrational temperatures:    301.04   301.04
          (Kelvin)

 Zero-point correction=                           0.000953 (Hartree/Particle)
 Thermal correction to Energy=                    0.004407
 Thermal correction to Enthalpy=                  0.005351
 Thermal correction to Gibbs Free Energy=        -0.020621
 Sum of electronic and zero-point Energies=           -100.763592
 Sum of electronic and thermal Energies=              -100.760139
 Sum of electronic and thermal Enthalpies=            -100.759195
 Sum of electronic and thermal Free Energies=         -100.785166

                     E (Thermal)             CV                S
                      KCal/Mol        Cal/Mol-Kelvin    Cal/Mol-Kelvin
 Total                    2.765              8.621             54.662
 Electronic               0.000              0.000              1.377
 Translational            0.889              2.981             35.068
 Rotational               0.592              1.987             14.115
 Vibrational              1.284              3.653              4.101
 Vibration     1          0.642              1.827              2.050
 Vibration     2          0.642              1.827              2.050

 Normal termination of Gaussian 16 at Fri Aug 22 18:34:34 2025.
