 Gaussian 16, Revision C.01,
 Gaussian 16:  ES64L-G16RevC.01  3-Jul-2019

 -----------------------------------------
 # sp b3lyp/6-311g** Force nosymm scf=(qc)
 -----------------------------------------

 -------------------
 Title Card Required
 -------------------
 Symbolic Z-matrix:
 Charge =  0 Multiplicity = 2

                          Input orientation:
 ---------------------------------------------------------------------
 Center     Atomic      Atomic             Coordinates (Angstroms)
 Number     Number       Type             X           Y           Z
 ---------------------------------------------------------------------
      1          1           0        0.000000    0.000000    0.000000
      2          1           0       -0.800000    0.000000    0.000000
      3          9           0        0.600000    0.000000    0.000000
 ---------------------------------------------------------------------

 SCF Done:  E(UB3LYP) =  -100.588449296     a.u. after    7 cycles

 Alpha  occ. eigenvalues --  -24.66792  -1.41692  -0.69050  -0.46892  -0.46892
 Alpha  occ. eigenvalues --   -0.30755
 Alpha virt. eigenvalues --    0.16790   0.19580   0.83344   0.85637   0.85637
 Alpha virt. eigenvalues --    0.93192   1.10175   1.10175   1.45900   1.64537
 Alpha virt. eigenvalues --    1.86549   1.86549   2.24158   2.70017   3.74059

  Beta  occ. eigenvalues --  -24.66204  -1.39734  -0.66375  -0.46413  -0.46413
  Beta virt. eigenvalues --   -0.10699   0.17428   0.25938   0.85623   0.87187
  Beta virt. eigenvalues --    0.87187   0.97242   1.16786   1.16786   1.47649
  Beta virt. eigenvalues --    1.70566   1.92324   1.92324   2.34190   2.79417

 Mulliken charges and spin densities:
               1          2
     1  H    0.263915  -0.035782
     2  H   -0.088014   0.973071
     3  F   -0.175901   0.062711
 Sum of Mulliken charges =   0.00000   1.00000

 Dipole moment (field-independent basis, Debye):
    X=             -0.6695    Y=             -0.0000    Z=              0.0000  Tot=              0.6695
 Quadrupole moment (field-independent basis, Debye-Ang):
   XX=             -7.4346   YY=             -6.4136   ZZ=             -6.4136
   XY=             -0.0000   XZ=              0.0000   YZ=             -0.0000

  Exact polarizability:       7.293      -0.000       2.478       0.000       0.000       2.478
 Approx polarizability:       7.063       0.000       2.563       0.000       0.000       2.563

 ******    2 imaginary frequencies (negative Signs) ******

                      1                      2                      3
                      A                      A                      A
 Frequencies --  -5915.1044             -5915.1044              3283.7262
 Red. masses --      1.0218                 1.0218                 1.0573
 Frc consts  --     21.0636                21.0636                 6.7168
 IR Inten    --    148.3059               148.3059               215.6583

                      4
                      A
 Frequencies --  13167.0353
 Red. masses --      1.0543
 Frc consts  --    107.6933
 IR Inten    --     31.2213

 - Thermochemistry -
 -------------------
 Temperature   298.150 Kelvin.  Pressure   1.00000 Atm.
 Atom     1 has atomic number  1 and mass   1.00783

 Molecular mass:    21.01405 amu.
 Principal axes and moments of inertia in atomic units:
                           1         2         3
     Eigenvalues --     0.00000   7.65927   7.65927
           X            1.00000  -0.00000   0.00000
           Y            0.00000   1.00000   0.00000
           Z            0.00000   0.00000   1.00000
 This molecule is a prolate symmetric top.
 Rotational symmetry number  1.
 Rotational temperature (Kelvin)     11.30838
 Rotational constant (GHZ):         235.628290
    2 imaginary frequencies ignored.
 Zero-point vibrational energy      98397.4 (Joules/Mol)
                                   23.51754 (Kcal/Mol)
 Vibrational temperatures:   4724.55 18944.43
          (Kelvin)

 Zero-point correction=                           0.037478 (Hartree/Particle)
 Thermal correction to Energy=                    0.039838
 Thermal correction to Enthalpy=                  0.040782
 Thermal correction to Gibbs Free Energy=         0.019432
 Sum of electronic and zero-point Energies=           -100.550972
 Sum of electronic and thermal Energies=              -100.548611
 Sum of electronic and thermal Enthalpies=            -100.547667
 Sum of electronic and thermal Free Energies=         -100.569017

                     E (Thermal)             CV                S
                      KCal/Mol        Cal/Mol-Kelvin    Cal/Mol-Kelvin
 Total                   24.999              4.968             44.935
 Electronic               0.000              0.000              1.377
 Translational            0.889              2.981             35.068
 Rotational               0.592              1.987              8.489
 Vibrational             23.518              0.000              0.000

 Normal termination of Gaussian 16 at Fri Aug 22 15:40:51 2025.
