 Gaussian 16, Revision C.01,
 Gaussian 16:  ES64L-G16RevC.01  3-Jul-2019

 -----------------------------------------
 # sp b3lyp/6-311g** Force nosymm scf=(qc)
 -----------------------------------------

 -------------------
 Title Card Required
 -------------------
 Symbolic Z-matrix:
 Charge =  0 Multiplicity = 2

                          Input orientation:
 ---------------------------------------------------------------------
 Center     Atomic      Atomic             Coordinates (Angstroms)
 Number     Number       Type             X           Y           Z
 ---------------------------------------------------------------------
      1          1           0        0.000000    0.000000    0.000000
      2          1           0       -2.000000    0.000000    0.000000
      3          9           0        2.350000    0.000000    0.000000
 ---------------------------------------------------------------------

 SCF Done:  E(UB3LYP) =  -100.785569793     a.u. after   15 cycles

 Alpha  occ. eigenvalues --  -24.70897  -1.17146  -0.49997  -0.41985  -0.41985
 Alpha  occ. eigenvalues --   -0.35267
 Alpha virt. eigenvalues --   -0.13045   0.24572   0.31909   0.89092   0.94061
 Alpha virt. eigenvalues --    0.94061   1.05477   1.22661   1.22661   1.23440
 Alpha virt. eigenvalues --    1.34695   1.34695   1.50362   2.11038   2.33871

  Beta  occ. eigenvalues --  -24.68138  -1.09316  -0.39240  -0.39240  -0.35720
  Beta virt. eigenvalues --   -0.23029  -0.11702   0.26602   0.31901   0.94677
  Beta virt. eigenvalues --    0.95347   0.95347   1.08449   1.22606   1.22606
  Beta virt. eigenvalues --    1.28424   1.36767   1.36767   1.50127   2.11607

 Mulliken charges and spin densities:
               1          2
     1  H    0.075125  -0.742880
     2  H    0.033775   0.872117
     3  F   -0.108900   0.870763
 Sum of Mulliken charges =  -0.00000   1.00000

 Dipole moment (field-independent basis, Debye):
    X=             -1.6198    Y=             -0.0000    Z=             -0.0000  Tot=              1.6198
 Quadrupole moment (field-independent basis, Debye-Ang):
   XX=             -8.3645   YY=             -7.6351   ZZ=             -7.6351
   XY=             -0.0000   XZ=             -0.0000   YZ=             -0.0000

  Exact polarizability:      57.033      -0.000       2.017      -0.000      -0.000       2.017
 Approx polarizability:      63.505       0.000       1.934       0.000      -0.000       1.934

 ******    2 imaginary frequencies (negative Signs) ******

                      1                      2                      3
                      A                      A                      A
 Frequencies --  -1418.3671              -446.2374               577.4109
 Red. masses --      1.0105                 1.1052                 1.0161
 Frc consts  --      1.1978                 0.1297                 0.1996
 IR Inten    --     87.8366                51.4992                 3.1962

                      4
                      A
 Frequencies --    577.4109
 Red. masses --      1.0161
 Frc consts  --      0.1996
 IR Inten    --      3.1962

 - Thermochemistry -
 -------------------
 Temperature   298.150 Kelvin.  Pressure   1.00000 Atm.
 Atom     1 has atomic number  1 and mass   1.00783

 Molecular mass:    21.01405 amu.
 Principal axes and moments of inertia in atomic units:
                           1         2         3
     Eigenvalues --     0.00000  80.22944  80.22944
           X            1.00000  -0.00000   0.00000
           Y            0.00000   1.00000   0.00000
           Z            0.00000   0.00000   1.00000
 This molecule is a prolate symmetric top.
 Rotational symmetry number  1.
 Rotational temperature (Kelvin)      1.07958
 Rotational constant (GHZ):          22.494750
    2 imaginary frequencies ignored.
 Zero-point vibrational energy       6907.4 (Joules/Mol)
                                    1.65090 (Kcal/Mol)
 Warning -- explicit consideration of   2 degrees of freedom as
           vibrations may cause significant error
 Vibrational temperatures:    830.77   830.77
          (Kelvin)

 Zero-point correction=                           0.002631 (Hartree/Particle)
 Thermal correction to Energy=                    0.005337
 Thermal correction to Enthalpy=                  0.006281
 Thermal correction to Gibbs Free Energy=        -0.017752
 Sum of electronic and zero-point Energies=           -100.782939
 Sum of electronic and thermal Energies=              -100.780233
 Sum of electronic and thermal Enthalpies=            -100.779289
 Sum of electronic and thermal Free Energies=         -100.803322

                     E (Thermal)             CV                S
                      KCal/Mol        Cal/Mol-Kelvin    Cal/Mol-Kelvin
 Total                    3.349              7.128             50.583
 Electronic               0.000              0.000              1.377
 Translational            0.889              2.981             35.068
 Rotational               0.592              1.987             13.157
 Vibrational              1.868              2.160              0.980
 Vibration     1          0.934              1.080              0.490
 Vibration     2          0.934              1.080              0.490

 Normal termination of Gaussian 16 at Fri Aug 22 17:26:19 2025.
