 Gaussian 16, Revision C.01,
 Gaussian 16:  ES64L-G16RevC.01  3-Jul-2019

 -----------------------------------------
 # sp b3lyp/6-311g** Force nosymm scf=(qc)
 -----------------------------------------

 -------------------
 Title Card Required
 -------------------
 Symbolic Z-matrix:
 Charge =  0 Multiplicity = 2

                          Input orientation:
 ---------------------------------------------------------------------
 Center     Atomic      Atomic             Coordinates (Angstroms)
 Number     Number       Type             X           Y           Z
 ---------------------------------------------------------------------
      1          1           0        0.000000    0.000000    0.000000
      2          1           0       -1.400000    0.000000    0.000000
      3          9           0        1.200000    0.000000    0.000000
 ---------------------------------------------------------------------

 SCF Done:  E(UB3LYP) =  -100.934595649     a.u. after    7 cycles

 Alpha  occ. eigenvalues --  -24.63682  -1.12345  -0.50472  -0.37735  -0.37122
 Alpha  occ. eigenvalues --   -0.37122
 Alpha virt. eigenvalues --    0.02264   0.20190   0.30415   0.93136   0.93136
 Alpha virt. eigenvalues --    1.00828   1.11992   1.13202   1.13202   1.43917
 Alpha virt. eigenvalues --    1.43917   1.54735   1.96140   2.28531   2.41257

  Beta  occ. eigenvalues --  -24.62990  -1.10583  -0.46496  -0.36486  -0.36486
  Beta virt. eigenvalues --   -0.19455   0.05551   0.24091   0.33573   0.93446
  Beta virt. eigenvalues --    0.93446   1.02398   1.19114   1.21692   1.21692
  Beta virt. eigenvalues --    1.47973   1.47973   1.57303   2.05569   2.31210

 Mulliken charges and spin densities:
               1          2
     1  H    0.297395  -0.052108
     2  H    0.055836   0.849459
     3  F   -0.353231   0.202649
 Sum of Mulliken charges =   0.00000   1.00000

 Dipole moment (field-independent basis, Debye):
    X=             -2.6552    Y=              0.0000    Z=             -0.0000  Tot=              2.6552
 Quadrupole moment (field-independent basis, Debye-Ang):
   XX=             -7.9308   YY=             -6.9681   ZZ=             -6.9681
   XY=              0.0000   XZ=             -0.0000   YZ=             -0.0000

  Exact polarizability:      20.599      -0.000       2.461      -0.000       0.000       2.461
 Approx polarizability:      26.044       0.000       2.439      -0.000       0.000       2.439

 ******    1 imaginary frequencies (negative Signs) ******

                      1                      2                      3
                      A                      A                      A
 Frequencies --  -1791.7973               691.7168              1112.1510
 Red. masses --      1.0158                 1.0990                 1.0199
 Frc consts  --      1.9215                 0.3098                 0.7433
 IR Inten    --      8.1479                38.5038                60.5209

                      4
                      A
 Frequencies --   1112.1510
 Red. masses --      1.0199
 Frc consts  --      0.7433
 IR Inten    --     60.5209

 - Thermochemistry -
 -------------------
 Temperature   298.150 Kelvin.  Pressure   1.00000 Atm.
 Atom     1 has atomic number  1 and mass   1.00783

 Molecular mass:    21.01405 amu.
 Principal axes and moments of inertia in atomic units:
                           1         2         3
     Eigenvalues --     0.00000  27.01943  27.01943
           X            1.00000  -0.00000   0.00000
           Y            0.00000   1.00000   0.00000
           Z            0.00000   0.00000   1.00000
 This molecule is a prolate symmetric top.
 Rotational symmetry number  1.
 Rotational temperature (Kelvin)      3.20562
 Rotational constant (GHZ):          66.794209
    1 imaginary frequencies ignored.
 Zero-point vibrational energy      17441.7 (Joules/Mol)
                                    4.16866 (Kcal/Mol)
 Vibrational temperatures:    995.23  1600.14  1600.14
          (Kelvin)

 Zero-point correction=                           0.006643 (Hartree/Particle)
 Thermal correction to Energy=                    0.009167
 Thermal correction to Enthalpy=                  0.010111
 Thermal correction to Gibbs Free Energy=        -0.012635
 Sum of electronic and zero-point Energies=           -100.927952
 Sum of electronic and thermal Energies=              -100.925428
 Sum of electronic and thermal Enthalpies=            -100.924484
 Sum of electronic and thermal Free Energies=         -100.947231

                     E (Thermal)             CV                S
                      KCal/Mol        Cal/Mol-Kelvin    Cal/Mol-Kelvin
 Total                    5.753              6.353             47.875
 Electronic               0.000              0.000              1.377
 Translational            0.889              2.981             35.068
 Rotational               0.592              1.987             10.995
 Vibrational              4.271              1.385              0.435

 Normal termination of Gaussian 16 at Fri Aug 22 16:09:44 2025.
