 Gaussian 16, Revision C.01,
 Gaussian 16:  ES64L-G16RevC.01  3-Jul-2019

 -----------------------------------------
 # sp b3lyp/6-311g** Force nosymm scf=(qc)
 -----------------------------------------

 -------------------
 Title Card Required
 -------------------
 Symbolic Z-matrix:
 Charge =  0 Multiplicity = 2

                          Input orientation:
 ---------------------------------------------------------------------
 Center     Atomic      Atomic             Coordinates (Angstroms)
 Number     Number       Type             X           Y           Z
 ---------------------------------------------------------------------
      1          1           0        0.000000    0.000000    0.000000
      2          1           0       -2.400000    0.000000    0.000000
      3          9           0        2.450000    0.000000    0.000000
 ---------------------------------------------------------------------

 SCF Done:  E(UB3LYP) =  -100.773407060     a.u. after   24 cycles

 Alpha  occ. eigenvalues --  -24.71439  -1.17663  -0.50533  -0.42447  -0.42447
 Alpha  occ. eigenvalues --   -0.34070
 Alpha virt. eigenvalues --   -0.12326   0.24818   0.32858   0.89962   0.93792
 Alpha virt. eigenvalues --    0.93792   1.06646   1.23629   1.23629   1.26941
 Alpha virt. eigenvalues --    1.37101   1.37101   1.43607   2.14072   2.32667

  Beta  occ. eigenvalues --  -24.68625  -1.09661  -0.39644  -0.39644  -0.35475
  Beta virt. eigenvalues --   -0.23199  -0.10055   0.26003   0.34213   0.95133
  Beta virt. eigenvalues --    0.95133   0.96509   1.09399   1.22286   1.22286
  Beta virt. eigenvalues --    1.31692   1.40719   1.40719   1.43189   2.13829

 Mulliken charges and spin densities:
               1          2
     1  H    0.081698  -0.849649
     2  H    0.014573   0.960838
     3  F   -0.096270   0.888811
 Sum of Mulliken charges =  -0.00000   1.00000

 Dipole moment (field-independent basis, Debye):
    X=             -1.3650    Y=             -0.0000    Z=             -0.0000  Tot=              1.3650
 Quadrupole moment (field-independent basis, Debye-Ang):
   XX=             -8.7999   YY=             -7.6130   ZZ=             -7.6130
   XY=             -0.0000   XZ=             -0.0000   YZ=             -0.0000

  Exact polarizability:      46.079      -0.000       2.016      -0.000      -0.000       2.016
 Approx polarizability:      49.362      -0.000       1.919      -0.000       0.000       1.919

 ******    2 imaginary frequencies (negative Signs) ******

                      1                      2                      3
                      A                      A                      A
 Frequencies --   -906.5926              -370.4440               361.4984
 Red. masses --      1.0180                 1.0965                 1.0177
 Frc consts  --      0.4930                 0.0887                 0.0784
 IR Inten    --     52.6778                31.5092                 5.2384

                      4
                      A
 Frequencies --    361.4984
 Red. masses --      1.0177
 Frc consts  --      0.0784
 IR Inten    --      5.2384

 - Thermochemistry -
 -------------------
 Temperature   298.150 Kelvin.  Pressure   1.00000 Atm.
 Atom     1 has atomic number  1 and mass   1.00783

 Molecular mass:    21.01405 amu.
 Principal axes and moments of inertia in atomic units:
                           1         2         3
     Eigenvalues --     0.00000  97.06250  97.06250
           X            1.00000  -0.00000   0.00000
           Y            0.00000   1.00000   0.00000
           Z            0.00000   0.00000   1.00000
 This molecule is a prolate symmetric top.
 Rotational symmetry number  1.
 Rotational temperature (Kelvin)      0.89235
 Rotational constant (GHZ):          18.593598
    2 imaginary frequencies ignored.
 Zero-point vibrational energy       4324.5 (Joules/Mol)
                                    1.03358 (Kcal/Mol)
 Warning -- explicit consideration of   2 degrees of freedom as
           vibrations may cause significant error
 Vibrational temperatures:    520.12   520.12
          (Kelvin)

 Zero-point correction=                           0.001647 (Hartree/Particle)
 Thermal correction to Energy=                    0.004705
 Thermal correction to Enthalpy=                  0.005649
 Thermal correction to Gibbs Free Energy=        -0.019159
 Sum of electronic and zero-point Energies=           -100.771760
 Sum of electronic and thermal Energies=              -100.768702
 Sum of electronic and thermal Enthalpies=            -100.767758
 Sum of electronic and thermal Free Energies=         -100.792566

                     E (Thermal)             CV                S
                      KCal/Mol        Cal/Mol-Kelvin    Cal/Mol-Kelvin
 Total                    2.952              8.071             52.213
 Electronic               0.000              0.000              1.377
 Translational            0.889              2.981             35.068
 Rotational               0.592              1.987             13.536
 Vibrational              1.471              3.103              2.231
 Vibration     1          0.736              1.552              1.116
 Vibration     2          0.736              1.552              1.116

 Normal termination of Gaussian 16 at Fri Aug 22 17:38:43 2025.
