 Gaussian 16, Revision C.01,
 Gaussian 16:  ES64L-G16RevC.01  3-Jul-2019

 -----------------------------------------
 # sp b3lyp/6-311g** Force nosymm scf=(qc)
 -----------------------------------------

 -------------------
 Title Card Required
 -------------------
 Symbolic Z-matrix:
 Charge =  0 Multiplicity = 2

                          Input orientation:
 ---------------------------------------------------------------------
 Center     Atomic      Atomic             Coordinates (Angstroms)
 Number     Number       Type             X           Y           Z
 ---------------------------------------------------------------------
      1          1           0        0.000000    0.000000    0.000000
      2          1           0       -1.550000    0.000000    0.000000
      3          9           0        1.550000    0.000000    0.000000
 ---------------------------------------------------------------------

 SCF Done:  E(UB3LYP) =  -100.867234727     a.u. after   13 cycles

 Alpha  occ. eigenvalues --  -24.65148  -1.11721  -0.46682  -0.38581  -0.37332
 Alpha  occ. eigenvalues --   -0.37332
 Alpha virt. eigenvalues --   -0.08138   0.21208   0.28991   0.93770   0.93770
 Alpha virt. eigenvalues --    0.94089   1.03477   1.16013   1.16013   1.38847
 Alpha virt. eigenvalues --    1.38847   1.44566   1.83661   2.17160   2.40553

  Beta  occ. eigenvalues --  -24.63621  -1.07604  -0.40929  -0.35864  -0.35864
  Beta virt. eigenvalues --   -0.21710  -0.04950   0.24410   0.30021   0.93823
  Beta virt. eigenvalues --    0.93823   0.98578   1.06640   1.22581   1.22581
  Beta virt. eigenvalues --    1.40220   1.40220   1.50045   1.87043   2.20377

 Mulliken charges and spin densities:
               1          2
     1  H    0.232428  -0.248143
     2  H    0.071745   0.773291
     3  F   -0.304173   0.474852
 Sum of Mulliken charges =   0.00000   1.00000

 Dipole moment (field-independent basis, Debye):
    X=             -2.8473    Y=             -0.0000    Z=              0.0000  Tot=              2.8473
 Quadrupole moment (field-independent basis, Debye-Ang):
   XX=             -8.2501   YY=             -7.2790   ZZ=             -7.2790
   XY=             -0.0000   XZ=              0.0000   YZ=             -0.0000

  Exact polarizability:      37.489       0.000       2.265      -0.000      -0.000       2.265
 Approx polarizability:      54.208       0.000       2.202      -0.000       0.000       2.202

 ******    2 imaginary frequencies (negative Signs) ******

                      1                      2                      3
                      A                      A                      A
 Frequencies --  -2546.0976              -486.7052              1035.4425
 Red. masses --      1.0234                 1.0903                 1.0179
 Frc consts  --      3.9088                 0.1522                 0.6430
 IR Inten    --    325.3529                 2.3576                26.3395

                      4
                      A
 Frequencies --   1035.4425
 Red. masses --      1.0179
 Frc consts  --      0.6430
 IR Inten    --     26.3395

 - Thermochemistry -
 -------------------
 Temperature   298.150 Kelvin.  Pressure   1.00000 Atm.
 Atom     1 has atomic number  1 and mass   1.00783

 Molecular mass:    21.01405 amu.
 Principal axes and moments of inertia in atomic units:
                           1         2         3
     Eigenvalues --     0.00000  39.50090  39.50090
           X            1.00000  -0.00000   0.00000
           Y            0.00000   1.00000   0.00000
           Z            0.00000   0.00000   1.00000
 This molecule is a prolate symmetric top.
 Rotational symmetry number  1.
 Rotational temperature (Kelvin)      2.19271
 Rotational constant (GHZ):          45.688613
    2 imaginary frequencies ignored.
 Zero-point vibrational energy      12386.6 (Joules/Mol)
                                    2.96048 (Kcal/Mol)
 Vibrational temperatures:   1489.77  1489.77
          (Kelvin)

 Zero-point correction=                           0.004718 (Hartree/Particle)
 Thermal correction to Energy=                    0.007143
 Thermal correction to Enthalpy=                  0.008087
 Thermal correction to Gibbs Free Energy=        -0.014889
 Sum of electronic and zero-point Energies=           -100.862517
 Sum of electronic and thermal Energies=              -100.860092
 Sum of electronic and thermal Enthalpies=            -100.859148
 Sum of electronic and thermal Free Energies=         -100.882124

                     E (Thermal)             CV                S
                      KCal/Mol        Cal/Mol-Kelvin    Cal/Mol-Kelvin
 Total                    4.482              5.648             48.357
 Electronic               0.000              0.000              1.377
 Translational            0.889              2.981             35.068
 Rotational               0.592              1.987             11.749
 Vibrational              3.001              0.680              0.162

 Normal termination of Gaussian 16 at Fri Aug 22 16:27:52 2025.
