 Gaussian 16, Revision C.01,
 Gaussian 16:  ES64L-G16RevC.01  3-Jul-2019

 -----------------------------------------
 # sp b3lyp/6-311g** Force nosymm scf=(qc)
 -----------------------------------------

 -------------------
 Title Card Required
 -------------------
 Symbolic Z-matrix:
 Charge =  0 Multiplicity = 2

                          Input orientation:
 ---------------------------------------------------------------------
 Center     Atomic      Atomic             Coordinates (Angstroms)
 Number     Number       Type             X           Y           Z
 ---------------------------------------------------------------------
      1          1           0        0.000000    0.000000    0.000000
      2          1           0       -2.900000    0.000000    0.000000
      3          9           0        2.550000    0.000000    0.000000
 ---------------------------------------------------------------------

 SCF Done:  E(UB3LYP) =  -100.767616001     a.u. after   22 cycles

 Alpha  occ. eigenvalues --  -24.72036  -1.18232  -0.51140  -0.42956  -0.42956
 Alpha  occ. eigenvalues --   -0.33225
 Alpha virt. eigenvalues --   -0.10834   0.24326   0.34268   0.90003   0.93460
 Alpha virt. eigenvalues --    0.93460   1.06357   1.24329   1.24329   1.25539
 Alpha virt. eigenvalues --    1.40108   1.40108   1.43374   2.15169   2.35287

  Beta  occ. eigenvalues --  -24.69169  -1.10062  -0.40096  -0.40096  -0.35157
  Beta virt. eigenvalues --   -0.23544  -0.08134   0.24939   0.36326   0.94843
  Beta virt. eigenvalues --    0.94843   0.97049   1.09085   1.22305   1.22305
  Beta virt. eigenvalues --    1.28554   1.44081   1.44081   1.44304   2.14330

 Mulliken charges and spin densities:
               1          2
     1  H    0.078902  -0.896806
     2  H    0.003867   0.990293
     3  F   -0.082769   0.906513
 Sum of Mulliken charges =  -0.00000   1.00000

 Dipole moment (field-independent basis, Debye):
    X=             -1.1292    Y=             -0.0000    Z=             -0.0000  Tot=              1.1292
 Quadrupole moment (field-independent basis, Debye-Ang):
   XX=             -9.0229   YY=             -7.5929   ZZ=             -7.5929
   XY=              0.0000   XZ=             -0.0000   YZ=              0.0000

  Exact polarizability:      35.911       0.000       2.020      -0.000       0.000       2.020
 Approx polarizability:      41.596       0.000       1.919      -0.000      -0.000       1.919

 ******    2 imaginary frequencies (negative Signs) ******

                      1                      2                      3
                      A                      A                      A
 Frequencies --   -641.2369              -236.2607               250.4589
 Red. masses --      1.0390                 1.0731                 1.0196
 Frc consts  --      0.2517                 0.0353                 0.0377
 IR Inten    --     69.3498                 5.3824                 5.5993

                      4
                      A
 Frequencies --    250.4589
 Red. masses --      1.0196
 Frc consts  --      0.0377
 IR Inten    --      5.5993

 - Thermochemistry -
 -------------------
 Temperature   298.150 Kelvin.  Pressure   1.00000 Atm.
 Atom     1 has atomic number  1 and mass   1.00783

 Molecular mass:    21.01405 amu.
 Principal axes and moments of inertia in atomic units:
                           1         2         3
     Eigenvalues --     0.00000 119.25526 119.25526
           X            1.00000  -0.00000   0.00000
           Y            0.00000   1.00000   0.00000
           Z            0.00000   0.00000   1.00000
 This molecule is a prolate symmetric top.
 Rotational symmetry number  1.
 Rotational temperature (Kelvin)      0.72629
 Rotational constant (GHZ):          15.133430
    2 imaginary frequencies ignored.
 Zero-point vibrational energy       2996.2 (Joules/Mol)
                                    0.71610 (Kcal/Mol)
 Warning -- explicit consideration of   2 degrees of freedom as
           vibrations may cause significant error
 Vibrational temperatures:    360.35   360.35
          (Kelvin)

 Zero-point correction=                           0.001141 (Hartree/Particle)
 Thermal correction to Energy=                    0.004473
 Thermal correction to Enthalpy=                  0.005417
 Thermal correction to Gibbs Free Energy=        -0.020166
 Sum of electronic and zero-point Energies=           -100.766475
 Sum of electronic and thermal Energies=              -100.763143
 Sum of electronic and thermal Enthalpies=            -100.762199
 Sum of electronic and thermal Free Energies=         -100.787782

                     E (Thermal)             CV                S
                      KCal/Mol        Cal/Mol-Kelvin    Cal/Mol-Kelvin
 Total                    2.807              8.492             53.845
 Electronic               0.000              0.000              1.377
 Translational            0.889              2.981             35.068
 Rotational               0.592              1.987             13.945
 Vibrational              1.326              3.524              3.455
 Vibration     1          0.663              1.762              1.727
 Vibration     2          0.663              1.762              1.727

 Normal termination of Gaussian 16 at Fri Aug 22 17:54:43 2025.
