 Gaussian 16, Revision C.01,
 Gaussian 16:  ES64L-G16RevC.01  3-Jul-2019

 -----------------------------------------
 # sp b3lyp/6-311g** Force nosymm scf=(qc)
 -----------------------------------------

 -------------------
 Title Card Required
 -------------------
 Symbolic Z-matrix:
 Charge =  0 Multiplicity = 2

                          Input orientation:
 ---------------------------------------------------------------------
 Center     Atomic      Atomic             Coordinates (Angstroms)
 Number     Number       Type             X           Y           Z
 ---------------------------------------------------------------------
      1          1           0        0.000000    0.000000    0.000000
      2          1           0       -3.750000    0.000000    0.000000
      3          9           0        0.700000    0.000000    0.000000
 ---------------------------------------------------------------------

 SCF Done:  E(UB3LYP) =  -100.874753685     a.u. after    6 cycles

 Alpha  occ. eigenvalues --  -24.63200  -1.28234  -0.58590  -0.41766  -0.41766
 Alpha  occ. eigenvalues --   -0.33270
 Alpha virt. eigenvalues --    0.06447   0.24568   0.52491   0.93478   0.93478
 Alpha virt. eigenvalues --    0.95783   1.24103   1.24237   1.24237   1.30786
 Alpha virt. eigenvalues --    1.44057   1.44057   1.97739   2.14394   2.86565

  Beta  occ. eigenvalues --  -24.63199  -1.28233  -0.58589  -0.41766  -0.41766
  Beta virt. eigenvalues --   -0.05059   0.06715   0.39225   0.52464   0.93478
  Beta virt. eigenvalues --    0.93478   0.95777   1.30538   1.44057   1.44057
  Beta virt. eigenvalues --    1.50554   1.50554   1.50681   1.97773   2.44784

 Mulliken charges and spin densities:
               1          2
     1  H    0.262421   0.000381
     2  H    0.000469   0.999454
     3  F   -0.262890   0.000164
 Sum of Mulliken charges =   0.00000   1.00000

 Dipole moment (field-independent basis, Debye):
    X=             -1.5856    Y=             -0.0000    Z=              0.0000  Tot=              1.5856
 Quadrupole moment (field-independent basis, Debye-Ang):
   XX=             -7.3088   YY=             -6.6631   ZZ=             -6.6631
   XY=             -0.0000   XZ=              0.0000   YZ=              0.0000

  Exact polarizability:       3.813      -0.000       2.445       0.000       0.000       2.445
 Approx polarizability:       4.185       0.000       2.425      -0.000       0.000       2.425

 ******    3 imaginary frequencies (negative Signs) ******

                      1                      2                      3
                      A                      A                      A
 Frequencies --  -3566.5431             -3566.5431               -34.6897
 Red. masses --      1.0428                 1.0428                 1.0532
 Frc consts  --      7.8156                 7.8156                 0.0007
 IR Inten    --    215.8534               215.8534                 0.0140

                      4
                      A
 Frequencies --   9073.2223
 Red. masses --      1.0583
 Frc consts  --     51.3318
 IR Inten    --    104.4184

 - Thermochemistry -
 -------------------
 Temperature   298.150 Kelvin.  Pressure   1.00000 Atm.
 Atom     1 has atomic number  1 and mass   1.00783

 Molecular mass:    21.01405 amu.
 Principal axes and moments of inertia in atomic units:
                           1         2         3
     Eigenvalues --     0.00000  68.45491  68.45491
           X            1.00000  -0.00000   0.00000
           Y            0.00000   1.00000   0.00000
           Z            0.00000   0.00000   1.00000
 This molecule is a prolate symmetric top.
 Rotational symmetry number  1.
 Rotational temperature (Kelvin)      1.26527
 Rotational constant (GHZ):          26.363939
    3 imaginary frequencies ignored.
 Zero-point vibrational energy      54269.9 (Joules/Mol)
                                   12.97082 (Kcal/Mol)
 Vibrational temperatures:  13054.34
          (Kelvin)

 Zero-point correction=                           0.020670 (Hartree/Particle)
 Thermal correction to Energy=                    0.023031
 Thermal correction to Enthalpy=                  0.023975
 Thermal correction to Gibbs Free Energy=         0.000557
 Sum of electronic and zero-point Energies=           -100.854083
 Sum of electronic and thermal Energies=              -100.851723
 Sum of electronic and thermal Enthalpies=            -100.850779
 Sum of electronic and thermal Free Energies=         -100.874197

                     E (Thermal)             CV                S
                      KCal/Mol        Cal/Mol-Kelvin    Cal/Mol-Kelvin
 Total                   14.452              4.968             49.287
 Electronic               0.000              0.000              1.377
 Translational            0.889              2.981             35.068
 Rotational               0.592              1.987             12.842
 Vibrational             12.971              0.000              0.000

 Normal termination of Gaussian 16 at Fri Aug 22 15:47:32 2025.
