 Gaussian 16, Revision C.01,
 Gaussian 16:  ES64L-G16RevC.01  3-Jul-2019

 -----------------------------------------
 # sp b3lyp/6-311g** Force nosymm scf=(qc)
 -----------------------------------------

 -------------------
 Title Card Required
 -------------------
 Symbolic Z-matrix:
 Charge =  0 Multiplicity = 2

                          Input orientation:
 ---------------------------------------------------------------------
 Center     Atomic      Atomic             Coordinates (Angstroms)
 Number     Number       Type             X           Y           Z
 ---------------------------------------------------------------------
      1          1           0        0.000000    0.000000    0.000000
      2          1           0       -3.950000    0.000000    0.000000
      3          9           0        3.600000    0.000000    0.000000
 ---------------------------------------------------------------------

 SCF Done:  E(UB3LYP) =  -100.758717946     a.u. after   37 cycles

 Alpha  occ. eigenvalues --  -24.75530  -1.21483  -0.54654  -0.45888  -0.45888
 Alpha  occ. eigenvalues --   -0.32273
 Alpha virt. eigenvalues --   -0.05991   0.24157   0.37536   0.87299   0.91392
 Alpha virt. eigenvalues --    0.91392   1.01584   1.25222   1.25222   1.25247
 Alpha virt. eigenvalues --    1.46825   1.46825   1.47642   2.14574   2.42769

  Beta  occ. eigenvalues --  -24.72407  -1.12506  -0.42757  -0.42757  -0.32698
  Beta virt. eigenvalues --   -0.25555  -0.05855   0.23885   0.38198   0.92884
  Beta virt. eigenvalues --    0.92884   0.96500   1.05626   1.24742   1.24742
  Beta virt. eigenvalues --    1.24750   1.46665   1.46767   1.46767   2.14675

 Mulliken charges and spin densities:
               1          2
     1  H    0.008757  -0.989621
     2  H    0.000044   0.999296
     3  F   -0.008800   0.990325
 Sum of Mulliken charges =  -0.00000   1.00000

 Dipole moment (field-independent basis, Debye):
    X=             -0.1639    Y=             -0.0000    Z=             -0.0000  Tot=              0.1639
 Quadrupole moment (field-independent basis, Debye-Ang):
   XX=             -7.2902   YY=             -7.6180   ZZ=             -7.6180
   XY=             -0.0000   XZ=             -0.0000   YZ=             -0.0000

  Exact polarizability:      20.137      -0.000       2.042      -0.000      -0.000       2.042
 Approx polarizability:      15.425      -0.000       1.935      -0.000      -0.000       1.935

 ******    2 imaginary frequencies (negative Signs) ******

                      1                      2                      3
                      A                      A                      A
 Frequencies --   -195.2611               -69.0498                45.6206
 Red. masses --      1.0419                 1.0700                 1.0191
 Frc consts  --      0.0234                 0.0030                 0.0012
 IR Inten    --      7.8368                 0.2246                 0.0634

                      4
                      A
 Frequencies --     45.6208
 Red. masses --      1.0191
 Frc consts  --      0.0012
 IR Inten    --      0.0634

 - Thermochemistry -
 -------------------
 Temperature   298.150 Kelvin.  Pressure   1.00000 Atm.
 Atom     1 has atomic number  1 and mass   1.00783

 Molecular mass:    21.01405 amu.
 Principal axes and moments of inertia in atomic units:
                           1         2         3
     Eigenvalues --     0.00000 230.33671 230.33671
           X            1.00000  -0.00000   0.00000
           Y            0.00000   1.00000   0.00000
           Z            0.00000   0.00000   1.00000
 This molecule is a prolate symmetric top.
 Rotational symmetry number  1.
 Rotational temperature (Kelvin)      0.37603
 Rotational constant (GHZ):           7.835230
    2 imaginary frequencies ignored.
 Zero-point vibrational energy        545.7 (Joules/Mol)
                                    0.13044 (Kcal/Mol)
 Warning -- explicit consideration of   2 degrees of freedom as
           vibrations may cause significant error
 Vibrational temperatures:     65.64    65.64
          (Kelvin)

 Zero-point correction=                           0.000208 (Hartree/Particle)
 Thermal correction to Energy=                    0.004256
 Thermal correction to Enthalpy=                  0.005201
 Thermal correction to Gibbs Free Energy=        -0.024113
 Sum of electronic and zero-point Energies=           -100.758510
 Sum of electronic and thermal Energies=              -100.754461
 Sum of electronic and thermal Enthalpies=            -100.753517
 Sum of electronic and thermal Free Energies=         -100.782831

                     E (Thermal)             CV                S
                      KCal/Mol        Cal/Mol-Kelvin    Cal/Mol-Kelvin
 Total                    2.671              8.926             61.696
 Electronic               0.000              0.000              1.377
 Translational            0.889              2.981             35.068
 Rotational               0.592              1.987             15.253
 Vibrational              1.190              3.958              9.997
 Vibration     1          0.595              1.979              4.999
 Vibration     2          0.595              1.979              4.999

 Normal termination of Gaussian 16 at Fri Aug 22 23:08:44 2025.
