 Gaussian 16, Revision C.01,
 Gaussian 16:  ES64L-G16RevC.01  3-Jul-2019

 -----------------------------------------
 # sp b3lyp/6-311g** Force nosymm scf=(qc)
 -----------------------------------------

 -------------------
 Title Card Required
 -------------------
 Symbolic Z-matrix:
 Charge =  0 Multiplicity = 2

                          Input orientation:
 ---------------------------------------------------------------------
 Center     Atomic      Atomic             Coordinates (Angstroms)
 Number     Number       Type             X           Y           Z
 ---------------------------------------------------------------------
      1          1           0        0.000000    0.000000    0.000000
      2          1           0       -2.150000    0.000000    0.000000
      3          9           0        2.700000    0.000000    0.000000
 ---------------------------------------------------------------------

 SCF Done:  E(UB3LYP) =  -100.773824173     a.u. after   21 cycles

 Alpha  occ. eigenvalues --  -24.72931  -1.19063  -0.52042  -0.43698  -0.43698
 Alpha  occ. eigenvalues --   -0.34037
 Alpha virt. eigenvalues --   -0.12128   0.25195   0.32448   0.90351   0.92969
 Alpha virt. eigenvalues --    0.92969   1.05763   1.22894   1.23834   1.23834
 Alpha virt. eigenvalues --    1.36648   1.36648   1.44621   2.12499   2.34647

  Beta  occ. eigenvalues --  -24.69992  -1.10664  -0.40761  -0.40761  -0.34567
  Beta virt. eigenvalues --   -0.24160  -0.10900   0.26235   0.33061   0.94395
  Beta virt. eigenvalues --    0.94395   0.98450   1.09354   1.23218   1.23218
  Beta virt. eigenvalues --    1.23330   1.38671   1.38671   1.45956   2.13445

 Mulliken charges and spin densities:
               1          2
     1  H    0.043269  -0.846319
     2  H    0.018039   0.915986
     3  F   -0.061308   0.930333
 Sum of Mulliken charges =  -0.00000   1.00000

 Dipole moment (field-independent basis, Debye):
    X=             -1.0321    Y=             -0.0000    Z=             -0.0000  Tot=              1.0321
 Quadrupole moment (field-independent basis, Debye-Ang):
   XX=             -8.0828   YY=             -7.6675   ZZ=             -7.6675
   XY=             -0.0000   XZ=             -0.0000   YZ=             -0.0000

  Exact polarizability:      56.019      -0.000       2.006      -0.000      -0.000       2.006
 Approx polarizability:      54.744      -0.000       1.922      -0.000       0.000       1.922

 ******    2 imaginary frequencies (negative Signs) ******

                      1                      2                      3
                      A                      A                      A
 Frequencies --  -1138.2079              -325.4872               445.9391
 Red. masses --      1.0090                 1.1070                 1.0154
 Frc consts  --      0.7702                 0.0691                 0.1190
 IR Inten    --     41.0002                39.9869                 1.1481

                      4
                      A
 Frequencies --    445.9391
 Red. masses --      1.0154
 Frc consts  --      0.1190
 IR Inten    --      1.1481

 - Thermochemistry -
 -------------------
 Temperature   298.150 Kelvin.  Pressure   1.00000 Atm.
 Atom     1 has atomic number  1 and mass   1.00783

 Molecular mass:    21.01405 amu.
 Principal axes and moments of inertia in atomic units:
                           1         2         3
     Eigenvalues --     0.00000 101.05542 101.05542
           X            1.00000  -0.00000   0.00000
           Y            0.00000   1.00000   0.00000
           Z            0.00000   0.00000   1.00000
 This molecule is a prolate symmetric top.
 Rotational symmetry number  1.
 Rotational temperature (Kelvin)      0.85709
 Rotational constant (GHZ):          17.858924
    2 imaginary frequencies ignored.
 Zero-point vibrational energy       5334.6 (Joules/Mol)
                                    1.27500 (Kcal/Mol)
 Warning -- explicit consideration of   2 degrees of freedom as
           vibrations may cause significant error
 Vibrational temperatures:    641.61   641.61
          (Kelvin)

 Zero-point correction=                           0.002032 (Hartree/Particle)
 Thermal correction to Energy=                    0.004927
 Thermal correction to Enthalpy=                  0.005871
 Thermal correction to Gibbs Free Energy=        -0.018683
 Sum of electronic and zero-point Energies=           -100.771792
 Sum of electronic and thermal Energies=              -100.768897
 Sum of electronic and thermal Enthalpies=            -100.767953
 Sum of electronic and thermal Free Energies=         -100.792507

                     E (Thermal)             CV                S
                      KCal/Mol        Cal/Mol-Kelvin    Cal/Mol-Kelvin
 Total                    3.092              7.708             51.678
 Electronic               0.000              0.000              1.377
 Translational            0.889              2.981             35.068
 Rotational               0.592              1.987             13.616
 Vibrational              1.610              2.740              1.616
 Vibration     1          0.805              1.370              0.808
 Vibration     2          0.805              1.370              0.808

 Normal termination of Gaussian 16 at Fri Aug 22 18:25:33 2025.
