 Gaussian 16, Revision C.01,
 Gaussian 16:  ES64L-G16RevC.01  3-Jul-2019

 -----------------------------------------
 # sp b3lyp/6-311g** Force nosymm scf=(qc)
 -----------------------------------------

 -------------------
 Title Card Required
 -------------------
 Symbolic Z-matrix:
 Charge =  0 Multiplicity = 2

                          Input orientation:
 ---------------------------------------------------------------------
 Center     Atomic      Atomic             Coordinates (Angstroms)
 Number     Number       Type             X           Y           Z
 ---------------------------------------------------------------------
      1          1           0        0.000000    0.000000    0.000000
      2          1           0       -2.750000    0.000000    0.000000
      3          9           0        3.250000    0.000000    0.000000
 ---------------------------------------------------------------------

 SCF Done:  E(UB3LYP) =  -100.761674201     a.u. after   24 cycles

 Alpha  occ. eigenvalues --  -24.74897  -1.20895  -0.54017  -0.45354  -0.45354
 Alpha  occ. eigenvalues --   -0.32672
 Alpha virt. eigenvalues --   -0.09139   0.25234   0.34679   0.88519   0.91783
 Alpha virt. eigenvalues --    0.91783   1.02653   1.24904   1.24904   1.26226
 Alpha virt. eigenvalues --    1.42156   1.42156   1.42694   2.15839   2.38338

  Beta  occ. eigenvalues --  -24.71815  -1.12050  -0.42268  -0.42268  -0.33271
  Beta virt. eigenvalues --   -0.25233  -0.08280   0.25086   0.35855   0.93261
  Beta virt. eigenvalues --    0.93261   0.97506   1.06598   1.24192   1.24192
  Beta virt. eigenvalues --    1.25409   1.43535   1.43535   1.44012   2.16494

 Mulliken charges and spin densities:
               1          2
     1  H    0.018985  -0.962141
     2  H    0.002003   0.985385
     3  F   -0.020987   0.976757
 Sum of Mulliken charges =  -0.00000   1.00000

 Dipole moment (field-independent basis, Debye):
    X=             -0.3766    Y=              0.0000    Z=             -0.0000  Tot=              0.3766
 Quadrupole moment (field-independent basis, Debye-Ang):
   XX=             -7.6282   YY=             -7.6424   ZZ=             -7.6424
   XY=             -0.0000   XZ=              0.0000   YZ=              0.0000

  Exact polarizability:      35.130      -0.000       2.023       0.000       0.000       2.023
 Approx polarizability:      29.424      -0.000       1.927       0.000      -0.000       1.927

 ******    2 imaginary frequencies (negative Signs) ******

                      1                      2                      3
                      A                      A                      A
 Frequencies --   -501.2358              -176.8905               181.5911
 Red. masses --      1.0106                 1.1052                 1.0160
 Frc consts  --      0.1496                 0.0204                 0.0197
 IR Inten    --     15.0329                 9.4963                 0.2953

                      4
                      A
 Frequencies --    181.5911
 Red. masses --      1.0160
 Frc consts  --      0.0197
 IR Inten    --      0.2953

 - Thermochemistry -
 -------------------
 Temperature   298.150 Kelvin.  Pressure   1.00000 Atm.
 Atom     1 has atomic number  1 and mass   1.00783

 Molecular mass:    21.01405 amu.
 Principal axes and moments of inertia in atomic units:
                           1         2         3
     Eigenvalues --     0.00000 152.81016 152.81016
           X            1.00000  -0.00000   0.00000
           Y            0.00000   1.00000   0.00000
           Z            0.00000   0.00000   1.00000
 This molecule is a prolate symmetric top.
 Rotational symmetry number  1.
 Rotational temperature (Kelvin)      0.56681
 Rotational constant (GHZ):          11.810349
    2 imaginary frequencies ignored.
 Zero-point vibrational energy       2172.3 (Joules/Mol)
                                    0.51920 (Kcal/Mol)
 Warning -- explicit consideration of   2 degrees of freedom as
           vibrations may cause significant error
 Vibrational temperatures:    261.27   261.27
          (Kelvin)

 Zero-point correction=                           0.000827 (Hartree/Particle)
 Thermal correction to Energy=                    0.004368
 Thermal correction to Enthalpy=                  0.005312
 Thermal correction to Gibbs Free Energy=        -0.021061
 Sum of electronic and zero-point Energies=           -100.760847
 Sum of electronic and thermal Energies=              -100.757306
 Sum of electronic and thermal Enthalpies=            -100.756362
 Sum of electronic and thermal Free Energies=         -100.782735

                     E (Thermal)             CV                S
                      KCal/Mol        Cal/Mol-Kelvin    Cal/Mol-Kelvin
 Total                    2.741              8.698             55.507
 Electronic               0.000              0.000              1.377
 Translational            0.889              2.981             35.068
 Rotational               0.592              1.987             14.438
 Vibrational              1.260              3.730              4.624
 Vibration     1          0.630              1.865              2.312
 Vibration     2          0.630              1.865              2.312

 Normal termination of Gaussian 16 at Fri Aug 22 20:35:20 2025.
