 Gaussian 16, Revision C.01,
 Gaussian 16:  ES64L-G16RevC.01  3-Jul-2019

 -----------------------------------------
 # sp b3lyp/6-311g** Force nosymm scf=(qc)
 -----------------------------------------

 -------------------
 Title Card Required
 -------------------
 Symbolic Z-matrix:
 Charge =  0 Multiplicity = 2

                          Input orientation:
 ---------------------------------------------------------------------
 Center     Atomic      Atomic             Coordinates (Angstroms)
 Number     Number       Type             X           Y           Z
 ---------------------------------------------------------------------
      1          1           0        0.000000    0.000000    0.000000
      2          1           0       -2.450000    0.000000    0.000000
      3          9           0        1.750000    0.000000    0.000000
 ---------------------------------------------------------------------

 SCF Done:  E(UB3LYP) =  -100.814013130     a.u. after   19 cycles

 Alpha  occ. eigenvalues --  -24.65939  -1.12088  -0.44790  -0.37764  -0.37764
 Alpha  occ. eigenvalues --   -0.35636
 Alpha virt. eigenvalues --   -0.14474   0.23501   0.28806   0.94868   0.94868
 Alpha virt. eigenvalues --    0.95124   1.06509   1.21997   1.21997   1.25230
 Alpha virt. eigenvalues --    1.33541   1.33541   1.71973   2.12847   2.25288

  Beta  occ. eigenvalues --  -24.64194  -1.07306  -0.39445  -0.36067  -0.36067
  Beta virt. eigenvalues --   -0.19104  -0.09833   0.24336   0.34480   0.94780
  Beta virt. eigenvalues --    0.94780   0.96368   1.08427   1.24960   1.24960
  Beta virt. eigenvalues --    1.40733   1.40733   1.42453   1.68139   2.13390

 Mulliken charges and spin densities:
               1          2
     1  H    0.251245  -0.516096
     2  H    0.022955   0.967136
     3  F   -0.274201   0.548959
 Sum of Mulliken charges =   0.00000   1.00000

 Dipole moment (field-independent basis, Debye):
    X=             -2.6099    Y=              0.0000    Z=             -0.0000  Tot=              2.6099
 Quadrupole moment (field-independent basis, Debye-Ang):
   XX=             -9.4585   YY=             -7.4476   ZZ=             -7.4476
   XY=              0.0000   XZ=             -0.0000   YZ=             -0.0000

  Exact polarizability:      33.428       0.000       2.114      -0.000      -0.000       2.114
 Approx polarizability:      44.121       0.000       2.013      -0.000       0.000       2.013

 ******    2 imaginary frequencies (negative Signs) ******

                      1                      2                      3
                      A                      A                      A
 Frequencies --  -1673.5571              -388.7287               714.7836
 Red. masses --      1.0491                 1.0626                 1.0225
 Frc consts  --      1.7311                 0.0946                 0.3078
 IR Inten    --     84.4900                11.9428                51.5580

                      4
                      A
 Frequencies --    714.7836
 Red. masses --      1.0225
 Frc consts  --      0.3078
 IR Inten    --     51.5580

 - Thermochemistry -
 -------------------
 Temperature   298.150 Kelvin.  Pressure   1.00000 Atm.
 Atom     1 has atomic number  1 and mass   1.00783

 Molecular mass:    21.01405 amu.
 Principal axes and moments of inertia in atomic units:
                           1         2         3
     Eigenvalues --     0.00000  68.39776  68.39776
           X            1.00000  -0.00000   0.00000
           Y            0.00000   1.00000   0.00000
           Z            0.00000   0.00000   1.00000
 This molecule is a prolate symmetric top.
 Rotational symmetry number  1.
 Rotational temperature (Kelvin)      1.26633
 Rotational constant (GHZ):          26.385970
    2 imaginary frequencies ignored.
 Zero-point vibrational energy       8550.7 (Joules/Mol)
                                    2.04367 (Kcal/Mol)
 Vibrational temperatures:   1028.41  1028.41
          (Kelvin)

 Zero-point correction=                           0.003257 (Hartree/Particle)
 Thermal correction to Energy=                    0.005831
 Thermal correction to Enthalpy=                  0.006775
 Thermal correction to Gibbs Free Energy=        -0.016917
 Sum of electronic and zero-point Energies=           -100.810756
 Sum of electronic and thermal Energies=              -100.808182
 Sum of electronic and thermal Enthalpies=            -100.807238
 Sum of electronic and thermal Free Energies=         -100.830930

                     E (Thermal)             CV                S
                      KCal/Mol        Cal/Mol-Kelvin    Cal/Mol-Kelvin
 Total                    3.659              6.570             49.864
 Electronic               0.000              0.000              1.377
 Translational            0.889              2.981             35.068
 Rotational               0.592              1.987             12.840
 Vibrational              2.178              1.602              0.578

 Normal termination of Gaussian 16 at Fri Aug 22 16:40:53 2025.
