 Gaussian 16, Revision C.01,
 Gaussian 16:  ES64L-G16RevC.01  3-Jul-2019

 -----------------------------------------
 # sp b3lyp/6-311g** Force nosymm scf=(qc)
 -----------------------------------------

 -------------------
 Title Card Required
 -------------------
 Symbolic Z-matrix:
 Charge =  0 Multiplicity = 2

                          Input orientation:
 ---------------------------------------------------------------------
 Center     Atomic      Atomic             Coordinates (Angstroms)
 Number     Number       Type             X           Y           Z
 ---------------------------------------------------------------------
      1          1           0        0.000000    0.000000    0.000000
      2          1           0       -1.700000    0.000000    0.000000
      3          9           0        0.650000    0.000000    0.000000
 ---------------------------------------------------------------------

 SCF Done:  E(UB3LYP) =  -100.798014810     a.u. after    7 cycles

 Alpha  occ. eigenvalues --  -24.62888  -1.31373  -0.60157  -0.42331  -0.42331
 Alpha  occ. eigenvalues --   -0.35664
 Alpha virt. eigenvalues --    0.12435   0.22804   0.53245   0.92812   0.92812
 Alpha virt. eigenvalues --    0.94861   1.20549   1.20549   1.28448   1.48152
 Alpha virt. eigenvalues --    1.48152   1.59086   2.00293   2.16832   3.17917

  Beta  occ. eigenvalues --  -24.62822  -1.31176  -0.59819  -0.42284  -0.42284
  Beta virt. eigenvalues --   -0.11270   0.13777   0.32146   0.56350   0.92854
  Beta virt. eigenvalues --    0.92854   0.95018   1.35768   1.37404   1.37404
  Beta virt. eigenvalues --    1.50480   1.50480   1.67428   2.01741   2.40547

 Mulliken charges and spin densities:
               1          2
     1  H    0.235489   0.014016
     2  H    0.012334   0.977483
     3  F   -0.247823   0.008502
 Sum of Mulliken charges =   0.00000   1.00000

 Dipole moment (field-independent basis, Debye):
    X=             -1.5816    Y=              0.0000    Z=              0.0000  Tot=              1.5816
 Quadrupole moment (field-independent basis, Debye-Ang):
   XX=             -6.9013   YY=             -6.5476   ZZ=             -6.5476
   XY=              0.0000   XZ=              0.0000   YZ=              0.0000

  Exact polarizability:       6.545       0.000       2.511      -0.000       0.000       2.511
 Approx polarizability:       6.333      -0.000       2.514      -0.000       0.000       2.514

 ******    2 imaginary frequencies (negative Signs) ******

                      1                      2                      3
                      A                      A                      A
 Frequencies --  -4499.7127             -4499.7127               611.7704
 Red. masses --      1.0324                 1.0324                 1.0534
 Frc consts  --     12.3160                12.3160                 0.2323
 IR Inten    --    174.1300               174.1300                 0.6057

                      4
                      A
 Frequencies --  10868.7464
 Red. masses --      1.0582
 Frc consts  --     73.6502
 IR Inten    --    133.9545

 - Thermochemistry -
 -------------------
 Temperature   298.150 Kelvin.  Pressure   1.00000 Atm.
 Atom     1 has atomic number  1 and mass   1.00783

 Molecular mass:    21.01405 amu.
 Principal axes and moments of inertia in atomic units:
                           1         2         3
     Eigenvalues --     0.00000  19.84264  19.84264
           X            1.00000  -0.00000   0.00000
           Y            0.00000   1.00000   0.00000
           Z            0.00000   0.00000   1.00000
 This molecule is a prolate symmetric top.
 Rotational symmetry number  1.
 Rotational temperature (Kelvin)      4.36504
 Rotational constant (GHZ):          90.952660
    2 imaginary frequencies ignored.
 Zero-point vibrational energy      68668.7 (Joules/Mol)
                                   16.41222 (Kcal/Mol)
 Warning -- explicit consideration of   1 degrees of freedom as
           vibrations may cause significant error
 Vibrational temperatures:    880.20 15637.70
          (Kelvin)

 Zero-point correction=                           0.026155 (Hartree/Particle)
 Thermal correction to Energy=                    0.028669
 Thermal correction to Enthalpy=                  0.029613
 Thermal correction to Gibbs Free Energy=         0.007160
 Sum of electronic and zero-point Energies=           -100.771860
 Sum of electronic and thermal Energies=              -100.769346
 Sum of electronic and thermal Enthalpies=            -100.768402
 Sum of electronic and thermal Free Energies=         -100.790855

                     E (Thermal)             CV                S
                      KCal/Mol        Cal/Mol-Kelvin    Cal/Mol-Kelvin
 Total                   17.990              5.975             47.256
 Electronic               0.000              0.000              1.377
 Translational            0.889              2.981             35.068
 Rotational               0.592              1.987             10.381
 Vibrational             16.509              1.007              0.430
 Vibration     1          0.971              1.007              0.430

 Normal termination of Gaussian 16 at Fri Aug 22 15:43:52 2025.
