 Gaussian 16, Revision C.01,
 Gaussian 16:  ES64L-G16RevC.01  3-Jul-2019

 -----------------------------------------
 # sp b3lyp/6-311g** Force nosymm scf=(qc)
 -----------------------------------------

 -------------------
 Title Card Required
 -------------------
 Symbolic Z-matrix:
 Charge =  0 Multiplicity = 2

                          Input orientation:
 ---------------------------------------------------------------------
 Center     Atomic      Atomic             Coordinates (Angstroms)
 Number     Number       Type             X           Y           Z
 ---------------------------------------------------------------------
      1          1           0        0.000000    0.000000    0.000000
      2          1           0       -3.000000    0.000000    0.000000
      3          9           0        0.900000    0.000000    0.000000
 ---------------------------------------------------------------------

 SCF Done:  E(UB3LYP) =  -100.971573443     a.u. after    5 cycles

 Alpha  occ. eigenvalues --  -24.63972  -1.19024  -0.53846  -0.39633  -0.39633
 Alpha  occ. eigenvalues --   -0.34095
 Alpha virt. eigenvalues --    0.03455   0.25128   0.39353   0.94356   0.94356
 Alpha virt. eigenvalues --    0.97766   1.22563   1.23435   1.23435   1.32307
 Alpha virt. eigenvalues --    1.37290   1.37290   2.01069   2.14619   2.37369

  Beta  occ. eigenvalues --  -24.63967  -1.19012  -0.53831  -0.39629  -0.39629
  Beta virt. eigenvalues --   -0.07022   0.04580   0.38686   0.39499   0.94356
  Beta virt. eigenvalues --    0.94356   0.97756   1.30182   1.37288   1.37288
  Beta virt. eigenvalues --    1.49272   1.49272   1.50201   2.01225   2.37271

 Mulliken charges and spin densities:
               1          2
     1  H    0.294200   0.001459
     2  H    0.002358   0.996864
     3  F   -0.296559   0.001677
 Sum of Mulliken charges =   0.00000   1.00000

 Dipole moment (field-independent basis, Debye):
    X=             -1.9165    Y=             -0.0000    Z=              0.0000  Tot=              1.9165
 Quadrupole moment (field-independent basis, Debye-Ang):
   XX=             -7.8221   YY=             -6.8678   ZZ=             -6.8678
   XY=             -0.0000   XZ=              0.0000   YZ=              0.0000

  Exact polarizability:       6.305      -0.000       2.436       0.000       0.000       2.436
 Approx polarizability:       7.129      -0.000       2.415      -0.000       0.000       2.415

 ******    3 imaginary frequencies (negative Signs) ******

                      1                      2                      3
                      A                      A                      A
 Frequencies --   -623.9440              -623.9440               -59.8466
 Red. masses --      1.0362                 1.0362                 1.0532
 Frc consts  --      0.2377                 0.2377                 0.0022
 IR Inten    --    176.6163               176.6163                 0.1769

                      4
                      A
 Frequencies --   4430.3825
 Red. masses --      1.0584
 Frc consts  --     12.2395
 IR Inten    --    108.3174

 - Thermochemistry -
 -------------------
 Temperature   298.150 Kelvin.  Pressure   1.00000 Atm.
 Atom     1 has atomic number  1 and mass   1.00783

 Molecular mass:    21.01405 amu.
 Principal axes and moments of inertia in atomic units:
                           1         2         3
     Eigenvalues --     0.00000  53.67925  53.67925
           X            1.00000  -0.00000   0.00000
           Y            0.00000   1.00000   0.00000
           Z            0.00000   0.00000   1.00000
 This molecule is a prolate symmetric top.
 Rotational symmetry number  1.
 Rotational temperature (Kelvin)      1.61355
 Rotational constant (GHZ):          33.620833
    3 imaginary frequencies ignored.
 Zero-point vibrational energy      26499.6 (Joules/Mol)
                                    6.33355 (Kcal/Mol)
 Vibrational temperatures:   6374.33
          (Kelvin)

 Zero-point correction=                           0.010093 (Hartree/Particle)
 Thermal correction to Energy=                    0.012454
 Thermal correction to Enthalpy=                  0.013398
 Thermal correction to Gibbs Free Energy=        -0.009791
 Sum of electronic and zero-point Energies=           -100.961480
 Sum of electronic and thermal Energies=              -100.959120
 Sum of electronic and thermal Enthalpies=            -100.958176
 Sum of electronic and thermal Free Energies=         -100.981364

                     E (Thermal)             CV                S
                      KCal/Mol        Cal/Mol-Kelvin    Cal/Mol-Kelvin
 Total                    7.815              4.968             48.804
 Electronic               0.000              0.000              1.377
 Translational            0.889              2.981             35.068
 Rotational               0.592              1.987             12.359
 Vibrational              6.334              0.000              0.000

 Normal termination of Gaussian 16 at Fri Aug 22 15:56:28 2025.
