 Gaussian 16, Revision C.01,
 Gaussian 16:  ES64L-G16RevC.01  3-Jul-2019

 -----------------------------------------
 # sp b3lyp/6-311g** Force nosymm scf=(qc)
 -----------------------------------------

 -------------------
 Title Card Required
 -------------------
 Symbolic Z-matrix:
 Charge =  0 Multiplicity = 2

                          Input orientation:
 ---------------------------------------------------------------------
 Center     Atomic      Atomic             Coordinates (Angstroms)
 Number     Number       Type             X           Y           Z
 ---------------------------------------------------------------------
      1          1           0        0.000000    0.000000    0.000000
      2          1           0       -0.750000    0.000000    0.000000
      3          9           0        2.050000    0.000000    0.000000
 ---------------------------------------------------------------------

 SCF Done:  E(UB3LYP) =  -100.934667969     a.u. after    6 cycles

 Alpha  occ. eigenvalues --  -24.75046  -1.21104  -0.54865  -0.45538  -0.45538
 Alpha  occ. eigenvalues --   -0.44402
 Alpha virt. eigenvalues --    0.06987   0.20323   0.45232   0.90766   0.90766
 Alpha virt. eigenvalues --    0.91297   1.07374   1.07374   1.14505   1.60891
 Alpha virt. eigenvalues --    1.81135   1.81135   1.95772   2.39742   3.27970

  Beta  occ. eigenvalues --  -24.71999  -1.12409  -0.44668  -0.42498  -0.42498
  Beta virt. eigenvalues --   -0.25712   0.07748   0.20858   0.45669   0.92150
  Beta virt. eigenvalues --    0.92150   0.99255   1.07944   1.07944   1.18122
  Beta virt. eigenvalues --    1.62102   1.81435   1.81435   1.96255   2.40369

 Mulliken charges and spin densities:
               1          2
     1  H    0.001325  -0.023397
     2  H    0.027798   0.066343
     3  F   -0.029122   0.957055
 Sum of Mulliken charges =   0.00000   1.00000

 Dipole moment (field-independent basis, Debye):
    X=             -0.3818    Y=              0.0000    Z=              0.0000  Tot=              0.3818
 Quadrupole moment (field-independent basis, Debye-Ang):
   XX=             -5.9736   YY=             -6.9181   ZZ=             -6.9181
   XY=              0.0000   XZ=              0.0000   YZ=             -0.0000

  Exact polarizability:      17.294      -0.000       2.074      -0.000      -0.000       2.074
 Approx polarizability:      19.065       0.000       2.136       0.000      -0.000       2.136

 ******    3 imaginary frequencies (negative Signs) ******

                      1                      2                      3
                      A                      A                      A
 Frequencies --   -320.8195              -320.8195              -179.1604
 Red. masses --      1.0102                 1.0102                 1.1085
 Frc consts  --      0.0613                 0.0613                 0.0210
 IR Inten    --      0.2476                 0.2476                23.4666

                      4
                      A
 Frequencies --   4270.2948
 Red. masses --      1.0078
 Frc consts  --     10.8282
 IR Inten    --    213.1151

 - Thermochemistry -
 -------------------
 Temperature   298.150 Kelvin.  Pressure   1.00000 Atm.
 Atom     1 has atomic number  1 and mass   1.00783

 Molecular mass:    21.01405 amu.
 Principal axes and moments of inertia in atomic units:
                           1         2         3
     Eigenvalues --     0.00000  39.28091  39.28091
           X            1.00000  -0.00000   0.00000
           Y            0.00000   1.00000   0.00000
           Z            0.00000   0.00000   1.00000
 This molecule is a prolate symmetric top.
 Rotational symmetry number  1.
 Rotational temperature (Kelvin)      2.20499
 Rotational constant (GHZ):          45.944481
    3 imaginary frequencies ignored.
 Zero-point vibrational energy      25542.0 (Joules/Mol)
                                    6.10469 (Kcal/Mol)
 Vibrational temperatures:   6144.00
          (Kelvin)

 Zero-point correction=                           0.009728 (Hartree/Particle)
 Thermal correction to Energy=                    0.012089
 Thermal correction to Enthalpy=                  0.013033
 Thermal correction to Gibbs Free Energy=        -0.009860
 Sum of electronic and zero-point Energies=           -100.924940
 Sum of electronic and thermal Energies=              -100.922579
 Sum of electronic and thermal Enthalpies=            -100.921635
 Sum of electronic and thermal Free Energies=         -100.944528

                     E (Thermal)             CV                S
                      KCal/Mol        Cal/Mol-Kelvin    Cal/Mol-Kelvin
 Total                    7.586              4.968             48.184
 Electronic               0.000              0.000              1.377
 Translational            0.889              2.981             35.068
 Rotational               0.592              1.987             11.738
 Vibrational              6.105              0.000              0.000

 Normal termination of Gaussian 16 at Fri Aug 22 16:59:00 2025.
