 Gaussian 16, Revision C.01,
 Gaussian 16:  ES64L-G16RevC.01  3-Jul-2019

 -----------------------------------------
 # sp b3lyp/6-311g** Force nosymm scf=(qc)
 -----------------------------------------

 -------------------
 Title Card Required
 -------------------
 Symbolic Z-matrix:
 Charge =  0 Multiplicity = 2

                          Input orientation:
 ---------------------------------------------------------------------
 Center     Atomic      Atomic             Coordinates (Angstroms)
 Number     Number       Type             X           Y           Z
 ---------------------------------------------------------------------
      1          1           0        0.000000    0.000000    0.000000
      2          1           0       -0.850000    0.000000    0.000000
      3          9           0        1.100000    0.000000    0.000000
 ---------------------------------------------------------------------

 SCF Done:  E(UB3LYP) =  -100.949666054     a.u. after    6 cycles

 Alpha  occ. eigenvalues --  -24.66389  -1.17164  -0.59271  -0.40201  -0.40201
 Alpha  occ. eigenvalues --   -0.37109
 Alpha virt. eigenvalues --    0.11811   0.18746   0.46192   0.88339   0.88339
 Alpha virt. eigenvalues --    0.96845   1.08538   1.08538   1.43940   1.66980
 Alpha virt. eigenvalues --    1.70736   1.70736   2.15431   2.30775   3.07368

  Beta  occ. eigenvalues --  -24.64840  -1.13220  -0.51780  -0.38782  -0.38782
  Beta virt. eigenvalues --   -0.19801   0.13857   0.20386   0.51217   0.90007
  Beta virt. eigenvalues --    0.90007   1.00107   1.12979   1.12979   1.46645
  Beta virt. eigenvalues --    1.73944   1.74472   1.74472   2.15178   2.40110

 Mulliken charges and spin densities:
               1          2
     1  H    0.269473  -0.033361
     2  H    0.003660   0.612467
     3  F   -0.273133   0.420895
 Sum of Mulliken charges =   0.00000   1.00000

 Dipole moment (field-independent basis, Debye):
    X=             -1.7978    Y=             -0.0000    Z=             -0.0000  Tot=              1.7978
 Quadrupole moment (field-independent basis, Debye-Ang):
   XX=             -7.5281   YY=             -6.6673   ZZ=             -6.6673
   XY=             -0.0000   XZ=             -0.0000   YZ=              0.0000

  Exact polarizability:      16.670      -0.000       2.534      -0.000      -0.000       2.534
 Approx polarizability:      21.163       0.000       2.565      -0.000      -0.000       2.565

 ******    2 imaginary frequencies (negative Signs) ******

                      1                      2                      3
                      A                      A                      A
 Frequencies --   -814.4921              -814.4921               849.3434
 Red. masses --      1.0151                 1.0151                 1.0859
 Frc consts  --      0.3968                 0.3968                 0.4615
 IR Inten    --     27.2378                27.2378                38.4803

                      4
                      A
 Frequencies --   2276.7466
 Red. masses --      1.0273
 Frc consts  --      3.1374
 IR Inten    --    225.6179

 - Thermochemistry -
 -------------------
 Temperature   298.150 Kelvin.  Pressure   1.00000 Atm.
 Atom     1 has atomic number  1 and mass   1.00783

 Molecular mass:    21.01405 amu.
 Principal axes and moments of inertia in atomic units:
                           1         2         3
     Eigenvalues --     0.00000  16.43435  16.43435
           X            1.00000  -0.00000   0.00000
           Y            0.00000   1.00000   0.00000
           Z            0.00000   0.00000   1.00000
 This molecule is a prolate symmetric top.
 Rotational symmetry number  1.
 Rotational temperature (Kelvin)      5.27030
 Rotational constant (GHZ):         109.815156
    2 imaginary frequencies ignored.
 Zero-point vibrational energy      18698.2 (Joules/Mol)
                                    4.46897 (Kcal/Mol)
 Vibrational temperatures:   1222.02  3275.73
          (Kelvin)

 Zero-point correction=                           0.007122 (Hartree/Particle)
 Thermal correction to Energy=                    0.009548
 Thermal correction to Enthalpy=                  0.010492
 Thermal correction to Gibbs Free Energy=        -0.011660
 Sum of electronic and zero-point Energies=           -100.942544
 Sum of electronic and thermal Energies=              -100.940118
 Sum of electronic and thermal Enthalpies=            -100.939174
 Sum of electronic and thermal Free Energies=         -100.961326

                     E (Thermal)             CV                S
                      KCal/Mol        Cal/Mol-Kelvin    Cal/Mol-Kelvin
 Total                    5.991              5.545             46.623
 Electronic               0.000              0.000              1.377
 Translational            0.889              2.981             35.068
 Rotational               0.592              1.987             10.007
 Vibrational              4.510              0.577              0.171

 Normal termination of Gaussian 16 at Fri Aug 22 16:04:31 2025.
