 Gaussian 16, Revision C.01,
 Gaussian 16:  ES64L-G16RevC.01  3-Jul-2019

 -----------------------------------------
 # sp b3lyp/6-311g** Force nosymm scf=(qc)
 -----------------------------------------

 -------------------
 Title Card Required
 -------------------
 Symbolic Z-matrix:
 Charge =  0 Multiplicity = 2

                          Input orientation:
 ---------------------------------------------------------------------
 Center     Atomic      Atomic             Coordinates (Angstroms)
 Number     Number       Type             X           Y           Z
 ---------------------------------------------------------------------
      1          1           0        0.000000    0.000000    0.000000
      2          1           0       -3.600000    0.000000    0.000000
      3          9           0        1.500000    0.000000    0.000000
 ---------------------------------------------------------------------

 SCF Done:  E(UB3LYP) =  -100.854666161     a.u. after    7 cycles

 Alpha  occ. eigenvalues --  -24.64355  -1.09690  -0.43239  -0.36431  -0.36431
 Alpha  occ. eigenvalues --   -0.33895
 Alpha virt. eigenvalues --   -0.14490   0.20311   0.27591   0.93504   0.93504
 Alpha virt. eigenvalues --    1.03515   1.09422   1.23616   1.23616   1.23623
 Alpha virt. eigenvalues --    1.31151   1.31151   1.73012   2.13149   2.18846

  Beta  occ. eigenvalues --  -24.64328  -1.09619  -0.43176  -0.36405  -0.36405
  Beta virt. eigenvalues --   -0.14725  -0.06502   0.23203   0.38250   0.93493
  Beta virt. eigenvalues --    0.93493   1.03583   1.09430   1.31021   1.31021
  Beta virt. eigenvalues --    1.45963   1.46398   1.46398   1.72982   2.17945

 Mulliken charges and spin densities:
               1          2
     1  H    0.349041  -0.007058
     2  H    0.001484   0.998433
     3  F   -0.350525   0.008625
 Sum of Mulliken charges =  -0.00000   1.00000

 Dipole moment (field-independent basis, Debye):
    X=             -2.6094    Y=             -0.0000    Z=              0.0000  Tot=              2.6094
 Quadrupole moment (field-independent basis, Debye-Ang):
   XX=             -9.9086   YY=             -7.3215   ZZ=             -7.3215
   XY=              0.0000   XZ=             -0.0000   YZ=              0.0000

  Exact polarizability:      15.273       0.000       2.187      -0.000      -0.000       2.187
 Approx polarizability:      28.805       0.000       2.112      -0.000      -0.000       2.112

 ******    2 imaginary frequencies (negative Signs) ******

                      1                      2                      3
                      A                      A                      A
 Frequencies --  -1149.8571               -70.0924              1017.4348
 Red. masses --      1.0577                 1.0539                 1.0310
 Frc consts  --      0.8239                 0.0031                 0.6288
 IR Inten    --     42.8008                 0.1408               118.0239

                      4
                      A
 Frequencies --   1017.4348
 Red. masses --      1.0310
 Frc consts  --      0.6288
 IR Inten    --    118.0239

 - Thermochemistry -
 -------------------
 Temperature   298.150 Kelvin.  Pressure   1.00000 Atm.
 Atom     1 has atomic number  1 and mass   1.00783

 Molecular mass:    21.01405 amu.
 Principal axes and moments of inertia in atomic units:
                           1         2         3
     Eigenvalues --     0.00000  94.18922  94.18922
           X            1.00000  -0.00000   0.00000
           Y            0.00000   1.00000   0.00000
           Z            0.00000   0.00000   1.00000
 This molecule is a prolate symmetric top.
 Rotational symmetry number  1.
 Rotational temperature (Kelvin)      0.91957
 Rotational constant (GHZ):          19.160803
    2 imaginary frequencies ignored.
 Zero-point vibrational energy      12171.2 (Joules/Mol)
                                    2.90899 (Kcal/Mol)
 Vibrational temperatures:   1463.86  1463.86
          (Kelvin)

 Zero-point correction=                           0.004636 (Hartree/Particle)
 Thermal correction to Energy=                    0.007065
 Thermal correction to Enthalpy=                  0.008009
 Thermal correction to Gibbs Free Energy=        -0.015793
 Sum of electronic and zero-point Energies=           -100.850030
 Sum of electronic and thermal Energies=              -100.847601
 Sum of electronic and thermal Enthalpies=            -100.846657
 Sum of electronic and thermal Free Energies=         -100.870459

                     E (Thermal)             CV                S
                      KCal/Mol        Cal/Mol-Kelvin    Cal/Mol-Kelvin
 Total                    4.433              5.685             50.096
 Electronic               0.000              0.000              1.377
 Translational            0.889              2.981             35.068
 Rotational               0.592              1.987             13.476
 Vibrational              2.952              0.717              0.174

 Normal termination of Gaussian 16 at Fri Aug 22 16:26:41 2025.
