 Gaussian 16, Revision C.01,
 Gaussian 16:  ES64L-G16RevC.01  3-Jul-2019

 -----------------------------------------
 # sp b3lyp/6-311g** Force nosymm scf=(qc)
 -----------------------------------------

 -------------------
 Title Card Required
 -------------------
 Symbolic Z-matrix:
 Charge =  0 Multiplicity = 2

                          Input orientation:
 ---------------------------------------------------------------------
 Center     Atomic      Atomic             Coordinates (Angstroms)
 Number     Number       Type             X           Y           Z
 ---------------------------------------------------------------------
      1          1           0        0.000000    0.000000    0.000000
      2          1           0       -3.300000    0.000000    0.000000
      3          9           0        1.200000    0.000000    0.000000
 ---------------------------------------------------------------------

 SCF Done:  E(UB3LYP) =  -100.925623468     a.u. after    6 cycles

 Alpha  occ. eigenvalues --  -24.64333  -1.12256  -0.47734  -0.37513  -0.37513
 Alpha  occ. eigenvalues --   -0.34043
 Alpha virt. eigenvalues --   -0.05674   0.22586   0.29378   0.93191   0.93191
 Alpha virt. eigenvalues --    1.00813   1.23419   1.23477   1.23477   1.26642
 Alpha virt. eigenvalues --    1.34640   1.34640   1.72979   2.13994   2.28590

  Beta  occ. eigenvalues --  -24.64326  -1.12239  -0.47714  -0.37507  -0.37507
  Beta virt. eigenvalues --   -0.08265  -0.04042   0.27090   0.38378   0.93190
  Beta virt. eigenvalues --    0.93190   1.00831   1.26505   1.34626   1.34626
  Beta virt. eigenvalues --    1.46900   1.46900   1.47007   1.73035   2.28452

 Mulliken charges and spin densities:
               1          2
     1  H    0.352372   0.000113
     2  H    0.001968   0.997765
     3  F   -0.354340   0.002122
 Sum of Mulliken charges =   0.00000   1.00000

 Dipole moment (field-independent basis, Debye):
    X=             -2.3081    Y=             -0.0000    Z=             -0.0000  Tot=              2.3081
 Quadrupole moment (field-independent basis, Debye-Ang):
   XX=             -8.8227   YY=             -7.1279   ZZ=             -7.1279
   XY=             -0.0000   XZ=             -0.0000   YZ=             -0.0000

  Exact polarizability:       9.952      -0.000       2.326       0.000      -0.000       2.326
 Approx polarizability:      13.858      -0.000       2.281      -0.000       0.000       2.281

 ******    1 imaginary frequencies (negative Signs) ******

                      1                      2                      3
                      A                      A                      A
 Frequencies --    -74.9975               999.9719              1201.0904
 Red. masses --      1.0523                 1.0593                 1.0332
 Frc consts  --      0.0035                 0.6241                 0.8782
 IR Inten    --      0.2674                72.4272               144.5313

                      4
                      A
 Frequencies --   1201.0904
 Red. masses --      1.0332
 Frc consts  --      0.8782
 IR Inten    --    144.5313

 - Thermochemistry -
 -------------------
 Temperature   298.150 Kelvin.  Pressure   1.00000 Atm.
 Atom     1 has atomic number  1 and mass   1.00783

 Molecular mass:    21.01405 amu.
 Principal axes and moments of inertia in atomic units:
                           1         2         3
     Eigenvalues --     0.00000  72.45450  72.45450
           X            1.00000  -0.00000   0.00000
           Y            0.00000   1.00000   0.00000
           Z            0.00000   0.00000   1.00000
 This molecule is a prolate symmetric top.
 Rotational symmetry number  1.
 Rotational temperature (Kelvin)      1.19543
 Rotational constant (GHZ):          24.908616
    1 imaginary frequencies ignored.
 Zero-point vibrational energy      20349.4 (Joules/Mol)
                                    4.86362 (Kcal/Mol)
 Vibrational temperatures:   1438.74  1728.10  1728.10
          (Kelvin)

 Zero-point correction=                           0.007751 (Hartree/Particle)
 Thermal correction to Energy=                    0.010181
 Thermal correction to Enthalpy=                  0.011126
 Thermal correction to Gibbs Free Energy=        -0.012430
 Sum of electronic and zero-point Energies=           -100.917873
 Sum of electronic and thermal Energies=              -100.915442
 Sum of electronic and thermal Enthalpies=            -100.914498
 Sum of electronic and thermal Free Energies=         -100.938053

                     E (Thermal)             CV                S
                      KCal/Mol        Cal/Mol-Kelvin    Cal/Mol-Kelvin
 Total                    6.389              5.754             49.576
 Electronic               0.000              0.000              1.377
 Translational            0.889              2.981             35.068
 Rotational               0.592              1.987             12.955
 Vibrational              4.908              0.786              0.176

 Normal termination of Gaussian 16 at Fri Aug 22 16:11:01 2025.
