 Gaussian 16, Revision C.01,
 Gaussian 16:  ES64L-G16RevC.01  3-Jul-2019

 -----------------------------------------
 # sp b3lyp/6-311g** Force nosymm scf=(qc)
 -----------------------------------------

 -------------------
 Title Card Required
 -------------------
 Symbolic Z-matrix:
 Charge =  0 Multiplicity = 2

                          Input orientation:
 ---------------------------------------------------------------------
 Center     Atomic      Atomic             Coordinates (Angstroms)
 Number     Number       Type             X           Y           Z
 ---------------------------------------------------------------------
      1          1           0        0.000000    0.000000    0.000000
      2          1           0       -2.450000    0.000000    0.000000
      3          9           0        3.450000    0.000000    0.000000
 ---------------------------------------------------------------------

 SCF Done:  E(UB3LYP) =  -100.763636392     a.u. after   31 cycles

 Alpha  occ. eigenvalues --  -24.75373  -1.21336  -0.54495  -0.45756  -0.45756
 Alpha  occ. eigenvalues --   -0.32739
 Alpha virt. eigenvalues --   -0.09768   0.25704   0.34063   0.87773   0.91486
 Alpha virt. eigenvalues --    0.91486   1.01913   1.24936   1.24936   1.26425
 Alpha virt. eigenvalues --    1.40879   1.40879   1.42896   2.15552   2.36475

  Beta  occ. eigenvalues --  -24.72262  -1.12397  -0.42638  -0.42638  -0.33047
  Beta virt. eigenvalues --   -0.25493  -0.09250   0.25531   0.34816   0.92974
  Beta virt. eigenvalues --    0.92974   0.96913   1.05942   1.24564   1.24564
  Beta virt. eigenvalues --    1.25976   1.41682   1.41682   1.43691   2.16155

 Mulliken charges and spin densities:
               1          2
     1  H    0.009239  -0.951669
     2  H    0.002839   0.965226
     3  F   -0.012078   0.986443
 Sum of Mulliken charges =  -0.00000   1.00000

 Dipole moment (field-independent basis, Debye):
    X=             -0.2470    Y=              0.0000    Z=             -0.0000  Tot=              0.2470
 Quadrupole moment (field-independent basis, Debye-Ang):
   XX=             -7.1404   YY=             -7.6691   ZZ=             -7.6691
   XY=             -0.0000   XZ=              0.0000   YZ=             -0.0000

  Exact polarizability:      35.763      -0.000       2.022       0.000       0.000       2.022
 Approx polarizability:      27.210      -0.000       1.928       0.000       0.000       1.928

 ******    2 imaginary frequencies (negative Signs) ******

                      1                      2                      3
                      A                      A                      A
 Frequencies --   -720.0740              -146.5464               266.0885
 Red. masses --      1.0080                 1.1083                 1.0143
 Frc consts  --      0.3079                 0.0140                 0.0423
 IR Inten    --      7.1569                 7.4138                 0.0555

                      4
                      A
 Frequencies --    266.0885
 Red. masses --      1.0143
 Frc consts  --      0.0423
 IR Inten    --      0.0555

 - Thermochemistry -
 -------------------
 Temperature   298.150 Kelvin.  Pressure   1.00000 Atm.
 Atom     1 has atomic number  1 and mass   1.00783

 Molecular mass:    21.01405 amu.
 Principal axes and moments of inertia in atomic units:
                           1         2         3
     Eigenvalues --     0.00000 153.02896 153.02896
           X            1.00000  -0.00000   0.00000
           Y            0.00000   1.00000   0.00000
           Z            0.00000   0.00000   1.00000
 This molecule is a prolate symmetric top.
 Rotational symmetry number  1.
 Rotational temperature (Kelvin)      0.56600
 Rotational constant (GHZ):          11.793462
    2 imaginary frequencies ignored.
 Zero-point vibrational energy       3183.1 (Joules/Mol)
                                    0.76079 (Kcal/Mol)
 Warning -- explicit consideration of   2 degrees of freedom as
           vibrations may cause significant error
 Vibrational temperatures:    382.84   382.84
          (Kelvin)

 Zero-point correction=                           0.001212 (Hartree/Particle)
 Thermal correction to Energy=                    0.004501
 Thermal correction to Enthalpy=                  0.005446
 Thermal correction to Gibbs Free Energy=        -0.020273
 Sum of electronic and zero-point Energies=           -100.762424
 Sum of electronic and thermal Energies=              -100.759135
 Sum of electronic and thermal Enthalpies=            -100.758191
 Sum of electronic and thermal Free Energies=         -100.783909

                     E (Thermal)             CV                S
                      KCal/Mol        Cal/Mol-Kelvin    Cal/Mol-Kelvin
 Total                    2.825              8.439             54.129
 Electronic               0.000              0.000              1.377
 Translational            0.889              2.981             35.068
 Rotational               0.592              1.987             14.441
 Vibrational              1.343              3.471              3.243
 Vibration     1          0.672              1.735              1.621
 Vibration     2          0.672              1.735              1.621

 Normal termination of Gaussian 16 at Fri Aug 22 21:41:47 2025.
