 Gaussian 16, Revision C.01,
 Gaussian 16:  ES64L-G16RevC.01  3-Jul-2019

 -----------------------------------------
 # sp b3lyp/6-311g** Force nosymm scf=(qc)
 -----------------------------------------

 -------------------
 Title Card Required
 -------------------
 Symbolic Z-matrix:
 Charge =  0 Multiplicity = 2

                          Input orientation:
 ---------------------------------------------------------------------
 Center     Atomic      Atomic             Coordinates (Angstroms)
 Number     Number       Type             X           Y           Z
 ---------------------------------------------------------------------
      1          1           0        0.000000    0.000000    0.000000
      2          1           0       -3.500000    0.000000    0.000000
      3          9           0        3.850000    0.000000    0.000000
 ---------------------------------------------------------------------

 SCF Done:  E(UB3LYP) =  -100.758720865     a.u. after   34 cycles

 Alpha  occ. eigenvalues --  -24.75792  -1.21726  -0.54917  -0.46109  -0.46109
 Alpha  occ. eigenvalues --   -0.32274
 Alpha virt. eigenvalues --   -0.06709   0.24373   0.37549   0.86769   0.91226
 Alpha virt. eigenvalues --    0.91226   1.01208   1.25230   1.25230   1.25380
 Alpha virt. eigenvalues --    1.45491   1.45727   1.45727   2.15086   2.41207

  Beta  occ. eigenvalues --  -24.72652  -1.12698  -0.42961  -0.42961  -0.32522
  Beta virt. eigenvalues --   -0.25688  -0.06446   0.24195   0.37959   0.92723
  Beta virt. eigenvalues --    0.92723   0.96097   1.05314   1.24957   1.24957
  Beta virt. eigenvalues --    1.25092   1.45911   1.46135   1.46135   2.15110

 Mulliken charges and spin densities:
               1          2
     1  H    0.003922  -0.993408
     2  H    0.000089   0.997856
     3  F   -0.004011   0.995551
 Sum of Mulliken charges =  -0.00000   1.00000

 Dipole moment (field-independent basis, Debye):
    X=             -0.0813    Y=             -0.0000    Z=             -0.0000  Tot=              0.0813
 Quadrupole moment (field-independent basis, Debye-Ang):
   XX=             -7.0006   YY=             -7.6237   ZZ=             -7.6237
   XY=             -0.0000   XZ=             -0.0000   YZ=              0.0000

  Exact polarizability:      14.179      -0.000       2.025       0.000       0.000       2.025
 Approx polarizability:      10.482      -0.000       1.936      -0.000       0.000       1.936

 ******    2 imaginary frequencies (negative Signs) ******

                      1                      2                      3
                      A                      A                      A
 Frequencies --   -200.4007               -79.2971                67.4549
 Red. masses --      1.0132                 1.1021                 1.0168
 Frc consts  --      0.0240                 0.0041                 0.0027
 IR Inten    --      1.8723                 0.7665                 0.0159

                      4
                      A
 Frequencies --     67.4549
 Red. masses --      1.0168
 Frc consts  --      0.0027
 IR Inten    --      0.0159

 - Thermochemistry -
 -------------------
 Temperature   298.150 Kelvin.  Pressure   1.00000 Atm.
 Atom     1 has atomic number  1 and mass   1.00783

 Molecular mass:    21.01405 amu.
 Principal axes and moments of inertia in atomic units:
                           1         2         3
     Eigenvalues --     0.00000 226.12193 226.12193
           X            1.00000  -0.00000   0.00000
           Y            0.00000   1.00000   0.00000
           Z            0.00000   0.00000   1.00000
 This molecule is a prolate symmetric top.
 Rotational symmetry number  1.
 Rotational temperature (Kelvin)      0.38304
 Rotational constant (GHZ):           7.981274
    2 imaginary frequencies ignored.
 Zero-point vibrational energy        806.9 (Joules/Mol)
                                    0.19286 (Kcal/Mol)
 Warning -- explicit consideration of   2 degrees of freedom as
           vibrations may cause significant error
 Vibrational temperatures:     97.05    97.05
          (Kelvin)

 Zero-point correction=                           0.000307 (Hartree/Particle)
 Thermal correction to Energy=                    0.004265
 Thermal correction to Enthalpy=                  0.005210
 Thermal correction to Gibbs Free Energy=        -0.023353
 Sum of electronic and zero-point Energies=           -100.758414
 Sum of electronic and thermal Energies=              -100.754455
 Sum of electronic and thermal Enthalpies=            -100.753511
 Sum of electronic and thermal Free Energies=         -100.782074

                     E (Thermal)             CV                S
                      KCal/Mol        Cal/Mol-Kelvin    Cal/Mol-Kelvin
 Total                    2.677              8.908             60.114
 Electronic               0.000              0.000              1.377
 Translational            0.889              2.981             35.068
 Rotational               0.592              1.987             15.216
 Vibrational              1.195              3.939              8.453
 Vibration     1          0.598              1.970              4.226
 Vibration     2          0.598              1.970              4.226

 Normal termination of Gaussian 16 at Sat Aug 23 01:11:01 2025.
