 Gaussian 16, Revision C.01,
 Gaussian 16:  ES64L-G16RevC.01  3-Jul-2019

 -----------------------------------------
 # sp b3lyp/6-311g** Force nosymm scf=(qc)
 -----------------------------------------

 -------------------
 Title Card Required
 -------------------
 Symbolic Z-matrix:
 Charge =  0 Multiplicity = 2

                          Input orientation:
 ---------------------------------------------------------------------
 Center     Atomic      Atomic             Coordinates (Angstroms)
 Number     Number       Type             X           Y           Z
 ---------------------------------------------------------------------
      1          1           0        0.000000    0.000000    0.000000
      2          1           0       -1.600000    0.000000    0.000000
      3          9           0        0.600000    0.000000    0.000000
 ---------------------------------------------------------------------

 SCF Done:  E(UB3LYP) =  -100.683130250     a.u. after    7 cycles

 Alpha  occ. eigenvalues --  -24.62809  -1.34971  -0.61566  -0.43080  -0.43080
 Alpha  occ. eigenvalues --   -0.35607
 Alpha virt. eigenvalues --    0.13398   0.22349   0.57402   0.91843   0.91843
 Alpha virt. eigenvalues --    0.93001   1.19721   1.19721   1.35921   1.52377
 Alpha virt. eigenvalues --    1.52377   1.62146   1.98715   2.19301   3.48109

  Beta  occ. eigenvalues --  -24.62731  -1.34728  -0.61189  -0.43027  -0.43027
  Beta virt. eigenvalues --   -0.11234   0.14604   0.31427   0.61452   0.91932
  Beta virt. eigenvalues --    0.91932   0.93175   1.35949   1.35949   1.41260
  Beta virt. eigenvalues --    1.55023   1.55023   1.72170   1.99027   2.43706

 Mulliken charges and spin densities:
               1          2
     1  H    0.217443   0.015504
     2  H    0.011363   0.977726
     3  F   -0.228807   0.006771
 Sum of Mulliken charges =   0.00000   1.00000

 Dipole moment (field-independent basis, Debye):
    X=             -1.4715    Y=              0.0000    Z=              0.0000  Tot=              1.4715
 Quadrupole moment (field-independent basis, Debye-Ang):
   XX=             -6.8083   YY=             -6.4842   ZZ=             -6.4842
   XY=             -0.0000   XZ=              0.0000   YZ=              0.0000

  Exact polarizability:       6.210      -0.000       2.507       0.000      -0.000       2.507
 Approx polarizability:       5.940      -0.000       2.515       0.000      -0.000       2.515

 ******    2 imaginary frequencies (negative Signs) ******

                      1                      2                      3
                      A                      A                      A
 Frequencies --  -5753.3276             -5753.3276               762.1791
 Red. masses --      1.0327                 1.0327                 1.0534
 Frc consts  --     20.1404                20.1404                 0.3605
 IR Inten    --    180.6822               180.6822                 2.6621

                      4
                      A
 Frequencies --  13069.3561
 Red. masses --      1.0582
 Frc consts  --    106.4903
 IR Inten    --    114.9898

 - Thermochemistry -
 -------------------
 Temperature   298.150 Kelvin.  Pressure   1.00000 Atm.
 Atom     1 has atomic number  1 and mass   1.00783

 Molecular mass:    21.01405 amu.
 Principal axes and moments of inertia in atomic units:
                           1         2         3
     Eigenvalues --     0.00000  17.36161  17.36161
           X            1.00000  -0.00000   0.00000
           Y            0.00000   1.00000   0.00000
           Z            0.00000   0.00000   1.00000
 This molecule is a prolate symmetric top.
 Rotational symmetry number  1.
 Rotational temperature (Kelvin)      4.98882
 Rotational constant (GHZ):         103.950129
    2 imaginary frequencies ignored.
 Zero-point vibrational energy      82731.0 (Joules/Mol)
                                   19.77317 (Kcal/Mol)
 Vibrational temperatures:   1096.61 18803.89
          (Kelvin)

 Zero-point correction=                           0.031511 (Hartree/Particle)
 Thermal correction to Energy=                    0.033961
 Thermal correction to Enthalpy=                  0.034905
 Thermal correction to Gibbs Free Energy=         0.012668
 Sum of electronic and zero-point Energies=           -100.651620
 Sum of electronic and thermal Energies=              -100.649169
 Sum of electronic and thermal Enthalpies=            -100.648225
 Sum of electronic and thermal Free Energies=         -100.670462

                     E (Thermal)             CV                S
                      KCal/Mol        Cal/Mol-Kelvin    Cal/Mol-Kelvin
 Total                   21.311              5.683             46.801
 Electronic               0.000              0.000              1.377
 Translational            0.889              2.981             35.068
 Rotational               0.592              1.987             10.116
 Vibrational             19.830              0.715              0.240

 Normal termination of Gaussian 16 at Fri Aug 22 15:41:25 2025.
