 Gaussian 16, Revision C.01,
 Gaussian 16:  ES64L-G16RevC.01  3-Jul-2019

 -----------------------------------------
 # sp b3lyp/6-311g** Force nosymm scf=(qc)
 -----------------------------------------

 -------------------
 Title Card Required
 -------------------
 Symbolic Z-matrix:
 Charge =  0 Multiplicity = 2

                          Input orientation:
 ---------------------------------------------------------------------
 Center     Atomic      Atomic             Coordinates (Angstroms)
 Number     Number       Type             X           Y           Z
 ---------------------------------------------------------------------
      1          1           0        0.000000    0.000000    0.000000
      2          1           0       -2.850000    0.000000    0.000000
      3          9           0        1.350000    0.000000    0.000000
 ---------------------------------------------------------------------

 SCF Done:  E(UB3LYP) =  -100.889562058     a.u. after    7 cycles

 Alpha  occ. eigenvalues --  -24.64259  -1.10588  -0.45253  -0.36783  -0.36783
 Alpha  occ. eigenvalues --   -0.34788
 Alpha virt. eigenvalues --   -0.10116   0.22544   0.27581   0.93123   0.93123
 Alpha virt. eigenvalues --    1.02701   1.18960   1.22736   1.22736   1.23910
 Alpha virt. eigenvalues --    1.33400   1.33400   1.71671   2.13776   2.23540

  Beta  occ. eigenvalues --  -24.64219  -1.10487  -0.45123  -0.36746  -0.36746
  Beta virt. eigenvalues --   -0.12151  -0.06178   0.25575   0.37087   0.93115
  Beta virt. eigenvalues --    0.93115   1.02804   1.19452   1.33277   1.33277
  Beta virt. eigenvalues --    1.44535   1.44691   1.44691   1.71861   2.23349

 Mulliken charges and spin densities:
               1          2
     1  H    0.353531  -0.004667
     2  H    0.006794   0.992281
     3  F   -0.360325   0.012386
 Sum of Mulliken charges =  -0.00000   1.00000

 Dipole moment (field-independent basis, Debye):
    X=             -2.5407    Y=             -0.0000    Z=              0.0000  Tot=              2.5407
 Quadrupole moment (field-independent basis, Debye-Ang):
   XX=             -9.1471   YY=             -7.2335   ZZ=             -7.2335
   XY=             -0.0000   XZ=              0.0000   YZ=             -0.0000

  Exact polarizability:      14.599      -0.000       2.265       0.000       0.000       2.265
 Approx polarizability:      21.924      -0.000       2.206       0.000       0.000       2.206

 ******    2 imaginary frequencies (negative Signs) ******

                      1                      2                      3
                      A                      A                      A
 Frequencies --   -911.8925              -140.7059              1114.3957
 Red. masses --      1.0531                 1.0585                 1.0289
 Frc consts  --      0.5159                 0.0123                 0.7529
 IR Inten    --     86.2779                 0.6134               123.0471

                      4
                      A
 Frequencies --   1114.3957
 Red. masses --      1.0289
 Frc consts  --      0.7529
 IR Inten    --    123.0471

 - Thermochemistry -
 -------------------
 Temperature   298.150 Kelvin.  Pressure   1.00000 Atm.
 Atom     1 has atomic number  1 and mass   1.00783

 Molecular mass:    21.01405 amu.
 Principal axes and moments of inertia in atomic units:
                           1         2         3
     Eigenvalues --     0.00000  64.72898  64.72898
           X            1.00000  -0.00000   0.00000
           Y            0.00000   1.00000   0.00000
           Z            0.00000   0.00000   1.00000
 This molecule is a prolate symmetric top.
 Rotational symmetry number  1.
 Rotational temperature (Kelvin)      1.33810
 Rotational constant (GHZ):          27.881503
    2 imaginary frequencies ignored.
 Zero-point vibrational energy      13331.1 (Joules/Mol)
                                    3.18622 (Kcal/Mol)
 Vibrational temperatures:   1603.37  1603.37
          (Kelvin)

 Zero-point correction=                           0.005078 (Hartree/Particle)
 Thermal correction to Energy=                    0.007485
 Thermal correction to Enthalpy=                  0.008429
 Thermal correction to Gibbs Free Energy=        -0.014992
 Sum of electronic and zero-point Energies=           -100.884484
 Sum of electronic and thermal Energies=              -100.882077
 Sum of electronic and thermal Enthalpies=            -100.881133
 Sum of electronic and thermal Free Energies=         -100.904554

                     E (Thermal)             CV                S
                      KCal/Mol        Cal/Mol-Kelvin    Cal/Mol-Kelvin
 Total                    4.697              5.504             49.294
 Electronic               0.000              0.000              1.377
 Translational            0.889              2.981             35.068
 Rotational               0.592              1.987             12.731
 Vibrational              3.216              0.536              0.118

 Normal termination of Gaussian 16 at Fri Aug 22 16:18:11 2025.
