 Gaussian 16, Revision C.01,
 Gaussian 16:  ES64L-G16RevC.01  3-Jul-2019

 -----------------------------------------
 # sp b3lyp/6-311g** Force nosymm scf=(qc)
 -----------------------------------------

 -------------------
 Title Card Required
 -------------------
 Symbolic Z-matrix:
 Charge =  0 Multiplicity = 2

                          Input orientation:
 ---------------------------------------------------------------------
 Center     Atomic      Atomic             Coordinates (Angstroms)
 Number     Number       Type             X           Y           Z
 ---------------------------------------------------------------------
      1          1           0        0.000000    0.000000    0.000000
      2          1           0       -2.100000    0.000000    0.000000
      3          9           0        2.650000    0.000000    0.000000
 ---------------------------------------------------------------------

 SCF Done:  E(UB3LYP) =  -100.775965251     a.u. after   19 cycles

 Alpha  occ. eigenvalues --  -24.72692  -1.18839  -0.51803  -0.43497  -0.43497
 Alpha  occ. eigenvalues --   -0.34241
 Alpha virt. eigenvalues --   -0.12330   0.25115   0.32290   0.90346   0.93108
 Alpha virt. eigenvalues --    0.93108   1.05915   1.21865   1.23664   1.23664
 Alpha virt. eigenvalues --    1.36180   1.36180   1.45890   2.12032   2.34696

  Beta  occ. eigenvalues --  -24.69772  -1.10501  -0.40580  -0.40580  -0.34707
  Beta virt. eigenvalues --   -0.24034  -0.11139   0.26341   0.32727   0.94523
  Beta virt. eigenvalues --    0.94523   0.98220   1.09331   1.22867   1.23148
  Beta virt. eigenvalues --    1.23148   1.38138   1.38138   1.47035   2.12928

 Mulliken charges and spin densities:
               1          2
     1  H    0.045641  -0.826162
     2  H    0.020928   0.902177
     3  F   -0.066569   0.923985
 Sum of Mulliken charges =   0.00000   1.00000

 Dipole moment (field-independent basis, Debye):
    X=             -1.1117    Y=             -0.0000    Z=             -0.0000  Tot=              1.1117
 Quadrupole moment (field-independent basis, Debye-Ang):
   XX=             -8.0901   YY=             -7.6683   ZZ=             -7.6683
   XY=              0.0000   XZ=              0.0000   YZ=             -0.0000

  Exact polarizability:      57.439       0.000       2.006       0.000       0.000       2.006
 Approx polarizability:      57.422       0.000       1.923       0.000       0.000       1.923

 ******    2 imaginary frequencies (negative Signs) ******

                      1                      2                      3
                      A                      A                      A
 Frequencies --  -1218.3450              -341.2089               481.7331
 Red. masses --      1.0090                 1.1071                 1.0154
 Frc consts  --      0.8824                 0.0759                 0.1388
 IR Inten    --     48.3991                43.3580                 1.2153

                      4
                      A
 Frequencies --    481.7331
 Red. masses --      1.0154
 Frc consts  --      0.1388
 IR Inten    --      1.2153

 - Thermochemistry -
 -------------------
 Temperature   298.150 Kelvin.  Pressure   1.00000 Atm.
 Atom     1 has atomic number  1 and mass   1.00783

 Molecular mass:    21.01405 amu.
 Principal axes and moments of inertia in atomic units:
                           1         2         3
     Eigenvalues --     0.00000  97.02471  97.02471
           X            1.00000  -0.00000   0.00000
           Y            0.00000   1.00000   0.00000
           Z            0.00000   0.00000   1.00000
 This molecule is a prolate symmetric top.
 Rotational symmetry number  1.
 Rotational temperature (Kelvin)      0.89270
 Rotational constant (GHZ):          18.600840
    2 imaginary frequencies ignored.
 Zero-point vibrational energy       5762.8 (Joules/Mol)
                                    1.37734 (Kcal/Mol)
 Warning -- explicit consideration of   2 degrees of freedom as
           vibrations may cause significant error
 Vibrational temperatures:    693.11   693.11
          (Kelvin)

 Zero-point correction=                           0.002195 (Hartree/Particle)
 Thermal correction to Energy=                    0.005031
 Thermal correction to Enthalpy=                  0.005976
 Thermal correction to Gibbs Free Energy=        -0.018442
 Sum of electronic and zero-point Energies=           -100.773770
 Sum of electronic and thermal Energies=              -100.770934
 Sum of electronic and thermal Enthalpies=            -100.769990
 Sum of electronic and thermal Free Energies=         -100.794407

                     E (Thermal)             CV                S
                      KCal/Mol        Cal/Mol-Kelvin    Cal/Mol-Kelvin
 Total                    3.157              7.549             51.391
 Electronic               0.000              0.000              1.377
 Translational            0.889              2.981             35.068
 Rotational               0.592              1.987             13.535
 Vibrational              1.676              2.581              1.411
 Vibration     1          0.838              1.291              0.705
 Vibration     2          0.838              1.291              0.705

 Normal termination of Gaussian 16 at Fri Aug 22 18:14:26 2025.
