 Gaussian 16, Revision C.01,
 Gaussian 16:  ES64L-G16RevC.01  3-Jul-2019

 -----------------------------------------
 # sp b3lyp/6-311g** Force nosymm scf=(qc)
 -----------------------------------------

 -------------------
 Title Card Required
 -------------------
 Symbolic Z-matrix:
 Charge =  0 Multiplicity = 2

                          Input orientation:
 ---------------------------------------------------------------------
 Center     Atomic      Atomic             Coordinates (Angstroms)
 Number     Number       Type             X           Y           Z
 ---------------------------------------------------------------------
      1          1           0        0.000000    0.000000    0.000000
      2          1           0       -1.900000    0.000000    0.000000
      3          9           0        3.600000    0.000000    0.000000
 ---------------------------------------------------------------------

 SCF Done:  E(UB3LYP) =  -100.779501480     a.u. after   69 cycles

 Alpha  occ. eigenvalues --  -24.75762  -1.21699  -0.54887  -0.46090  -0.46090
 Alpha  occ. eigenvalues --   -0.33144
 Alpha virt. eigenvalues --   -0.11070   0.25852   0.31709   0.87273   0.91226
 Alpha virt. eigenvalues --    0.91226   1.01462   1.13273   1.24779   1.24779
 Alpha virt. eigenvalues --    1.37486   1.37486   1.55699   2.13567   2.37678

  Beta  occ. eigenvalues --  -24.72630  -1.12697  -0.42951  -0.42951  -0.33178
  Beta virt. eigenvalues --   -0.25735  -0.10912   0.25739   0.32045   0.92720
  Beta virt. eigenvalues --    0.92720   0.96513   1.05541   1.13293   1.24740
  Beta virt. eigenvalues --    1.24740   1.37683   1.37683   1.55849   2.13974

 Mulliken charges and spin densities:
               1          2
     1  H    0.000435  -0.794908
     2  H    0.005481   0.801965
     3  F   -0.005916   0.992944
 Sum of Mulliken charges =   0.00000   1.00000

 Dipole moment (field-independent basis, Debye):
    X=             -0.1579    Y=             -0.0000    Z=              0.0000  Tot=              0.1579
 Quadrupole moment (field-independent basis, Debye-Ang):
   XX=             -6.3472   YY=             -7.7420   ZZ=             -7.7420
   XY=             -0.0001   XZ=              0.0000   YZ=              0.0000

  Exact polarizability:      39.956      -0.000       2.007       0.000      -0.000       2.007
 Approx polarizability:      39.149      -0.000       1.946       0.000      -0.000       1.946

 ******    2 imaginary frequencies (negative Signs) ******

                      1                      2                      3
                      A                      A                      A
 Frequencies --  -1541.1964              -115.5166               652.8264
 Red. masses --      1.0078                 1.1085                 1.0121
 Frc consts  --      1.4104                 0.0087                 0.2541
 IR Inten    --      7.7895                 4.0620                 0.0024

                      4
                      A
 Frequencies --    652.8264
 Red. masses --      1.0121
 Frc consts  --      0.2541
 IR Inten    --      0.0024

 - Thermochemistry -
 -------------------
 Temperature   298.150 Kelvin.  Pressure   1.00000 Atm.
 Atom     1 has atomic number  1 and mass   1.00783

 Molecular mass:    21.01405 amu.
 Principal axes and moments of inertia in atomic units:
                           1         2         3
     Eigenvalues --     0.00000 141.21958 141.21958
           X            1.00000  -0.00000   0.00000
           Y            0.00000   1.00000   0.00000
           Z            0.00000   0.00000   1.00000
 This molecule is a prolate symmetric top.
 Rotational symmetry number  1.
 Rotational temperature (Kelvin)      0.61333
 Rotational constant (GHZ):          12.779681
    2 imaginary frequencies ignored.
 Zero-point vibrational energy       7809.5 (Joules/Mol)
                                    1.86652 (Kcal/Mol)
 Vibrational temperatures:    939.27   939.27
          (Kelvin)

 Zero-point correction=                           0.002974 (Hartree/Particle)
 Thermal correction to Energy=                    0.005601
 Thermal correction to Enthalpy=                  0.006545
 Thermal correction to Gibbs Free Energy=        -0.017905
 Sum of electronic and zero-point Energies=           -100.776527
 Sum of electronic and thermal Energies=              -100.773900
 Sum of electronic and thermal Enthalpies=            -100.772956
 Sum of electronic and thermal Free Energies=         -100.797407

                     E (Thermal)             CV                S
                      KCal/Mol        Cal/Mol-Kelvin    Cal/Mol-Kelvin
 Total                    3.515              6.812             51.461
 Electronic               0.000              0.000              1.377
 Translational            0.889              2.981             35.068
 Rotational               0.592              1.987             14.281
 Vibrational              2.034              1.844              0.734

 Normal termination of Gaussian 16 at Fri Aug 22 23:05:20 2025.
