 Gaussian 16, Revision C.01,
 Gaussian 16:  ES64L-G16RevC.01  3-Jul-2019

 -----------------------------------------
 # sp b3lyp/6-311g** Force nosymm scf=(qc)
 -----------------------------------------

 -------------------
 Title Card Required
 -------------------
 Symbolic Z-matrix:
 Charge =  0 Multiplicity = 2

                          Input orientation:
 ---------------------------------------------------------------------
 Center     Atomic      Atomic             Coordinates (Angstroms)
 Number     Number       Type             X           Y           Z
 ---------------------------------------------------------------------
      1          1           0        0.000000    0.000000    0.000000
      2          1           0       -2.100000    0.000000    0.000000
      3          9           0        2.800000    0.000000    0.000000
 ---------------------------------------------------------------------

 SCF Done:  E(UB3LYP) =  -100.774152838     a.u. after   21 cycles

 Alpha  occ. eigenvalues --  -24.73448  -1.19546  -0.52563  -0.44134  -0.44134
 Alpha  occ. eigenvalues --   -0.33924
 Alpha virt. eigenvalues --   -0.11983   0.25304   0.32272   0.90222   0.92663
 Alpha virt. eigenvalues --    0.92663   1.05206   1.20924   1.23986   1.23986
 Alpha virt. eigenvalues --    1.36724   1.36724   1.46186   2.12368   2.35354

  Beta  occ. eigenvalues --  -24.70470  -1.11026  -0.41156  -0.41156  -0.34292
  Beta virt. eigenvalues --   -0.24470  -0.10994   0.26149   0.32841   0.94105
  Beta virt. eigenvalues --    0.94105   0.98615   1.08976   1.21016   1.23525
  Beta virt. eigenvalues --    1.23525   1.38331   1.38331   1.47370   2.13499

 Mulliken charges and spin densities:
               1          2
     1  H    0.033126  -0.843813
     2  H    0.017218   0.900899
     3  F   -0.050344   0.942914
 Sum of Mulliken charges =   0.00000   1.00000

 Dipole moment (field-independent basis, Debye):
    X=             -0.8947    Y=             -0.0000    Z=              0.0000  Tot=              0.8947
 Quadrupole moment (field-independent basis, Debye-Ang):
   XX=             -7.8376   YY=             -7.6827   ZZ=             -7.6827
   XY=             -0.0000   XZ=              0.0000   YZ=             -0.0000

  Exact polarizability:      57.654       0.000       2.005      -0.000      -0.000       2.005
 Approx polarizability:      54.904       0.000       1.924      -0.000      -0.000       1.924

 ******    2 imaginary frequencies (negative Signs) ******

                      1                      2                      3
                      A                      A                      A
 Frequencies --  -1206.4655              -296.6906               475.1959
 Red. masses --      1.0085                 1.1078                 1.0148
 Frc consts  --      0.8648                 0.0575                 0.1350
 IR Inten    --     40.4790                36.9965                 0.6014

                      4
                      A
 Frequencies --    475.1959
 Red. masses --      1.0148
 Frc consts  --      0.1350
 IR Inten    --      0.6014

 - Thermochemistry -
 -------------------
 Temperature   298.150 Kelvin.  Pressure   1.00000 Atm.
 Atom     1 has atomic number  1 and mass   1.00783

 Molecular mass:    21.01405 amu.
 Principal axes and moments of inertia in atomic units:
                           1         2         3
     Eigenvalues --     0.00000 104.39456 104.39456
           X            1.00000  -0.00000   0.00000
           Y            0.00000   1.00000   0.00000
           Z            0.00000   0.00000   1.00000
 This molecule is a prolate symmetric top.
 Rotational symmetry number  1.
 Rotational temperature (Kelvin)      0.82968
 Rotational constant (GHZ):          17.287694
    2 imaginary frequencies ignored.
 Zero-point vibrational energy       5684.6 (Joules/Mol)
                                    1.35865 (Kcal/Mol)
 Warning -- explicit consideration of   2 degrees of freedom as
           vibrations may cause significant error
 Vibrational temperatures:    683.70   683.70
          (Kelvin)

 Zero-point correction=                           0.002165 (Hartree/Particle)
 Thermal correction to Energy=                    0.005012
 Thermal correction to Enthalpy=                  0.005956
 Thermal correction to Gibbs Free Energy=        -0.018548
 Sum of electronic and zero-point Energies=           -100.771988
 Sum of electronic and thermal Energies=              -100.769141
 Sum of electronic and thermal Enthalpies=            -100.768197
 Sum of electronic and thermal Free Energies=         -100.792700

                     E (Thermal)             CV                S
                      KCal/Mol        Cal/Mol-Kelvin    Cal/Mol-Kelvin
 Total                    3.145              7.578             51.572
 Electronic               0.000              0.000              1.377
 Translational            0.889              2.981             35.068
 Rotational               0.592              1.987             13.681
 Vibrational              1.664              2.610              1.446
 Vibration     1          0.832              1.305              0.723
 Vibration     2          0.832              1.305              0.723

 Normal termination of Gaussian 16 at Fri Aug 22 18:43:08 2025.
