 Gaussian 16, Revision C.01,
 Gaussian 16:  ES64L-G16RevC.01  3-Jul-2019

 -----------------------------------------
 # sp b3lyp/6-311g** Force nosymm scf=(qc)
 -----------------------------------------

 -------------------
 Title Card Required
 -------------------
 Symbolic Z-matrix:
 Charge =  0 Multiplicity = 2

                          Input orientation:
 ---------------------------------------------------------------------
 Center     Atomic      Atomic             Coordinates (Angstroms)
 Number     Number       Type             X           Y           Z
 ---------------------------------------------------------------------
      1          1           0        0.000000    0.000000    0.000000
      2          1           0       -3.600000    0.000000    0.000000
      3          9           0        2.600000    0.000000    0.000000
 ---------------------------------------------------------------------

 SCF Done:  E(UB3LYP) =  -100.765499620     a.u. after   21 cycles

 Alpha  occ. eigenvalues --  -24.72296  -1.18479  -0.51405  -0.43177  -0.43177
 Alpha  occ. eigenvalues --   -0.32779
 Alpha virt. eigenvalues --   -0.09692   0.23573   0.35565   0.89877   0.93313
 Alpha virt. eigenvalues --    0.93313   1.05994   1.24727   1.24727   1.24839
 Alpha virt. eigenvalues --    1.41449   1.41449   1.44125   2.14440   2.37772

  Beta  occ. eigenvalues --  -24.69405  -1.10236  -0.40292  -0.40292  -0.34966
  Beta virt. eigenvalues --   -0.23698  -0.06539   0.23892   0.37981   0.94712
  Beta virt. eigenvalues --    0.94712   0.97051   1.08675   1.22404   1.22404
  Beta virt. eigenvalues --    1.27229   1.45929   1.46188   1.46188   2.13219

 Mulliken charges and spin densities:
               1          2
     1  H    0.076226  -0.912561
     2  H    0.000609   0.998391
     3  F   -0.076835   0.914170
 Sum of Mulliken charges =  -0.00000   1.00000

 Dipole moment (field-independent basis, Debye):
    X=             -1.0300    Y=              0.0000    Z=             -0.0000  Tot=              1.0300
 Quadrupole moment (field-independent basis, Debye-Ang):
   XX=             -9.1279   YY=             -7.5805   ZZ=             -7.5805
   XY=              0.0000   XZ=             -0.0000   YZ=             -0.0000

  Exact polarizability:      31.262       0.000       2.024      -0.000       0.000       2.024
 Approx polarizability:      38.201      -0.000       1.921      -0.000      -0.000       1.921

 ******    2 imaginary frequencies (negative Signs) ******

                      1                      2                      3
                      A                      A                      A
 Frequencies --   -556.0491              -107.8934               212.3005
 Red. masses --      1.0542                 1.0573                 1.0223
 Frc consts  --      0.1920                 0.0073                 0.0271
 IR Inten    --     71.6287                 0.2133                 5.5753

                      4
                      A
 Frequencies --    212.3005
 Red. masses --      1.0223
 Frc consts  --      0.0271
 IR Inten    --      5.5753

 - Thermochemistry -
 -------------------
 Temperature   298.150 Kelvin.  Pressure   1.00000 Atm.
 Atom     1 has atomic number  1 and mass   1.00783

 Molecular mass:    21.01405 amu.
 Principal axes and moments of inertia in atomic units:
                           1         2         3
     Eigenvalues --     0.00000 149.30851 149.30851
           X            1.00000  -0.00000   0.00000
           Y            0.00000   1.00000   0.00000
           Z            0.00000   0.00000   1.00000
 This molecule is a prolate symmetric top.
 Rotational symmetry number  1.
 Rotational temperature (Kelvin)      0.58010
 Rotational constant (GHZ):          12.087330
    2 imaginary frequencies ignored.
 Zero-point vibrational energy       2539.7 (Joules/Mol)
                                    0.60700 (Kcal/Mol)
 Warning -- explicit consideration of   2 degrees of freedom as
           vibrations may cause significant error
 Vibrational temperatures:    305.45   305.45
          (Kelvin)

 Zero-point correction=                           0.000967 (Hartree/Particle)
 Thermal correction to Energy=                    0.004411
 Thermal correction to Enthalpy=                  0.005355
 Thermal correction to Gibbs Free Energy=        -0.020722
 Sum of electronic and zero-point Energies=           -100.764532
 Sum of electronic and thermal Energies=              -100.761088
 Sum of electronic and thermal Enthalpies=            -100.760144
 Sum of electronic and thermal Free Energies=         -100.786222

                     E (Thermal)             CV                S
                      KCal/Mol        Cal/Mol-Kelvin    Cal/Mol-Kelvin
 Total                    2.768              8.612             54.885
 Electronic               0.000              0.000              1.377
 Translational            0.889              2.981             35.068
 Rotational               0.592              1.987             14.392
 Vibrational              1.287              3.644              4.048
 Vibration     1          0.643              1.822              2.024
 Vibration     2          0.643              1.822              2.024

 Normal termination of Gaussian 16 at Fri Aug 22 18:05:18 2025.
