 Gaussian 16, Revision C.01,
 Gaussian 16:  ES64L-G16RevC.01  3-Jul-2019

 -----------------------------------------
 # sp b3lyp/6-311g** Force nosymm scf=(qc)
 -----------------------------------------

 -------------------
 Title Card Required
 -------------------
 Symbolic Z-matrix:
 Charge =  0 Multiplicity = 2

                          Input orientation:
 ---------------------------------------------------------------------
 Center     Atomic      Atomic             Coordinates (Angstroms)
 Number     Number       Type             X           Y           Z
 ---------------------------------------------------------------------
      1          1           0        0.000000    0.000000    0.000000
      2          1           0       -3.600000    0.000000    0.000000
      3          9           0        3.350000    0.000000    0.000000
 ---------------------------------------------------------------------

 SCF Done:  E(UB3LYP) =  -100.759404550     a.u. after   27 cycles

 Alpha  occ. eigenvalues --  -24.75091  -1.21076  -0.54213  -0.45518  -0.45518
 Alpha  occ. eigenvalues --   -0.32371
 Alpha virt. eigenvalues --   -0.07093   0.24158   0.36807   0.88099   0.91664
 Alpha virt. eigenvalues --    0.91664   1.02269   1.25130   1.25130   1.25236
 Alpha virt. eigenvalues --    1.45164   1.45164   1.45365   2.14843   2.41385

  Beta  occ. eigenvalues --  -24.71996  -1.12188  -0.42417  -0.42417  -0.33030
  Beta virt. eigenvalues --   -0.25328  -0.06340   0.23922   0.38017   0.93147
  Beta virt. eigenvalues --    0.93147   0.97129   1.06212   1.24372   1.24372
  Beta virt. eigenvalues --    1.24471   1.46068   1.46291   1.46291   2.15105

 Mulliken charges and spin densities:
               1          2
     1  H    0.016932  -0.979588
     2  H    0.000188   0.998361
     3  F   -0.017120   0.981227
 Sum of Mulliken charges =  -0.00000   1.00000

 Dipole moment (field-independent basis, Debye):
    X=             -0.2980    Y=              0.0000    Z=              0.0000  Tot=              0.2980
 Quadrupole moment (field-independent basis, Debye-Ang):
   XX=             -7.6470   YY=             -7.6183   ZZ=             -7.6183
   XY=             -0.0000   XZ=             -0.0000   YZ=             -0.0000

  Exact polarizability:      26.938      -0.000       2.032      -0.000      -0.000       2.032
 Approx polarizability:      22.859      -0.000       1.932      -0.000       0.000       1.932

 ******    2 imaginary frequencies (negative Signs) ******

                      1                      2                      3
                      A                      A                      A
 Frequencies --   -268.7384              -100.6862                85.0360
 Red. masses --      1.0387                 1.0735                 1.0188
 Frc consts  --      0.0442                 0.0064                 0.0043
 IR Inten    --     17.6673                 0.7613                 0.2620

                      4
                      A
 Frequencies --     85.0360
 Red. masses --      1.0188
 Frc consts  --      0.0043
 IR Inten    --      0.2620

 - Thermochemistry -
 -------------------
 Temperature   298.150 Kelvin.  Pressure   1.00000 Atm.
 Atom     1 has atomic number  1 and mass   1.00783

 Molecular mass:    21.01405 amu.
 Principal axes and moments of inertia in atomic units:
                           1         2         3
     Eigenvalues --     0.00000 195.91912 195.91912
           X            1.00000  -0.00000   0.00000
           Y            0.00000   1.00000   0.00000
           Z            0.00000   0.00000   1.00000
 This molecule is a prolate symmetric top.
 Rotational symmetry number  1.
 Rotational temperature (Kelvin)      0.44209
 Rotational constant (GHZ):           9.211665
    2 imaginary frequencies ignored.
 Zero-point vibrational energy       1017.3 (Joules/Mol)
                                    0.24313 (Kcal/Mol)
 Warning -- explicit consideration of   2 degrees of freedom as
           vibrations may cause significant error
 Vibrational temperatures:    122.35   122.35
          (Kelvin)

 Zero-point correction=                           0.000387 (Hartree/Particle)
 Thermal correction to Energy=                    0.004275
 Thermal correction to Enthalpy=                  0.005219
 Thermal correction to Gibbs Free Energy=        -0.022775
 Sum of electronic and zero-point Energies=           -100.759017
 Sum of electronic and thermal Energies=              -100.755129
 Sum of electronic and thermal Enthalpies=            -100.754185
 Sum of electronic and thermal Free Energies=         -100.782180

                     E (Thermal)             CV                S
                      KCal/Mol        Cal/Mol-Kelvin    Cal/Mol-Kelvin
 Total                    2.683              8.887             58.919
 Electronic               0.000              0.000              1.377
 Translational            0.889              2.981             35.068
 Rotational               0.592              1.987             14.932
 Vibrational              1.202              3.919              7.542
 Vibration     1          0.601              1.960              3.771
 Vibration     2          0.601              1.960              3.771

 Normal termination of Gaussian 16 at Fri Aug 22 21:03:20 2025.
