 Gaussian 16, Revision C.01,
 Gaussian 16:  ES64L-G16RevC.01  3-Jul-2019

 -----------------------------------------
 # sp b3lyp/6-311g** Force nosymm scf=(qc)
 -----------------------------------------

 -------------------
 Title Card Required
 -------------------
 Symbolic Z-matrix:
 Charge =  0 Multiplicity = 2

                          Input orientation:
 ---------------------------------------------------------------------
 Center     Atomic      Atomic             Coordinates (Angstroms)
 Number     Number       Type             X           Y           Z
 ---------------------------------------------------------------------
      1          1           0        0.000000    0.000000    0.000000
      2          1           0       -3.500000    0.000000    0.000000
      3          9           0        1.950000    0.000000    0.000000
 ---------------------------------------------------------------------

 SCF Done:  E(UB3LYP) =  -100.790842623     a.u. after   18 cycles

 Alpha  occ. eigenvalues --  -24.67842  -1.14145  -0.46787  -0.39430  -0.39430
 Alpha  occ. eigenvalues --   -0.33507
 Alpha virt. eigenvalues --   -0.14075   0.22186   0.31464   0.89527   0.94872
 Alpha virt. eigenvalues --    0.94872   1.05678   1.24008   1.24008   1.24108
 Alpha virt. eigenvalues --    1.34947   1.34947   1.62873   2.13915   2.28725

  Beta  occ. eigenvalues --  -24.65559  -1.07785  -0.38264  -0.37185  -0.37185
  Beta virt. eigenvalues --   -0.20410  -0.07019   0.22435   0.37853   0.90636
  Beta virt. eigenvalues --    0.95359   0.95359   1.08108   1.22259   1.22259
  Beta virt. eigenvalues --    1.45380   1.45831   1.45831   1.56399   2.11975

 Mulliken charges and spin densities:
               1          2
     1  H    0.206437  -0.715364
     2  H    0.001710   0.997605
     3  F   -0.208148   0.717759
 Sum of Mulliken charges =   0.00000   1.00000

 Dipole moment (field-independent basis, Debye):
    X=             -2.0274    Y=              0.0000    Z=              0.0000  Tot=              2.0274
 Quadrupole moment (field-independent basis, Debye-Ang):
   XX=            -10.0656   YY=             -7.4782   ZZ=             -7.4782
   XY=             -0.0000   XZ=             -0.0000   YZ=              0.0000

  Exact polarizability:      25.426      -0.000       2.069      -0.000       0.000       2.069
 Approx polarizability:      37.100      -0.000       1.955      -0.000      -0.000       1.955

 ******    2 imaginary frequencies (negative Signs) ******

                      1                      2                      3
                      A                      A                      A
 Frequencies --  -1215.8279              -119.4170               517.4209
 Red. masses --      1.0572                 1.0543                 1.0263
 Frc consts  --      0.9208                 0.0089                 0.1619
 IR Inten    --    125.1580                 0.2831                39.7677

                      4
                      A
 Frequencies --    517.4209
 Red. masses --      1.0263
 Frc consts  --      0.1619
 IR Inten    --     39.7677

 - Thermochemistry -
 -------------------
 Temperature   298.150 Kelvin.  Pressure   1.00000 Atm.
 Atom     1 has atomic number  1 and mass   1.00783

 Molecular mass:    21.01405 amu.
 Principal axes and moments of inertia in atomic units:
                           1         2         3
     Eigenvalues --     0.00000 111.13283 111.13283
           X            1.00000  -0.00000   0.00000
           Y            0.00000   1.00000   0.00000
           Z            0.00000   0.00000   1.00000
 This molecule is a prolate symmetric top.
 Rotational symmetry number  1.
 Rotational temperature (Kelvin)      0.77937
 Rotational constant (GHZ):          16.239497
    2 imaginary frequencies ignored.
 Zero-point vibrational energy       6189.7 (Joules/Mol)
                                    1.47938 (Kcal/Mol)
 Warning -- explicit consideration of   2 degrees of freedom as
           vibrations may cause significant error
 Vibrational temperatures:    744.45   744.45
          (Kelvin)

 Zero-point correction=                           0.002358 (Hartree/Particle)
 Thermal correction to Energy=                    0.005141
 Thermal correction to Enthalpy=                  0.006085
 Thermal correction to Gibbs Free Energy=        -0.018376
 Sum of electronic and zero-point Energies=           -100.788485
 Sum of electronic and thermal Energies=              -100.785702
 Sum of electronic and thermal Enthalpies=            -100.784757
 Sum of electronic and thermal Free Energies=         -100.809218

                     E (Thermal)             CV                S
                      KCal/Mol        Cal/Mol-Kelvin    Cal/Mol-Kelvin
 Total                    3.226              7.391             51.482
 Electronic               0.000              0.000              1.377
 Translational            0.889              2.981             35.068
 Rotational               0.592              1.987             13.805
 Vibrational              1.745              2.423              1.232
 Vibration     1          0.872              1.211              0.616
 Vibration     2          0.872              1.211              0.616

 Normal termination of Gaussian 16 at Fri Aug 22 16:54:34 2025.
