 Gaussian 16, Revision C.01,
 Gaussian 16:  ES64L-G16RevC.01  3-Jul-2019

 -----------------------------------------
 # sp b3lyp/6-311g** Force nosymm scf=(qc)
 -----------------------------------------

 -------------------
 Title Card Required
 -------------------
 Symbolic Z-matrix:
 Charge =  0 Multiplicity = 2

                          Input orientation:
 ---------------------------------------------------------------------
 Center     Atomic      Atomic             Coordinates (Angstroms)
 Number     Number       Type             X           Y           Z
 ---------------------------------------------------------------------
      1          1           0        0.000000    0.000000    0.000000
      2          1           0       -3.350000    0.000000    0.000000
      3          9           0        1.400000    0.000000    0.000000
 ---------------------------------------------------------------------

 SCF Done:  E(UB3LYP) =  -100.877382038     a.u. after    7 cycles

 Alpha  occ. eigenvalues --  -24.64351  -1.10267  -0.44552  -0.36692  -0.36692
 Alpha  occ. eigenvalues --   -0.34109
 Alpha virt. eigenvalues --   -0.11831   0.20951   0.28006   0.93132   0.93132
 Alpha virt. eigenvalues --    1.03167   1.15413   1.23408   1.23408   1.23521
 Alpha virt. eigenvalues --    1.32645   1.32645   1.71700   2.13695   2.21265

  Beta  occ. eigenvalues --  -24.64334  -1.10224  -0.44507  -0.36677  -0.36677
  Beta virt. eigenvalues --   -0.12380  -0.06498   0.24172   0.38127   0.93127
  Beta virt. eigenvalues --    0.93127   1.03213   1.15479   1.32585   1.32585
  Beta virt. eigenvalues --    1.45662   1.46144   1.46144   1.71724   2.20997

 Mulliken charges and spin densities:
               1          2
     1  H    0.355359  -0.002730
     2  H    0.002360   0.997453
     3  F   -0.357719   0.005278
 Sum of Mulliken charges =   0.00000   1.00000

 Dipole moment (field-independent basis, Debye):
    X=             -2.5299    Y=             -0.0000    Z=              0.0000  Tot=              2.5299
 Quadrupole moment (field-independent basis, Debye-Ang):
   XX=             -9.4976   YY=             -7.2644   ZZ=             -7.2644
   XY=             -0.0000   XZ=              0.0000   YZ=              0.0000

  Exact polarizability:      13.741      -0.000       2.234       0.000      -0.000       2.234
 Approx polarizability:      22.928      -0.000       2.169       0.000      -0.000       2.169

 ******    2 imaginary frequencies (negative Signs) ******

                      1                      2                      3
                      A                      A                      A
 Frequencies --  -1020.7523               -85.8158              1089.2978
 Red. masses --      1.0570                 1.0545                 1.0310
 Frc consts  --      0.6489                 0.0046                 0.7208
 IR Inten    --     55.5689                 0.2280               125.0426

                      4
                      A
 Frequencies --   1089.2978
 Red. masses --      1.0310
 Frc consts  --      0.7208
 IR Inten    --    125.0426

 - Thermochemistry -
 -------------------
 Temperature   298.150 Kelvin.  Pressure   1.00000 Atm.
 Atom     1 has atomic number  1 and mass   1.00783

 Molecular mass:    21.01405 amu.
 Principal axes and moments of inertia in atomic units:
                           1         2         3
     Eigenvalues --     0.00000  81.72826  81.72826
           X            1.00000  -0.00000   0.00000
           Y            0.00000   1.00000   0.00000
           Z            0.00000   0.00000   1.00000
 This molecule is a prolate symmetric top.
 Rotational symmetry number  1.
 Rotational temperature (Kelvin)      1.05978
 Rotational constant (GHZ):          22.082217
    2 imaginary frequencies ignored.
 Zero-point vibrational energy      13030.9 (Joules/Mol)
                                    3.11446 (Kcal/Mol)
 Vibrational temperatures:   1567.26  1567.26
          (Kelvin)

 Zero-point correction=                           0.004963 (Hartree/Particle)
 Thermal correction to Energy=                    0.007376
 Thermal correction to Enthalpy=                  0.008320
 Thermal correction to Gibbs Free Energy=        -0.015327
 Sum of electronic and zero-point Energies=           -100.872419
 Sum of electronic and thermal Energies=              -100.870006
 Sum of electronic and thermal Enthalpies=            -100.869062
 Sum of electronic and thermal Free Energies=         -100.892709

                     E (Thermal)             CV                S
                      KCal/Mol        Cal/Mol-Kelvin    Cal/Mol-Kelvin
 Total                    4.628              5.547             49.770
 Electronic               0.000              0.000              1.377
 Translational            0.889              2.981             35.068
 Rotational               0.592              1.987             13.194
 Vibrational              3.147              0.579              0.130

 Normal termination of Gaussian 16 at Fri Aug 22 16:21:06 2025.
