 Gaussian 16, Revision C.01,
 Gaussian 16:  ES64L-G16RevC.01  3-Jul-2019

 -----------------------------------------
 # sp b3lyp/6-311g** Force nosymm scf=(qc)
 -----------------------------------------

 -------------------
 Title Card Required
 -------------------
 Symbolic Z-matrix:
 Charge =  0 Multiplicity = 2

                          Input orientation:
 ---------------------------------------------------------------------
 Center     Atomic      Atomic             Coordinates (Angstroms)
 Number     Number       Type             X           Y           Z
 ---------------------------------------------------------------------
      1          1           0        0.000000    0.000000    0.000000
      2          1           0       -1.450000    0.000000    0.000000
      3          9           0        0.650000    0.000000    0.000000
 ---------------------------------------------------------------------

 SCF Done:  E(UB3LYP) =  -100.792797655     a.u. after    6 cycles

 Alpha  occ. eigenvalues --  -24.63102  -1.31755  -0.60816  -0.42560  -0.42560
 Alpha  occ. eigenvalues --   -0.35805
 Alpha virt. eigenvalues --    0.14022   0.21547   0.57320   0.92296   0.92296
 Alpha virt. eigenvalues --    0.93758   1.16905   1.16905   1.39823   1.52035
 Alpha virt. eigenvalues --    1.52035   1.62059   1.97326   2.21212   3.37632

  Beta  occ. eigenvalues --  -24.62973  -1.31369  -0.60101  -0.42464  -0.42464
  Beta virt. eigenvalues --   -0.12156   0.15166   0.29680   0.61957   0.92509
  Beta virt. eigenvalues --    0.92509   0.94051   1.30240   1.30240   1.43512
  Beta virt. eigenvalues --    1.56413   1.56413   1.72588   1.97299   2.43878

 Mulliken charges and spin densities:
               1          2
     1  H    0.239806   0.014608
     2  H    0.010714   0.969261
     3  F   -0.250520   0.016131
 Sum of Mulliken charges =   0.00000   1.00000

 Dipole moment (field-independent basis, Debye):
    X=             -1.5222    Y=             -0.0000    Z=             -0.0000  Tot=              1.5222
 Quadrupole moment (field-independent basis, Debye-Ang):
   XX=             -6.9937   YY=             -6.5167   ZZ=             -6.5167
   XY=             -0.0000   XZ=             -0.0000   YZ=             -0.0000

  Exact polarizability:       6.835      -0.000       2.532       0.000       0.000       2.532
 Approx polarizability:       6.585      -0.000       2.548       0.000       0.000       2.548

 ******    2 imaginary frequencies (negative Signs) ******

                      1                      2                      3
                      A                      A                      A
 Frequencies --  -4479.2648             -4479.2648               946.4301
 Red. masses --      1.0298                 1.0298                 1.0535
 Frc consts  --     12.1738                12.1738                 0.5560
 IR Inten    --    159.3007               159.3007                 6.7694

                      4
                      A
 Frequencies --  10862.5420
 Red. masses --      1.0580
 Frc consts  --     73.5535
 IR Inten    --    125.2680

 - Thermochemistry -
 -------------------
 Temperature   298.150 Kelvin.  Pressure   1.00000 Atm.
 Atom     1 has atomic number  1 and mass   1.00783

 Molecular mass:    21.01405 amu.
 Principal axes and moments of inertia in atomic units:
                           1         2         3
     Eigenvalues --     0.00000  16.08687  16.08687
           X            1.00000  -0.00000   0.00000
           Y            0.00000   1.00000   0.00000
           Z            0.00000   0.00000   1.00000
 This molecule is a prolate symmetric top.
 Rotational symmetry number  1.
 Rotational temperature (Kelvin)      5.38414
 Rotational constant (GHZ):         112.187226
    2 imaginary frequencies ignored.
 Zero-point vibrational energy      70633.3 (Joules/Mol)
                                   16.88177 (Kcal/Mol)
 Vibrational temperatures:   1361.70 15628.78
          (Kelvin)

 Zero-point correction=                           0.026903 (Hartree/Particle)
 Thermal correction to Energy=                    0.029309
 Thermal correction to Enthalpy=                  0.030253
 Thermal correction to Gibbs Free Energy=         0.008147
 Sum of electronic and zero-point Energies=           -100.765895
 Sum of electronic and thermal Energies=              -100.763489
 Sum of electronic and thermal Enthalpies=            -100.762545
 Sum of electronic and thermal Free Energies=         -100.784651

                     E (Thermal)             CV                S
                      KCal/Mol        Cal/Mol-Kelvin    Cal/Mol-Kelvin
 Total                   18.391              5.408             46.526
 Electronic               0.000              0.000              1.377
 Translational            0.889              2.981             35.068
 Rotational               0.592              1.987              9.964
 Vibrational             16.910              0.440              0.116

 Normal termination of Gaussian 16 at Fri Aug 22 15:43:42 2025.
