 Gaussian 16, Revision C.01,
 Gaussian 16:  ES64L-G16RevC.01  3-Jul-2019

 -----------------------------------------
 # sp b3lyp/6-311g** Force nosymm scf=(qc)
 -----------------------------------------

 -------------------
 Title Card Required
 -------------------
 Symbolic Z-matrix:
 Charge =  0 Multiplicity = 2

                          Input orientation:
 ---------------------------------------------------------------------
 Center     Atomic      Atomic             Coordinates (Angstroms)
 Number     Number       Type             X           Y           Z
 ---------------------------------------------------------------------
      1          1           0        0.000000    0.000000    0.000000
      2          1           0       -3.150000    0.000000    0.000000
      3          9           0        0.800000    0.000000    0.000000
 ---------------------------------------------------------------------

 SCF Done:  E(UB3LYP) =  -100.950369736     a.u. after    6 cycles

 Alpha  occ. eigenvalues --  -24.63665  -1.23028  -0.56182  -0.40638  -0.40638
 Alpha  occ. eigenvalues --   -0.33815
 Alpha virt. eigenvalues --    0.05266   0.25184   0.45749   0.94216   0.94216
 Alpha virt. eigenvalues --    0.97014   1.22978   1.23707   1.23707   1.31892
 Alpha virt. eigenvalues --    1.39831   1.39831   2.02832   2.14726   2.53087

  Beta  occ. eigenvalues --  -24.63663  -1.23022  -0.56176  -0.40637  -0.40637
  Beta virt. eigenvalues --   -0.06073   0.06166   0.39260   0.45807   0.94216
  Beta virt. eigenvalues --    0.94216   0.97000   1.30281   1.39831   1.39831
  Beta virt. eigenvalues --    1.50744   1.50744   1.50850   2.02899   2.44331

 Mulliken charges and spin densities:
               1          2
     1  H    0.273863   0.001118
     2  H    0.001581   0.997906
     3  F   -0.275444   0.000976
 Sum of Mulliken charges =   0.00000   1.00000

 Dipole moment (field-independent basis, Debye):
    X=             -1.7561    Y=              0.0000    Z=              0.0000  Tot=              1.7561
 Quadrupole moment (field-independent basis, Debye-Ang):
   XX=             -7.5460   YY=             -6.7686   ZZ=             -6.7686
   XY=              0.0000   XZ=              0.0000   YZ=              0.0000

  Exact polarizability:       5.106      -0.000       2.449       0.000      -0.000       2.449
 Approx polarizability:       5.613      -0.000       2.431       0.000      -0.000       2.431

 ******    3 imaginary frequencies (negative Signs) ******

                      1                      2                      3
                      A                      A                      A
 Frequencies --  -1974.4113             -1974.4113               -47.0651
 Red. masses --      1.0387                 1.0387                 1.0532
 Frc consts  --      2.3857                 2.3857                 0.0014
 IR Inten    --    192.9657               192.9657                 0.0889

                      4
                      A
 Frequencies --   6349.4474
 Red. masses --      1.0583
 Frc consts  --     25.1385
 IR Inten    --    110.1080

 - Thermochemistry -
 -------------------
 Temperature   298.150 Kelvin.  Pressure   1.00000 Atm.
 Atom     1 has atomic number  1 and mass   1.00783

 Molecular mass:    21.01405 amu.
 Principal axes and moments of inertia in atomic units:
                           1         2         3
     Eigenvalues --     0.00000  54.56245  54.56245
           X            1.00000  -0.00000   0.00000
           Y            0.00000   1.00000   0.00000
           Z            0.00000   0.00000   1.00000
 This molecule is a prolate symmetric top.
 Rotational symmetry number  1.
 Rotational temperature (Kelvin)      1.58743
 Rotational constant (GHZ):          33.076614
    3 imaginary frequencies ignored.
 Zero-point vibrational energy      37978.1 (Joules/Mol)
                                    9.07699 (Kcal/Mol)
 Vibrational temperatures:   9135.44
          (Kelvin)

 Zero-point correction=                           0.014465 (Hartree/Particle)
 Thermal correction to Energy=                    0.016826
 Thermal correction to Enthalpy=                  0.017770
 Thermal correction to Gibbs Free Energy=        -0.005434
 Sum of electronic and zero-point Energies=           -100.935905
 Sum of electronic and thermal Energies=              -100.933544
 Sum of electronic and thermal Enthalpies=            -100.932600
 Sum of electronic and thermal Free Energies=         -100.955804

                     E (Thermal)             CV                S
                      KCal/Mol        Cal/Mol-Kelvin    Cal/Mol-Kelvin
 Total                   10.558              4.968             48.837
 Electronic               0.000              0.000              1.377
 Translational            0.889              2.981             35.068
 Rotational               0.592              1.987             12.391
 Vibrational              9.077              0.000              0.000

 Normal termination of Gaussian 16 at Fri Aug 22 15:51:51 2025.
