 Gaussian 16, Revision C.01,
 Gaussian 16:  ES64L-G16RevC.01  3-Jul-2019

 -----------------------------------------
 # sp b3lyp/6-311g** Force nosymm scf=(qc)
 -----------------------------------------

 -------------------
 Title Card Required
 -------------------
 Symbolic Z-matrix:
 Charge =  0 Multiplicity = 2

                          Input orientation:
 ---------------------------------------------------------------------
 Center     Atomic      Atomic             Coordinates (Angstroms)
 Number     Number       Type             X           Y           Z
 ---------------------------------------------------------------------
      1          1           0        0.000000    0.000000    0.000000
      2          1           0       -2.200000    0.000000    0.000000
      3          9           0        1.900000    0.000000    0.000000
 ---------------------------------------------------------------------

 SCF Done:  E(UB3LYP) =  -100.802198932     a.u. after   12 cycles

 Alpha  occ. eigenvalues --  -24.67197  -1.13500  -0.46201  -0.38857  -0.38857
 Alpha  occ. eigenvalues --   -0.36042
 Alpha virt. eigenvalues --   -0.13947   0.23944   0.30131   0.90699   0.95075
 Alpha virt. eigenvalues --    0.95075   1.05824   1.21744   1.21744   1.27360
 Alpha virt. eigenvalues --    1.34045   1.34045   1.64431   2.11487   2.28262

  Beta  occ. eigenvalues --  -24.65007  -1.07416  -0.38149  -0.36708  -0.36708
  Beta virt. eigenvalues --   -0.20439  -0.10905   0.25387   0.33039   0.92681
  Beta virt. eigenvalues --    0.95478   0.95478   1.08689   1.23489   1.23489
  Beta virt. eigenvalues --    1.38290   1.38290   1.42028   1.59568   2.12451

 Mulliken charges and spin densities:
               1          2
     1  H    0.186326  -0.623824
     2  H    0.034370   0.935570
     3  F   -0.220696   0.688254
 Sum of Mulliken charges =   0.00000   1.00000

 Dipole moment (field-independent basis, Debye):
    X=             -2.4263    Y=             -0.0000    Z=             -0.0000  Tot=              2.4263
 Quadrupole moment (field-independent basis, Debye-Ang):
   XX=             -9.0909   YY=             -7.5088   ZZ=             -7.5088
   XY=             -0.0000   XZ=             -0.0000   YZ=             -0.0000

  Exact polarizability:      42.270      -0.000       2.079      -0.000       0.000       2.079
 Approx polarizability:      51.116       0.000       1.978      -0.000       0.000       1.978

 ******    2 imaginary frequencies (negative Signs) ******

                      1                      2                      3
                      A                      A                      A
 Frequencies --  -1493.0325              -521.1995               623.5844
 Red. masses --      1.0344                 1.0781                 1.0198
 Frc consts  --      1.3585                 0.1725                 0.2336
 IR Inten    --     92.2756                24.1513                25.4023

                      4
                      A
 Frequencies --    623.5844
 Red. masses --      1.0198
 Frc consts  --      0.2336
 IR Inten    --     25.4023

 - Thermochemistry -
 -------------------
 Temperature   298.150 Kelvin.  Pressure   1.00000 Atm.
 Atom     1 has atomic number  1 and mass   1.00783

 Molecular mass:    21.01405 amu.
 Principal axes and moments of inertia in atomic units:
                           1         2         3
     Eigenvalues --     0.00000  67.27791  67.27791
           X            1.00000  -0.00000   0.00000
           Y            0.00000   1.00000   0.00000
           Z            0.00000   0.00000   1.00000
 This molecule is a prolate symmetric top.
 Rotational symmetry number  1.
 Rotational temperature (Kelvin)      1.28741
 Rotational constant (GHZ):          26.825169
    2 imaginary frequencies ignored.
 Zero-point vibrational energy       7459.7 (Joules/Mol)
                                    1.78292 (Kcal/Mol)
 Vibrational temperatures:    897.20   897.20
          (Kelvin)

 Zero-point correction=                           0.002841 (Hartree/Particle)
 Thermal correction to Energy=                    0.005497
 Thermal correction to Enthalpy=                  0.006441
 Thermal correction to Gibbs Free Energy=        -0.017351
 Sum of electronic and zero-point Energies=           -100.799358
 Sum of electronic and thermal Energies=              -100.796702
 Sum of electronic and thermal Enthalpies=            -100.795758
 Sum of electronic and thermal Free Energies=         -100.819550

                     E (Thermal)             CV                S
                      KCal/Mol        Cal/Mol-Kelvin    Cal/Mol-Kelvin
 Total                    3.449              6.932             50.075
 Electronic               0.000              0.000              1.377
 Translational            0.889              2.981             35.068
 Rotational               0.592              1.987             12.807
 Vibrational              1.968              1.964              0.822

 Normal termination of Gaussian 16 at Fri Aug 22 16:50:12 2025.
