 Gaussian 16, Revision C.01,
 Gaussian 16:  ES64L-G16RevC.01  3-Jul-2019

 -----------------------------------------
 # sp b3lyp/6-311g** Force nosymm scf=(qc)
 -----------------------------------------

 -------------------
 Title Card Required
 -------------------
 Symbolic Z-matrix:
 Charge =  0 Multiplicity = 2

                          Input orientation:
 ---------------------------------------------------------------------
 Center     Atomic      Atomic             Coordinates (Angstroms)
 Number     Number       Type             X           Y           Z
 ---------------------------------------------------------------------
      1          1           0        0.000000    0.000000    0.000000
      2          1           0       -0.650000    0.000000    0.000000
      3          9           0        2.550000    0.000000    0.000000
 ---------------------------------------------------------------------

 SCF Done:  E(UB3LYP) =  -100.927224212     a.u. after   54 cycles

 Alpha  occ. eigenvalues --  -24.76850  -1.22626  -0.55803  -0.47490  -0.46950
 Alpha  occ. eigenvalues --   -0.44604
 Alpha virt. eigenvalues --    0.08720   0.19917   0.51449   0.85673   0.90536
 Alpha virt. eigenvalues --    0.93557   1.09826   1.09847   1.12135   1.59777
 Alpha virt. eigenvalues --    1.85710   1.89627   1.89648   2.39661   3.64443

  Beta  occ. eigenvalues --  -24.73685  -1.13533  -0.45676  -0.43777  -0.43241
  Beta virt. eigenvalues --   -0.26414   0.08816   0.19982   0.51557   0.92031
  Beta virt. eigenvalues --    0.95111   0.95469   1.09838   1.09847   1.15680
  Beta virt. eigenvalues --    1.59781   1.85720   1.89627   1.89646   2.39674

 Mulliken charges and spin densities:
               1          2
     1  H   -0.009575  -0.002230
     2  H   -0.005598  -0.000067
     3  F    0.015173   1.002297
 Sum of Mulliken charges =   0.00000   1.00000

 Dipole moment (field-independent basis, Debye):
    X=              0.1421    Y=              0.0000    Z=              0.0000  Tot=              0.1421
 Quadrupole moment (field-independent basis, Debye-Ang):
   XX=             -5.9988   YY=             -6.0969   ZZ=             -6.6845
   XY=             -0.0000   XZ=             -0.0000   YZ=              0.3161

  Exact polarizability:       7.601      -0.000       2.303       0.000       0.162       2.001
 Approx polarizability:       8.265      -0.000       2.486      -0.000       0.206       2.103

 ******    2 imaginary frequencies (negative Signs) ******

                      1                      2                      3
                      A                      A                      A
 Frequencies --  -1946.1463             -1937.8012               187.7598
 Red. masses --      1.0091                 1.0091                 1.1085
 Frc consts  --      2.2518                 2.2326                 0.0230
 IR Inten    --      0.0501                 0.0550                 0.4560

                      4
                      A
 Frequencies --   5976.5587
 Red. masses --      1.0078
 Frc consts  --     21.2099
 IR Inten    --      2.2772

 - Thermochemistry -
 -------------------
 Temperature   298.150 Kelvin.  Pressure   1.00000 Atm.
 Atom     1 has atomic number  1 and mass   1.00783

 Molecular mass:    21.01405 amu.
 Principal axes and moments of inertia in atomic units:
                           1         2         3
     Eigenvalues --     0.00000  54.54958  54.54958
           X            1.00000  -0.00000   0.00000
           Y            0.00000   1.00000   0.00000
           Z            0.00000   0.00000   1.00000
 This molecule is a prolate symmetric top.
 Rotational symmetry number  1.
 Rotational temperature (Kelvin)      1.58780
 Rotational constant (GHZ):          33.084417
    2 imaginary frequencies ignored.
 Zero-point vibrational energy      36870.8 (Joules/Mol)
                                    8.81234 (Kcal/Mol)
 Warning -- explicit consideration of   1 degrees of freedom as
           vibrations may cause significant error
 Vibrational temperatures:    270.14  8598.93
          (Kelvin)

 Zero-point correction=                           0.014043 (Hartree/Particle)
 Thermal correction to Energy=                    0.016984
 Thermal correction to Enthalpy=                  0.017928
 Thermal correction to Gibbs Free Energy=        -0.006344
 Sum of electronic and zero-point Energies=           -100.913181
 Sum of electronic and thermal Energies=              -100.910240
 Sum of electronic and thermal Enthalpies=            -100.909296
 Sum of electronic and thermal Free Energies=         -100.933569

                     E (Thermal)             CV                S
                      KCal/Mol        Cal/Mol-Kelvin    Cal/Mol-Kelvin
 Total                   10.658              6.825             51.086
 Electronic               0.000              0.000              1.377
 Translational            0.889              2.981             35.068
 Rotational               0.592              1.987             12.391
 Vibrational              9.176              1.857              2.250
 Vibration     1          0.632              1.857              2.250

 Normal termination of Gaussian 16 at Fri Aug 22 17:49:18 2025.
