 Gaussian 16, Revision C.01,
 Gaussian 16:  ES64L-G16RevC.01  3-Jul-2019

 -----------------------------------------
 # sp b3lyp/6-311g** Force nosymm scf=(qc)
 -----------------------------------------

 -------------------
 Title Card Required
 -------------------
 Symbolic Z-matrix:
 Charge =  0 Multiplicity = 2

                          Input orientation:
 ---------------------------------------------------------------------
 Center     Atomic      Atomic             Coordinates (Angstroms)
 Number     Number       Type             X           Y           Z
 ---------------------------------------------------------------------
      1          1           0        0.000000    0.000000    0.000000
      2          1           0       -2.250000    0.000000    0.000000
      3          9           0        3.350000    0.000000    0.000000
 ---------------------------------------------------------------------

 SCF Done:  E(UB3LYP) =  -100.767137017     a.u. after   30 cycles

 Alpha  occ. eigenvalues --  -24.75223  -1.21197  -0.54344  -0.45630  -0.45630
 Alpha  occ. eigenvalues --   -0.32978
 Alpha virt. eigenvalues --   -0.10554   0.25780   0.33241   0.88146   0.91577
 Alpha virt. eigenvalues --    0.91577   1.02222   1.24421   1.24824   1.24824
 Alpha virt. eigenvalues --    1.39291   1.39291   1.44227   2.14282   2.35597

  Beta  occ. eigenvalues --  -24.72123  -1.12291  -0.42523  -0.42523  -0.33229
  Beta virt. eigenvalues --   -0.25426  -0.10036   0.25692   0.33971   0.93062
  Beta virt. eigenvalues --    0.93062   0.97224   1.06230   1.24096   1.24504
  Beta virt. eigenvalues --    1.24504   1.40088   1.40088   1.44941   2.15100

 Mulliken charges and spin densities:
               1          2
     1  H    0.009779  -0.919288
     2  H    0.005293   0.936322
     3  F   -0.015072   0.982966
 Sum of Mulliken charges =  -0.00000   1.00000

 Dipole moment (field-independent basis, Debye):
    X=             -0.3157    Y=             -0.0000    Z=              0.0000  Tot=              0.3157
 Quadrupole moment (field-independent basis, Debye-Ang):
   XX=             -7.1080   YY=             -7.6893   ZZ=             -7.6893
   XY=             -0.0000   XZ=              0.0000   YZ=             -0.0000

  Exact polarizability:      43.722      -0.000       2.015       0.000       0.000       2.015
 Approx polarizability:      34.428      -0.000       1.928       0.000       0.000       1.928

 ******    2 imaginary frequencies (negative Signs) ******

                      1                      2                      3
                      A                      A                      A
 Frequencies --   -958.6774              -166.3519               365.8633
 Red. masses --      1.0079                 1.1084                 1.0138
 Frc consts  --      0.5458                 0.0181                 0.0800
 IR Inten    --     10.9617                11.1707                 0.0499

                      4
                      A
 Frequencies --    365.8633
 Red. masses --      1.0138
 Frc consts  --      0.0800
 IR Inten    --      0.0499

 - Thermochemistry -
 -------------------
 Temperature   298.150 Kelvin.  Pressure   1.00000 Atm.
 Atom     1 has atomic number  1 and mass   1.00783

 Molecular mass:    21.01405 amu.
 Principal axes and moments of inertia in atomic units:
                           1         2         3
     Eigenvalues --     0.00000 139.42854 139.42854
           X            1.00000  -0.00000   0.00000
           Y            0.00000   1.00000   0.00000
           Z            0.00000   0.00000   1.00000
 This molecule is a prolate symmetric top.
 Rotational symmetry number  1.
 Rotational temperature (Kelvin)      0.62121
 Rotational constant (GHZ):          12.943844
    2 imaginary frequencies ignored.
 Zero-point vibrational energy       4376.7 (Joules/Mol)
                                    1.04606 (Kcal/Mol)
 Warning -- explicit consideration of   2 degrees of freedom as
           vibrations may cause significant error
 Vibrational temperatures:    526.40   526.40
          (Kelvin)

 Zero-point correction=                           0.001667 (Hartree/Particle)
 Thermal correction to Energy=                    0.004716
 Thermal correction to Enthalpy=                  0.005660
 Thermal correction to Gibbs Free Energy=        -0.019472
 Sum of electronic and zero-point Energies=           -100.765470
 Sum of electronic and thermal Energies=              -100.762421
 Sum of electronic and thermal Enthalpies=            -100.761477
 Sum of electronic and thermal Free Energies=         -100.786609

                     E (Thermal)             CV                S
                      KCal/Mol        Cal/Mol-Kelvin    Cal/Mol-Kelvin
 Total                    2.959              8.053             52.895
 Electronic               0.000              0.000              1.377
 Translational            0.889              2.981             35.068
 Rotational               0.592              1.987             14.256
 Vibrational              1.478              3.085              2.194
 Vibration     1          0.739              1.542              1.097
 Vibration     2          0.739              1.542              1.097

 Normal termination of Gaussian 16 at Fri Aug 22 21:01:35 2025.
