 Gaussian 16, Revision C.01,
 Gaussian 16:  ES64L-G16RevC.01  3-Jul-2019

 -----------------------------------------
 # sp b3lyp/6-311g** Force nosymm scf=(qc)
 -----------------------------------------

 -------------------
 Title Card Required
 -------------------
 Symbolic Z-matrix:
 Charge =  0 Multiplicity = 2

                          Input orientation:
 ---------------------------------------------------------------------
 Center     Atomic      Atomic             Coordinates (Angstroms)
 Number     Number       Type             X           Y           Z
 ---------------------------------------------------------------------
      1          1           0        0.000000    0.000000    0.000000
      2          1           0       -2.100000    0.000000    0.000000
      3          9           0        0.750000    0.000000    0.000000
 ---------------------------------------------------------------------

 SCF Done:  E(UB3LYP) =  -100.921978275     a.u. after    6 cycles

 Alpha  occ. eigenvalues --  -24.63321  -1.25365  -0.57406  -0.41072  -0.41072
 Alpha  occ. eigenvalues --   -0.35261
 Alpha virt. eigenvalues --    0.08944   0.24689   0.47657   0.94030   0.94030
 Alpha virt. eigenvalues --    0.96548   1.15540   1.22221   1.22221   1.41868
 Alpha virt. eigenvalues --    1.41868   1.51671   1.98572   2.17307   2.68047

  Beta  occ. eigenvalues --  -24.63291  -1.25284  -0.57265  -0.41050  -0.41050
  Beta virt. eigenvalues --   -0.10336   0.10560   0.36016   0.47720   0.94031
  Beta virt. eigenvalues --    0.94031   0.96823   1.25510   1.40998   1.40998
  Beta virt. eigenvalues --    1.43429   1.43429   1.61368   2.01159   2.41782

 Mulliken charges and spin densities:
               1          2
     1  H    0.256428   0.007566
     2  H    0.009270   0.985475
     3  F   -0.265699   0.006959
 Sum of Mulliken charges =   0.00000   1.00000

 Dipole moment (field-independent basis, Debye):
    X=             -1.7548    Y=              0.0000    Z=              0.0000  Tot=              1.7548
 Quadrupole moment (field-independent basis, Debye-Ang):
   XX=             -7.1721   YY=             -6.6907   ZZ=             -6.6907
   XY=             -0.0000   XZ=             -0.0000   YZ=              0.0000

  Exact polarizability:       6.783       0.000       2.495      -0.000      -0.000       2.495
 Approx polarizability:       6.842       0.000       2.485       0.000      -0.000       2.485

 ******    2 imaginary frequencies (negative Signs) ******

                      1                      2                      3
                      A                      A                      A
 Frequencies --  -2664.0869             -2664.0869               257.1715
 Red. masses --      1.0335                 1.0335                 1.0533
 Frc consts  --      4.3217                 4.3217                 0.0410
 IR Inten    --    175.6131               175.6131                 0.3460

                      4
                      A
 Frequencies --   7581.0219
 Red. masses --      1.0583
 Frc consts  --     35.8359
 IR Inten    --    144.1678

 - Thermochemistry -
 -------------------
 Temperature   298.150 Kelvin.  Pressure   1.00000 Atm.
 Atom     1 has atomic number  1 and mass   1.00783

 Molecular mass:    21.01405 amu.
 Principal axes and moments of inertia in atomic units:
                           1         2         3
     Eigenvalues --     0.00000  29.02040  29.02040
           X            1.00000  -0.00000   0.00000
           Y            0.00000   1.00000   0.00000
           Z            0.00000   0.00000   1.00000
 This molecule is a prolate symmetric top.
 Rotational symmetry number  1.
 Rotational temperature (Kelvin)      2.98459
 Rotational constant (GHZ):          62.188701
    2 imaginary frequencies ignored.
 Zero-point vibrational energy      46882.8 (Joules/Mol)
                                   11.20526 (Kcal/Mol)
 Warning -- explicit consideration of   1 degrees of freedom as
           vibrations may cause significant error
 Vibrational temperatures:    370.01 10907.40
          (Kelvin)

 Zero-point correction=                           0.017857 (Hartree/Particle)
 Thermal correction to Energy=                    0.020694
 Thermal correction to Enthalpy=                  0.021638
 Thermal correction to Gibbs Free Energy=        -0.001769
 Sum of electronic and zero-point Energies=           -100.904122
 Sum of electronic and thermal Energies=              -100.901285
 Sum of electronic and thermal Enthalpies=            -100.900340
 Sum of electronic and thermal Free Energies=         -100.923747

                     E (Thermal)             CV                S
                      KCal/Mol        Cal/Mol-Kelvin    Cal/Mol-Kelvin
 Total                   12.985              6.719             49.263
 Electronic               0.000              0.000              1.377
 Translational            0.889              2.981             35.068
 Rotational               0.592              1.987             11.137
 Vibrational             11.504              1.751              1.681
 Vibration     1          0.667              1.751              1.681

 Normal termination of Gaussian 16 at Fri Aug 22 15:48:49 2025.
