 Gaussian 16, Revision C.01,
 Gaussian 16:  ES64L-G16RevC.01  3-Jul-2019

 -----------------------------------------
 # sp b3lyp/6-311g** Force nosymm scf=(qc)
 -----------------------------------------

 -------------------
 Title Card Required
 -------------------
 Symbolic Z-matrix:
 Charge =  0 Multiplicity = 2

                          Input orientation:
 ---------------------------------------------------------------------
 Center     Atomic      Atomic             Coordinates (Angstroms)
 Number     Number       Type             X           Y           Z
 ---------------------------------------------------------------------
      1          1           0        0.000000    0.000000    0.000000
      2          1           0       -2.850000    0.000000    0.000000
      3          9           0        1.650000    0.000000    0.000000
 ---------------------------------------------------------------------

 SCF Done:  E(UB3LYP) =  -100.826132889     a.u. after   13 cycles

 Alpha  occ. eigenvalues --  -24.65219  -1.11103  -0.43853  -0.37114  -0.37114
 Alpha  occ. eigenvalues --   -0.34847
 Alpha virt. eigenvalues --   -0.14986   0.22181   0.28402   0.94468   0.94468
 Alpha virt. eigenvalues --    0.98624   1.06904   1.22698   1.22698   1.23703
 Alpha virt. eigenvalues --    1.32802   1.32802   1.74397   2.13571   2.22936

  Beta  occ. eigenvalues --  -24.63984  -1.07761  -0.40635  -0.35923  -0.35923
  Beta virt. eigenvalues --   -0.17944  -0.08467   0.23193   0.36310   0.94159
  Beta virt. eigenvalues --    0.94159   0.99610   1.07787   1.26501   1.26501
  Beta virt. eigenvalues --    1.43514   1.43597   1.43597   1.71663   2.13880

 Mulliken charges and spin densities:
               1          2
     1  H    0.302259  -0.377474
     2  H    0.009988   0.987859
     3  F   -0.312248   0.389615
 Sum of Mulliken charges =   0.00000   1.00000

 Dipole moment (field-independent basis, Debye):
    X=             -2.6475    Y=             -0.0000    Z=             -0.0000  Tot=              2.6475
 Quadrupole moment (field-independent basis, Debye-Ang):
   XX=             -9.8294   YY=             -7.3989   ZZ=             -7.3989
   XY=             -0.0000   XZ=             -0.0000   YZ=              0.0000

  Exact polarizability:      25.409      -0.000       2.137       0.000      -0.000       2.137
 Approx polarizability:      38.439       0.000       2.044       0.000      -0.000       2.044

 ******    2 imaginary frequencies (negative Signs) ******

                      1                      2                      3
                      A                      A                      A
 Frequencies --  -1834.8454              -228.3142               828.6309
 Red. masses --      1.0553                 1.0562                 1.0257
 Frc consts  --      2.0933                 0.0324                 0.4150
 IR Inten    --     70.2978                 3.6027                81.3687

                      4
                      A
 Frequencies --    828.6309
 Red. masses --      1.0257
 Frc consts  --      0.4150
 IR Inten    --     81.3687

 - Thermochemistry -
 -------------------
 Temperature   298.150 Kelvin.  Pressure   1.00000 Atm.
 Atom     1 has atomic number  1 and mass   1.00783

 Molecular mass:    21.01405 amu.
 Principal axes and moments of inertia in atomic units:
                           1         2         3
     Eigenvalues --     0.00000  76.14980  76.14980
           X            1.00000  -0.00000   0.00000
           Y            0.00000   1.00000   0.00000
           Z            0.00000   0.00000   1.00000
 This molecule is a prolate symmetric top.
 Rotational symmetry number  1.
 Rotational temperature (Kelvin)      1.13741
 Rotational constant (GHZ):          23.699881
    2 imaginary frequencies ignored.
 Zero-point vibrational energy       9912.6 (Joules/Mol)
                                    2.36917 (Kcal/Mol)
 Vibrational temperatures:   1192.22  1192.22
          (Kelvin)

 Zero-point correction=                           0.003776 (Hartree/Particle)
 Thermal correction to Energy=                    0.006277
 Thermal correction to Enthalpy=                  0.007221
 Thermal correction to Gibbs Free Energy=        -0.016473
 Sum of electronic and zero-point Energies=           -100.822357
 Sum of electronic and thermal Energies=              -100.819856
 Sum of electronic and thermal Enthalpies=            -100.818912
 Sum of electronic and thermal Free Energies=         -100.842606

                     E (Thermal)             CV                S
                      KCal/Mol        Cal/Mol-Kelvin    Cal/Mol-Kelvin
 Total                    3.939              6.177             49.870
 Electronic               0.000              0.000              1.377
 Translational            0.889              2.981             35.068
 Rotational               0.592              1.987             13.054
 Vibrational              2.458              1.209              0.370

 Normal termination of Gaussian 16 at Fri Aug 22 16:35:07 2025.
