 Gaussian 16, Revision C.01,
 Gaussian 16:  ES64L-G16RevC.01  3-Jul-2019

 -----------------------------------------
 # sp b3lyp/6-311g** Force nosymm scf=(qc)
 -----------------------------------------

 -------------------
 Title Card Required
 -------------------
 Symbolic Z-matrix:
 Charge =  0 Multiplicity = 2

                          Input orientation:
 ---------------------------------------------------------------------
 Center     Atomic      Atomic             Coordinates (Angstroms)
 Number     Number       Type             X           Y           Z
 ---------------------------------------------------------------------
      1          1           0        0.000000    0.000000    0.000000
      2          1           0       -0.700000    0.000000    0.000000
      3          9           0        1.500000    0.000000    0.000000
 ---------------------------------------------------------------------

 SCF Done:  E(UB3LYP) =  -100.934302521     a.u. after    7 cycles

 Alpha  occ. eigenvalues --  -24.71509  -1.18587  -0.56777  -0.43312  -0.43034
 Alpha  occ. eigenvalues --   -0.43034
 Alpha virt. eigenvalues --    0.09925   0.19754   0.45472   0.88624   0.88624
 Alpha virt. eigenvalues --    0.97124   1.08969   1.08969   1.31302   1.67678
 Alpha virt. eigenvalues --    1.84400   1.84400   1.91894   2.44240   3.25402

  Beta  occ. eigenvalues --  -24.68818  -1.11195  -0.48624  -0.40416  -0.40416
  Beta virt. eigenvalues --   -0.23379   0.11104   0.20610   0.47733   0.89818
  Beta virt. eigenvalues --    0.89818   1.03347   1.11100   1.11100   1.35085
  Beta virt. eigenvalues --    1.70545   1.85625   1.85625   1.92826   2.46887

 Mulliken charges and spin densities:
               1          2
     1  H    0.127178  -0.038164
     2  H    0.011643   0.225077
     3  F   -0.138822   0.813087
 Sum of Mulliken charges =   0.00000   1.00000

 Dipole moment (field-independent basis, Debye):
    X=             -1.0614    Y=             -0.0000    Z=              0.0000  Tot=              1.0614
 Quadrupole moment (field-independent basis, Debye-Ang):
   XX=             -6.7921   YY=             -6.7288   ZZ=             -6.7288
   XY=             -0.0000   XZ=              0.0000   YZ=              0.0000

  Exact polarizability:      18.487       0.000       2.285      -0.000      -0.000       2.285
 Approx polarizability:      23.079       0.000       2.330       0.000      -0.000       2.330

 ******    3 imaginary frequencies (negative Signs) ******

                      1                      2                      3
                      A                      A                      A
 Frequencies --  -1529.0725             -1529.0725              -137.5631
 Red. masses --      1.0113                 1.0113                 1.1083
 Frc consts  --      1.3931                 1.3931                 0.0124
 IR Inten    --      0.5108                 0.5108                81.2324

                      4
                      A
 Frequencies --   4809.0006
 Red. masses --      1.0080
 Frc consts  --     13.7352
 IR Inten    --    628.4056

 - Thermochemistry -
 -------------------
 Temperature   298.150 Kelvin.  Pressure   1.00000 Atm.
 Atom     1 has atomic number  1 and mass   1.00783

 Molecular mass:    21.01405 amu.
 Principal axes and moments of inertia in atomic units:
                           1         2         3
     Eigenvalues --     0.00000  23.15398  23.15398
           X            1.00000  -0.00000   0.00000
           Y            0.00000   1.00000   0.00000
           Z            0.00000   0.00000   1.00000
 This molecule is a prolate symmetric top.
 Rotational symmetry number  1.
 Rotational temperature (Kelvin)      3.74078
 Rotational constant (GHZ):          77.945176
    3 imaginary frequencies ignored.
 Zero-point vibrational energy      28764.2 (Joules/Mol)
                                    6.87481 (Kcal/Mol)
 Vibrational temperatures:   6919.08
          (Kelvin)

 Zero-point correction=                           0.010956 (Hartree/Particle)
 Thermal correction to Energy=                    0.013316
 Thermal correction to Enthalpy=                  0.014260
 Thermal correction to Gibbs Free Energy=        -0.008134
 Sum of electronic and zero-point Energies=           -100.923347
 Sum of electronic and thermal Energies=              -100.920986
 Sum of electronic and thermal Enthalpies=            -100.920042
 Sum of electronic and thermal Free Energies=         -100.942437

                     E (Thermal)             CV                S
                      KCal/Mol        Cal/Mol-Kelvin    Cal/Mol-Kelvin
 Total                    8.356              4.968             47.133
 Electronic               0.000              0.000              1.377
 Translational            0.889              2.981             35.068
 Rotational               0.592              1.987             10.688
 Vibrational              6.875              0.000              0.000

 Normal termination of Gaussian 16 at Fri Aug 22 16:24:23 2025.
