 Gaussian 16, Revision C.01,
 Gaussian 16:  ES64L-G16RevC.01  3-Jul-2019

 -----------------------------------------
 # sp b3lyp/6-311g** Force nosymm scf=(qc)
 -----------------------------------------

 -------------------
 Title Card Required
 -------------------
 Symbolic Z-matrix:
 Charge =  0 Multiplicity = 2

                          Input orientation:
 ---------------------------------------------------------------------
 Center     Atomic      Atomic             Coordinates (Angstroms)
 Number     Number       Type             X           Y           Z
 ---------------------------------------------------------------------
      1          1           0        0.000000    0.000000    0.000000
      2          1           0       -2.950000    0.000000    0.000000
      3          9           0        1.850000    0.000000    0.000000
 ---------------------------------------------------------------------

 SCF Done:  E(UB3LYP) =  -100.800311016     a.u. after   18 cycles

 Alpha  occ. eigenvalues --  -24.66961  -1.13204  -0.45827  -0.38663  -0.38663
 Alpha  occ. eigenvalues --   -0.34291
 Alpha virt. eigenvalues --   -0.14581   0.22607   0.30263   0.91796   0.94881
 Alpha virt. eigenvalues --    0.94881   1.06009   1.23258   1.23258   1.24079
 Alpha virt. eigenvalues --    1.34058   1.34058   1.67694   2.14017   2.27167

  Beta  occ. eigenvalues --  -24.64908  -1.07523  -0.38892  -0.36653  -0.36653
  Beta virt. eigenvalues --   -0.19700  -0.08379   0.23108   0.36568   0.92781
  Beta virt. eigenvalues --    0.95057   0.95057   1.08235   1.23266   1.23266
  Beta virt. eigenvalues --    1.43691   1.43989   1.43989   1.62631   2.12921

 Mulliken charges and spin densities:
               1          2
     1  H    0.232432  -0.635991
     2  H    0.007277   0.990117
     3  F   -0.239710   0.645874
 Sum of Mulliken charges =   0.00000   1.00000

 Dipole moment (field-independent basis, Debye):
    X=             -2.2737    Y=              0.0000    Z=             -0.0000  Tot=              2.2737
 Quadrupole moment (field-independent basis, Debye-Ang):
   XX=             -9.8835   YY=             -7.4640   ZZ=             -7.4640
   XY=              0.0000   XZ=             -0.0000   YZ=             -0.0000

  Exact polarizability:      28.173      -0.000       2.086       0.000      -0.000       2.086
 Approx polarizability:      39.345      -0.000       1.976       0.000       0.000       1.976

 ******    2 imaginary frequencies (negative Signs) ******

                      1                      2                      3
                      A                      A                      A
 Frequencies --  -1420.1639              -227.5520               603.6532
 Red. masses --      1.0551                 1.0564                 1.0245
 Frc consts  --      1.2538                 0.0322                 0.2199
 IR Inten    --    119.3616                 2.8811                48.0598

                      4
                      A
 Frequencies --    603.6532
 Red. masses --      1.0245
 Frc consts  --      0.2199
 IR Inten    --     48.0598

 - Thermochemistry -
 -------------------
 Temperature   298.150 Kelvin.  Pressure   1.00000 Atm.
 Atom     1 has atomic number  1 and mass   1.00783

 Molecular mass:    21.01405 amu.
 Principal axes and moments of inertia in atomic units:
                           1         2         3
     Eigenvalues --     0.00000  87.60565  87.60565
           X            1.00000  -0.00000   0.00000
           Y            0.00000   1.00000   0.00000
           Z            0.00000   0.00000   1.00000
 This molecule is a prolate symmetric top.
 Rotational symmetry number  1.
 Rotational temperature (Kelvin)      0.98868
 Rotational constant (GHZ):          20.600739
    2 imaginary frequencies ignored.
 Zero-point vibrational energy       7221.3 (Joules/Mol)
                                    1.72593 (Kcal/Mol)
 Warning -- explicit consideration of   2 degrees of freedom as
           vibrations may cause significant error
 Vibrational temperatures:    868.52   868.52
          (Kelvin)

 Zero-point correction=                           0.002750 (Hartree/Particle)
 Thermal correction to Energy=                    0.005427
 Thermal correction to Enthalpy=                  0.006371
 Thermal correction to Gibbs Free Energy=        -0.017701
 Sum of electronic and zero-point Energies=           -100.797561
 Sum of electronic and thermal Energies=              -100.794884
 Sum of electronic and thermal Enthalpies=            -100.793940
 Sum of electronic and thermal Free Energies=         -100.818012

                     E (Thermal)             CV                S
                      KCal/Mol        Cal/Mol-Kelvin    Cal/Mol-Kelvin
 Total                    3.405              7.016             50.664
 Electronic               0.000              0.000              1.377
 Translational            0.889              2.981             35.068
 Rotational               0.592              1.987             13.332
 Vibrational              1.924              2.048              0.887
 Vibration     1          0.962              1.024              0.443
 Vibration     2          0.962              1.024              0.443

 Normal termination of Gaussian 16 at Fri Aug 22 16:47:40 2025.
