 Gaussian 16, Revision C.01,
 Gaussian 16:  ES64L-G16RevC.01  3-Jul-2019

 -----------------------------------------
 # sp b3lyp/6-311g** Force nosymm scf=(qc)
 -----------------------------------------

 -------------------
 Title Card Required
 -------------------
 Symbolic Z-matrix:
 Charge =  0 Multiplicity = 2

                          Input orientation:
 ---------------------------------------------------------------------
 Center     Atomic      Atomic             Coordinates (Angstroms)
 Number     Number       Type             X           Y           Z
 ---------------------------------------------------------------------
      1          1           0        0.000000    0.000000    0.000000
      2          1           0       -1.650000    0.000000    0.000000
      3          9           0        0.800000    0.000000    0.000000
 ---------------------------------------------------------------------

 SCF Done:  E(UB3LYP) =  -100.948558336     a.u. after    6 cycles

 Alpha  occ. eigenvalues --  -24.63411  -1.22929  -0.56655  -0.40452  -0.40452
 Alpha  occ. eigenvalues --   -0.36235
 Alpha virt. eigenvalues --    0.11123   0.22354   0.44228   0.94267   0.94267
 Alpha virt. eigenvalues --    0.97289   1.19139   1.19139   1.22378   1.42092
 Alpha virt. eigenvalues --    1.42092   1.54777   2.04286   2.17573   2.69047

  Beta  occ. eigenvalues --  -24.63301  -1.22636  -0.55984  -0.40363  -0.40363
  Beta virt. eigenvalues --   -0.12744   0.12771   0.30650   0.47093   0.94334
  Beta virt. eigenvalues --    0.94334   0.97532   1.30852   1.33037   1.33037
  Beta virt. eigenvalues --    1.46506   1.46506   1.60893   2.10459   2.31818

 Mulliken charges and spin densities:
               1          2
     1  H    0.256210   0.011521
     2  H    0.017500   0.965506
     3  F   -0.273710   0.022973
 Sum of Mulliken charges =   0.00000   1.00000

 Dipole moment (field-independent basis, Debye):
    X=             -1.8715    Y=              0.0000    Z=              0.0000  Tot=              1.8715
 Quadrupole moment (field-independent basis, Debye-Ang):
   XX=             -7.2553   YY=             -6.6899   ZZ=             -6.6899
   XY=              0.0000   XZ=              0.0000   YZ=             -0.0000

  Exact polarizability:       8.397      -0.000       2.529      -0.000       0.000       2.529
 Approx polarizability:       8.418      -0.000       2.530      -0.000       0.000       2.530

 ******    2 imaginary frequencies (negative Signs) ******

                      1                      2                      3
                      A                      A                      A
 Frequencies --  -1949.9682             -1949.9682               551.1262
 Red. masses --      1.0286                 1.0286                 1.0532
 Frc consts  --      2.3043                 2.3043                 0.1885
 IR Inten    --    142.4823               142.4823                 0.0542

                      4
                      A
 Frequencies --   6313.3918
 Red. masses --      1.0584
 Frc consts  --     24.8548
 IR Inten    --    179.9505

 - Thermochemistry -
 -------------------
 Temperature   298.150 Kelvin.  Pressure   1.00000 Atm.
 Atom     1 has atomic number  1 and mass   1.00783

 Molecular mass:    21.01405 amu.
 Principal axes and moments of inertia in atomic units:
                           1         2         3
     Eigenvalues --     0.00000  22.08325  22.08325
           X            1.00000  -0.00000   0.00000
           Y            0.00000   1.00000   0.00000
           Z            0.00000   0.00000   1.00000
 This molecule is a prolate symmetric top.
 Rotational symmetry number  1.
 Rotational temperature (Kelvin)      3.92215
 Rotational constant (GHZ):          81.724425
    2 imaginary frequencies ignored.
 Zero-point vibrational energy      41058.9 (Joules/Mol)
                                    9.81332 (Kcal/Mol)
 Warning -- explicit consideration of   1 degrees of freedom as
           vibrations may cause significant error
 Vibrational temperatures:    792.95  9083.56
          (Kelvin)

 Zero-point correction=                           0.015639 (Hartree/Particle)
 Thermal correction to Energy=                    0.018188
 Thermal correction to Enthalpy=                  0.019132
 Thermal correction to Gibbs Free Energy=        -0.003475
 Sum of electronic and zero-point Energies=           -100.932920
 Sum of electronic and thermal Energies=              -100.930370
 Sum of electronic and thermal Enthalpies=            -100.929426
 Sum of electronic and thermal Free Energies=         -100.952033

                     E (Thermal)             CV                S
                      KCal/Mol        Cal/Mol-Kelvin    Cal/Mol-Kelvin
 Total                   11.413              6.105             47.581
 Electronic               0.000              0.000              1.377
 Translational            0.889              2.981             35.068
 Rotational               0.592              1.987             10.594
 Vibrational              9.932              1.137              0.542
 Vibration     1          0.906              1.137              0.542

 Normal termination of Gaussian 16 at Fri Aug 22 15:50:51 2025.
