 Gaussian 16, Revision C.01,
 Gaussian 16:  ES64L-G16RevC.01  3-Jul-2019

 -----------------------------------------
 # sp b3lyp/6-311g** Force nosymm scf=(qc)
 -----------------------------------------

 -------------------
 Title Card Required
 -------------------
 Symbolic Z-matrix:
 Charge =  0 Multiplicity = 2

                          Input orientation:
 ---------------------------------------------------------------------
 Center     Atomic      Atomic             Coordinates (Angstroms)
 Number     Number       Type             X           Y           Z
 ---------------------------------------------------------------------
      1          1           0        0.000000    0.000000    0.000000
      2          1           0       -1.300000    0.000000    0.000000
      3          9           0        1.900000    0.000000    0.000000
 ---------------------------------------------------------------------

 SCF Done:  E(UB3LYP) =  -100.865779405     a.u. after   13 cycles

 Alpha  occ. eigenvalues --  -24.70457  -1.16853  -0.50390  -0.41740  -0.41740
 Alpha  occ. eigenvalues --   -0.39060
 Alpha virt. eigenvalues --   -0.06664   0.21666   0.32122   0.88709   0.92778
 Alpha virt. eigenvalues --    0.92778   1.04436   1.12063   1.12063   1.38246
 Alpha virt. eigenvalues --    1.46554   1.46554   1.99617   2.25167   2.50972

  Beta  occ. eigenvalues --  -24.67847  -1.09522  -0.39160  -0.39160  -0.38822
  Beta virt. eigenvalues --   -0.24134  -0.04641   0.23194   0.32515   0.93807
  Beta virt. eigenvalues --    0.93807   0.94048   1.07939   1.14046   1.14046
  Beta virt. eigenvalues --    1.42145   1.47653   1.47653   2.01792   2.26541

 Mulliken charges and spin densities:
               1          2
     1  H    0.078629  -0.198931
     2  H    0.061533   0.382325
     3  F   -0.140162   0.816606
 Sum of Mulliken charges =  -0.00000   1.00000

 Dipole moment (field-independent basis, Debye):
    X=             -1.6842    Y=             -0.0000    Z=             -0.0000  Tot=              1.6842
 Quadrupole moment (field-independent basis, Debye-Ang):
   XX=             -7.3324   YY=             -7.4055   ZZ=             -7.4055
   XY=             -0.0000   XZ=             -0.0000   YZ=             -0.0000

  Exact polarizability:      44.698      -0.000       2.186      -0.000       0.000       2.186
 Approx polarizability:      68.879       0.000       2.158       0.000      -0.000       2.158

 ******    2 imaginary frequencies (negative Signs) ******

                      1                      2                      3
                      A                      A                      A
 Frequencies --  -1988.4372              -332.9708              1271.1508
 Red. masses --      1.0152                 1.0997                 1.0140
 Frc consts  --      2.3650                 0.0718                 0.9653
 IR Inten    --   1168.2659                 0.5982                 1.0139

                      4
                      A
 Frequencies --   1271.1508
 Red. masses --      1.0140
 Frc consts  --      0.9653
 IR Inten    --      1.0139

 - Thermochemistry -
 -------------------
 Temperature   298.150 Kelvin.  Pressure   1.00000 Atm.
 Atom     1 has atomic number  1 and mass   1.00783

 Molecular mass:    21.01405 amu.
 Principal axes and moments of inertia in atomic units:
                           1         2         3
     Eigenvalues --     0.00000  45.35676  45.35676
           X            1.00000  -0.00000   0.00000
           Y            0.00000   1.00000   0.00000
           Z            0.00000   0.00000   1.00000
 This molecule is a prolate symmetric top.
 Rotational symmetry number  1.
 Rotational temperature (Kelvin)      1.90961
 Rotational constant (GHZ):          39.789904
    2 imaginary frequencies ignored.
 Zero-point vibrational energy      15206.3 (Joules/Mol)
                                    3.63440 (Kcal/Mol)
 Vibrational temperatures:   1828.90  1828.90
          (Kelvin)

 Zero-point correction=                           0.005792 (Hartree/Particle)
 Thermal correction to Energy=                    0.008177
 Thermal correction to Enthalpy=                  0.009122
 Thermal correction to Gibbs Free Energy=        -0.013937
 Sum of electronic and zero-point Energies=           -100.859988
 Sum of electronic and thermal Energies=              -100.857602
 Sum of electronic and thermal Enthalpies=            -100.856658
 Sum of electronic and thermal Free Energies=         -100.879716

                     E (Thermal)             CV                S
                      KCal/Mol        Cal/Mol-Kelvin    Cal/Mol-Kelvin
 Total                    5.131              5.294             48.531
 Electronic               0.000              0.000              1.377
 Translational            0.889              2.981             35.068
 Rotational               0.592              1.987             12.024
 Vibrational              3.650              0.326              0.062

 Normal termination of Gaussian 16 at Fri Aug 22 16:49:22 2025.
