 Gaussian 16, Revision C.01,
 Gaussian 16:  ES64L-G16RevC.01  3-Jul-2019

 -----------------------------------------
 # sp b3lyp/6-311g** Force nosymm scf=(qc)
 -----------------------------------------

 -------------------
 Title Card Required
 -------------------
 Symbolic Z-matrix:
 Charge =  0 Multiplicity = 2

                          Input orientation:
 ---------------------------------------------------------------------
 Center     Atomic      Atomic             Coordinates (Angstroms)
 Number     Number       Type             X           Y           Z
 ---------------------------------------------------------------------
      1          1           0        0.000000    0.000000    0.000000
      2          1           0       -3.150000    0.000000    0.000000
      3          9           0        0.950000    0.000000    0.000000
 ---------------------------------------------------------------------

 SCF Done:  E(UB3LYP) =  -100.971087187     a.u. after    6 cycles

 Alpha  occ. eigenvalues --  -24.64088  -1.17426  -0.52729  -0.39197  -0.39197
 Alpha  occ. eigenvalues --   -0.33983
 Alpha virt. eigenvalues --    0.02098   0.24752   0.36687   0.94237   0.94237
 Alpha virt. eigenvalues --    0.98151   1.23112   1.23542   1.23542   1.30987
 Alpha virt. eigenvalues --    1.36495   1.36495   1.96191   2.14454   2.35024

  Beta  occ. eigenvalues --  -24.64084  -1.17417  -0.52718  -0.39194  -0.39194
  Beta virt. eigenvalues --   -0.06727   0.03088   0.36409   0.38948   0.94238
  Beta virt. eigenvalues --    0.94238   0.98147   1.29968   1.36493   1.36493
  Beta virt. eigenvalues --    1.49528   1.49528   1.49860   1.96271   2.34982

 Mulliken charges and spin densities:
               1          2
     1  H    0.306940   0.001084
     2  H    0.001888   0.997603
     3  F   -0.308828   0.001313
 Sum of Mulliken charges =   0.00000   1.00000

 Dipole moment (field-independent basis, Debye):
    X=             -1.9818    Y=              0.0000    Z=             -0.0000  Tot=              1.9818
 Quadrupole moment (field-independent basis, Debye-Ang):
   XX=             -8.0057   YY=             -6.9158   ZZ=             -6.9158
   XY=              0.0000   XZ=             -0.0000   YZ=             -0.0000

  Exact polarizability:       6.601       0.000       2.419      -0.000       0.000       2.419
 Approx polarizability:       7.719       0.000       2.396      -0.000       0.000       2.396

 ******    1 imaginary frequencies (negative Signs) ******

                      1                      2                      3
                      A                      A                      A
 Frequencies --    -61.4322               672.7210               672.7210
 Red. masses --      1.0532                 1.0361                 1.0361
 Frc consts  --      0.0023                 0.2763                 0.2763
 IR Inten    --      0.1375               171.8911               171.8911

                      4
                      A
 Frequencies --   3678.3782
 Red. masses --      1.0584
 Frc consts  --      8.4372
 IR Inten    --    100.8124

 - Thermochemistry -
 -------------------
 Temperature   298.150 Kelvin.  Pressure   1.00000 Atm.
 Atom     1 has atomic number  1 and mass   1.00783

 Molecular mass:    21.01405 amu.
 Principal axes and moments of inertia in atomic units:
                           1         2         3
     Eigenvalues --     0.00000  59.34553  59.34553
           X            1.00000  -0.00000   0.00000
           Y            0.00000   1.00000   0.00000
           Z            0.00000   0.00000   1.00000
 This molecule is a prolate symmetric top.
 Rotational symmetry number  1.
 Rotational temperature (Kelvin)      1.45949
 Rotational constant (GHZ):          30.410735
    1 imaginary frequencies ignored.
 Zero-point vibrational energy      30049.1 (Joules/Mol)
                                    7.18191 (Kcal/Mol)
 Vibrational temperatures:    967.90   967.90  5292.37
          (Kelvin)

 Zero-point correction=                           0.011445 (Hartree/Particle)
 Thermal correction to Energy=                    0.014054
 Thermal correction to Enthalpy=                  0.014998
 Thermal correction to Gibbs Free Energy=        -0.008608
 Sum of electronic and zero-point Energies=           -100.959642
 Sum of electronic and thermal Energies=              -100.957033
 Sum of electronic and thermal Enthalpies=            -100.956089
 Sum of electronic and thermal Free Energies=         -100.979696

                     E (Thermal)             CV                S
                      KCal/Mol        Cal/Mol-Kelvin    Cal/Mol-Kelvin
 Total                    8.819              6.733             49.684
 Electronic               0.000              0.000              1.377
 Translational            0.889              2.981             35.068
 Rotational               0.592              1.987             12.558
 Vibrational              7.338              1.765              0.680

 Normal termination of Gaussian 16 at Fri Aug 22 15:58:55 2025.
