 Gaussian 16, Revision C.01,
 Gaussian 16:  ES64L-G16RevC.01  3-Jul-2019

 -----------------------------------------
 # sp b3lyp/6-311g** Force nosymm scf=(qc)
 -----------------------------------------

 -------------------
 Title Card Required
 -------------------
 Symbolic Z-matrix:
 Charge =  0 Multiplicity = 2

                          Input orientation:
 ---------------------------------------------------------------------
 Center     Atomic      Atomic             Coordinates (Angstroms)
 Number     Number       Type             X           Y           Z
 ---------------------------------------------------------------------
      1          1           0        0.000000    0.000000    0.000000
      2          1           0       -2.250000    0.000000    0.000000
      3          9           0        3.150000    0.000000    0.000000
 ---------------------------------------------------------------------

 SCF Done:  E(UB3LYP) =  -100.767824466     a.u. after   29 cycles

 Alpha  occ. eigenvalues --  -24.74712  -1.20723  -0.53831  -0.45199  -0.45199
 Alpha  occ. eigenvalues --   -0.33175
 Alpha virt. eigenvalues --   -0.10887   0.25642   0.32995   0.88971   0.91894
 Alpha virt. eigenvalues --    0.91894   1.03106   1.24349   1.24625   1.24625
 Alpha virt. eigenvalues --    1.38804   1.38804   1.43783   2.14070   2.35578

  Beta  occ. eigenvalues --  -24.71646  -1.11922  -0.42127  -0.42127  -0.33531
  Beta virt. eigenvalues --   -0.25154  -0.10145   0.25728   0.33877   0.93368
  Beta virt. eigenvalues --    0.93368   0.97895   1.07066   1.23857   1.24168
  Beta virt. eigenvalues --    1.24168   1.39978   1.39978   1.44853   2.15156

 Mulliken charges and spin densities:
               1          2
     1  H    0.017171  -0.909022
     2  H    0.007612   0.936891
     3  F   -0.024783   0.972131
 Sum of Mulliken charges =   0.00000   1.00000

 Dipole moment (field-independent basis, Debye):
    X=             -0.4822    Y=              0.0000    Z=              0.0000  Tot=              0.4822
 Quadrupole moment (field-independent basis, Debye-Ang):
   XX=             -7.4269   YY=             -7.6839   ZZ=             -7.6839
   XY=              0.0000   XZ=              0.0000   YZ=             -0.0000

  Exact polarizability:      48.944       0.000       2.011       0.000      -0.000       2.011
 Approx polarizability:      40.691       0.000       1.925       0.000       0.000       1.925

 ******    2 imaginary frequencies (negative Signs) ******

                      1                      2                      3
                      A                      A                      A
 Frequencies --   -965.5892              -205.4550               369.2532
 Red. masses --      1.0081                 1.1082                 1.0144
 Frc consts  --      0.5538                 0.0276                 0.0815
 IR Inten    --     17.9441                18.6721                 0.1744

                      4
                      A
 Frequencies --    369.2532
 Red. masses --      1.0144
 Frc consts  --      0.0815
 IR Inten    --      0.1744

 - Thermochemistry -
 -------------------
 Temperature   298.150 Kelvin.  Pressure   1.00000 Atm.
 Atom     1 has atomic number  1 and mass   1.00783

 Molecular mass:    21.01405 amu.
 Principal axes and moments of inertia in atomic units:
                           1         2         3
     Eigenvalues --     0.00000 128.04025 128.04025
           X            1.00000  -0.00000   0.00000
           Y            0.00000   1.00000   0.00000
           Z            0.00000   0.00000   1.00000
 This molecule is a prolate symmetric top.
 Rotational symmetry number  1.
 Rotational temperature (Kelvin)      0.67646
 Rotational constant (GHZ):          14.095108
    2 imaginary frequencies ignored.
 Zero-point vibrational energy       4417.2 (Joules/Mol)
                                    1.05575 (Kcal/Mol)
 Warning -- explicit consideration of   2 degrees of freedom as
           vibrations may cause significant error
 Vibrational temperatures:    531.27   531.27
          (Kelvin)

 Zero-point correction=                           0.001682 (Hartree/Particle)
 Thermal correction to Energy=                    0.004724
 Thermal correction to Enthalpy=                  0.005668
 Thermal correction to Gibbs Free Energy=        -0.019370
 Sum of electronic and zero-point Energies=           -100.766142
 Sum of electronic and thermal Energies=              -100.763101
 Sum of electronic and thermal Enthalpies=            -100.762156
 Sum of electronic and thermal Free Energies=         -100.787195

                     E (Thermal)             CV                S
                      KCal/Mol        Cal/Mol-Kelvin    Cal/Mol-Kelvin
 Total                    2.964              8.039             52.697
 Electronic               0.000              0.000              1.377
 Translational            0.889              2.981             35.068
 Rotational               0.592              1.987             14.086
 Vibrational              1.483              3.071              2.166
 Vibration     1          0.742              1.535              1.083
 Vibration     2          0.742              1.535              1.083

 Normal termination of Gaussian 16 at Fri Aug 22 20:10:15 2025.
