 Gaussian 16, Revision C.01,
 Gaussian 16:  ES64L-G16RevC.01  3-Jul-2019

 -----------------------------------------
 # sp b3lyp/6-311g** Force nosymm scf=(qc)
 -----------------------------------------

 -------------------
 Title Card Required
 -------------------
 Symbolic Z-matrix:
 Charge =  0 Multiplicity = 2

                          Input orientation:
 ---------------------------------------------------------------------
 Center     Atomic      Atomic             Coordinates (Angstroms)
 Number     Number       Type             X           Y           Z
 ---------------------------------------------------------------------
      1          1           0        0.000000    0.000000    0.000000
      2          1           0       -0.550000    0.000000    0.000000
      3          9           0        1.500000    0.000000    0.000000
 ---------------------------------------------------------------------

 SCF Done:  E(UB3LYP) =  -100.890134452     a.u. after    6 cycles

 Alpha  occ. eigenvalues --  -24.72424  -1.19487  -0.59075  -0.44992  -0.43803
 Alpha  occ. eigenvalues --   -0.43803
 Alpha virt. eigenvalues --    0.12047   0.19569   0.52824   0.88371   0.88371
 Alpha virt. eigenvalues --    0.96503   1.11761   1.11761   1.36027   1.66471
 Alpha virt. eigenvalues --    1.83894   1.95124   1.95124   2.48208   3.72368

  Beta  occ. eigenvalues --  -24.69585  -1.11678  -0.51904  -0.41039  -0.41039
  Beta virt. eigenvalues --   -0.23192   0.12812   0.20253   0.54963   0.89602
  Beta virt. eigenvalues --    0.89602   1.03026   1.13514   1.13514   1.39820
  Beta virt. eigenvalues --    1.69029   1.84786   1.96063   1.96063   2.50741

 Mulliken charges and spin densities:
               1          2
     1  H    0.117057  -0.024497
     2  H   -0.006025   0.168582
     3  F   -0.111032   0.855914
 Sum of Mulliken charges =   0.00000   1.00000

 Dipole moment (field-independent basis, Debye):
    X=             -0.7967    Y=             -0.0000    Z=              0.0000  Tot=              0.7967
 Quadrupole moment (field-independent basis, Debye-Ang):
   XX=             -6.5312   YY=             -6.5464   ZZ=             -6.5464
   XY=             -0.0000   XZ=              0.0000   YZ=             -0.0000

  Exact polarizability:      13.988      -0.000       2.216       0.000       0.000       2.216
 Approx polarizability:      16.215      -0.000       2.277       0.000      -0.000       2.277

 ******    2 imaginary frequencies (negative Signs) ******

                      1                      2                      3
                      A                      A                      A
 Frequencies --  -3814.8915             -3814.8915               580.7436
 Red. masses --      1.0102                 1.0102                 1.1085
 Frc consts  --      8.6621                 8.6621                 0.2203
 IR Inten    --      0.0190                 0.0190                51.7453

                      4
                      A
 Frequencies --   8205.8759
 Red. masses --      1.0078
 Frc consts  --     39.9843
 IR Inten    --    431.0970

 - Thermochemistry -
 -------------------
 Temperature   298.150 Kelvin.  Pressure   1.00000 Atm.
 Atom     1 has atomic number  1 and mass   1.00783

 Molecular mass:    21.01405 amu.
 Principal axes and moments of inertia in atomic units:
                           1         2         3
     Eigenvalues --     0.00000  21.04732  21.04732
           X            1.00000  -0.00000   0.00000
           Y            0.00000   1.00000   0.00000
           Z            0.00000   0.00000   1.00000
 This molecule is a prolate symmetric top.
 Rotational symmetry number  1.
 Rotational temperature (Kelvin)      4.11520
 Rotational constant (GHZ):          85.746825
    2 imaginary frequencies ignored.
 Zero-point vibrational energy      52555.7 (Joules/Mol)
                                   12.56110 (Kcal/Mol)
 Warning -- explicit consideration of   1 degrees of freedom as
           vibrations may cause significant error
 Vibrational temperatures:    835.56 11806.43
          (Kelvin)

 Zero-point correction=                           0.020017 (Hartree/Particle)
 Thermal correction to Energy=                    0.022549
 Thermal correction to Enthalpy=                  0.023493
 Thermal correction to Gibbs Free Energy=         0.000959
 Sum of electronic and zero-point Energies=           -100.870117
 Sum of electronic and thermal Energies=              -100.867586
 Sum of electronic and thermal Enthalpies=            -100.866642
 Sum of electronic and thermal Free Energies=         -100.889176

                     E (Thermal)             CV                S
                      KCal/Mol        Cal/Mol-Kelvin    Cal/Mol-Kelvin
 Total                   14.150              6.041             47.428
 Electronic               0.000              0.000              1.377
 Translational            0.889              2.981             35.068
 Rotational               0.592              1.987             10.498
 Vibrational             12.668              1.073              0.484
 Vibration     1          0.937              1.073              0.484

 Normal termination of Gaussian 16 at Fri Aug 22 16:24:16 2025.
