 Gaussian 16, Revision C.01,
 Gaussian 16:  ES64L-G16RevC.01  3-Jul-2019

 -----------------------------------------
 # sp b3lyp/6-311g** Force nosymm scf=(qc)
 -----------------------------------------

 -------------------
 Title Card Required
 -------------------
 Symbolic Z-matrix:
 Charge =  0 Multiplicity = 2

                          Input orientation:
 ---------------------------------------------------------------------
 Center     Atomic      Atomic             Coordinates (Angstroms)
 Number     Number       Type             X           Y           Z
 ---------------------------------------------------------------------
      1          1           0        0.000000    0.000000    0.000000
      2          1           0       -3.950000    0.000000    0.000000
      3          9           0        2.350000    0.000000    0.000000
 ---------------------------------------------------------------------

 SCF Done:  E(UB3LYP) =  -100.771079206     a.u. after   14 cycles

 Alpha  occ. eigenvalues --  -24.70802  -1.17069  -0.49888  -0.41928  -0.41928
 Alpha  occ. eigenvalues --   -0.32858
 Alpha virt. eigenvalues --   -0.11205   0.23233   0.34296   0.88911   0.94076
 Alpha virt. eigenvalues --    0.94076   1.06147   1.24643   1.24643   1.24650
 Alpha virt. eigenvalues --    1.39049   1.39049   1.47118   2.13946   2.34808

  Beta  occ. eigenvalues --  -24.68053  -1.09275  -0.39194  -0.39194  -0.36019
  Beta virt. eigenvalues --   -0.22703  -0.06138   0.23475   0.38101   0.93546
  Beta virt. eigenvalues --    0.95342   0.95342   1.08256   1.21692   1.21692
  Beta virt. eigenvalues --    1.34996   1.46476   1.46638   1.46638   2.11636

 Mulliken charges and spin densities:
               1          2
     1  H    0.114590  -0.866569
     2  H    0.000339   0.999307
     3  F   -0.114929   0.867262
 Sum of Mulliken charges =  -0.00000   1.00000

 Dipole moment (field-independent basis, Debye):
    X=             -1.3706    Y=              0.0000    Z=              0.0000  Tot=              1.3706
 Quadrupole moment (field-independent basis, Debye-Ang):
   XX=             -9.6231   YY=             -7.5476   ZZ=             -7.5476
   XY=              0.0000   XZ=              0.0000   YZ=             -0.0000

  Exact polarizability:      28.568       0.000       2.032       0.000      -0.000       2.032
 Approx polarizability:      38.344       0.000       1.923       0.000       0.000       1.923

 ******    2 imaginary frequencies (negative Signs) ******

                      1                      2                      3
                      A                      A                      A
 Frequencies --   -721.0544               -72.1381               294.0257
 Red. masses --      1.0572                 1.0543                 1.0253
 Frc consts  --      0.3239                 0.0032                 0.0522
 IR Inten    --     93.7194                 0.0356                12.8168

                      4
                      A
 Frequencies --    294.0257
 Red. masses --      1.0253
 Frc consts  --      0.0522
 IR Inten    --     12.8168

 - Thermochemistry -
 -------------------
 Temperature   298.150 Kelvin.  Pressure   1.00000 Atm.
 Atom     1 has atomic number  1 and mass   1.00783

 Molecular mass:    21.01405 amu.
 Principal axes and moments of inertia in atomic units:
                           1         2         3
     Eigenvalues --     0.00000 149.80529 149.80529
           X            1.00000  -0.00000   0.00000
           Y            0.00000   1.00000   0.00000
           Z            0.00000   0.00000   1.00000
 This molecule is a prolate symmetric top.
 Rotational symmetry number  1.
 Rotational temperature (Kelvin)      0.57818
 Rotational constant (GHZ):          12.047246
    2 imaginary frequencies ignored.
 Zero-point vibrational energy       3517.3 (Joules/Mol)
                                    0.84066 (Kcal/Mol)
 Warning -- explicit consideration of   2 degrees of freedom as
           vibrations may cause significant error
 Vibrational temperatures:    423.04   423.04
          (Kelvin)

 Zero-point correction=                           0.001340 (Hartree/Particle)
 Thermal correction to Energy=                    0.004555
 Thermal correction to Enthalpy=                  0.005500
 Thermal correction to Gibbs Free Energy=        -0.020036
 Sum of electronic and zero-point Energies=           -100.769740
 Sum of electronic and thermal Energies=              -100.766524
 Sum of electronic and thermal Enthalpies=            -100.765580
 Sum of electronic and thermal Free Energies=         -100.791116

                     E (Thermal)             CV                S
                      KCal/Mol        Cal/Mol-Kelvin    Cal/Mol-Kelvin
 Total                    2.859              8.338             53.745
 Electronic               0.000              0.000              1.377
 Translational            0.889              2.981             35.068
 Rotational               0.592              1.987             14.398
 Vibrational              1.377              3.370              2.901
 Vibration     1          0.689              1.685              1.451
 Vibration     2          0.689              1.685              1.451

 Normal termination of Gaussian 16 at Fri Aug 22 17:28:07 2025.
