 Gaussian 16, Revision C.01,
 Gaussian 16:  ES64L-G16RevC.01  3-Jul-2019

 -----------------------------------------
 # sp b3lyp/6-311g** Force nosymm scf=(qc)
 -----------------------------------------

 -------------------
 Title Card Required
 -------------------
 Symbolic Z-matrix:
 Charge =  0 Multiplicity = 2

                          Input orientation:
 ---------------------------------------------------------------------
 Center     Atomic      Atomic             Coordinates (Angstroms)
 Number     Number       Type             X           Y           Z
 ---------------------------------------------------------------------
      1          1           0        0.000000    0.000000    0.000000
      2          1           0       -1.100000    0.000000    0.000000
      3          9           0        2.000000    0.000000    0.000000
 ---------------------------------------------------------------------

 SCF Done:  E(UB3LYP) =  -100.894781304     a.u. after   12 cycles

 Alpha  occ. eigenvalues --  -24.72933  -1.19165  -0.52711  -0.43800  -0.43800
 Alpha  occ. eigenvalues --   -0.40031
 Alpha virt. eigenvalues --   -0.01936   0.21462   0.35625   0.89772   0.91740
 Alpha virt. eigenvalues --    0.91740   1.08226   1.08555   1.08555   1.43533
 Alpha virt. eigenvalues --    1.57569   1.57569   2.15702   2.31246   2.55317

  Beta  occ. eigenvalues --  -24.70073  -1.11056  -0.40956  -0.40956  -0.39874
  Beta virt. eigenvalues --   -0.25060  -0.00516   0.22278   0.36157   0.93011
  Beta virt. eigenvalues --    0.93011   0.96934   1.09690   1.09690   1.11141
  Beta virt. eigenvalues --    1.46277   1.58348   1.58348   2.17158   2.32452

 Mulliken charges and spin densities:
               1          2
     1  H    0.033379  -0.080443
     2  H    0.045974   0.183547
     3  F   -0.079354   0.896896
 Sum of Mulliken charges =  -0.00000   1.00000

 Dipole moment (field-independent basis, Debye):
    X=             -1.0121    Y=             -0.0000    Z=              0.0000  Tot=              1.0121
 Quadrupole moment (field-independent basis, Debye-Ang):
   XX=             -6.6916   YY=             -7.2941   ZZ=             -7.2941
   XY=             -0.0000   XZ=              0.0000   YZ=              0.0000

  Exact polarizability:      35.815      -0.000       2.178       0.000      -0.000       2.178
 Approx polarizability:      48.834       0.000       2.187      -0.000      -0.000       2.187

 ******    1 imaginary frequencies (negative Signs) ******

                      1                      2                      3
                      A                      A                      A
 Frequencies --   -847.1840               587.9351              1435.0928
 Red. masses --      1.0561                 1.0555                 1.0123
 Frc consts  --      0.4466                 0.2150                 1.2284
 IR Inten    --    644.6497               175.7808                 0.0072

                      4
                      A
 Frequencies --   1435.0928
 Red. masses --      1.0123
 Frc consts  --      1.2284
 IR Inten    --      0.0072

 - Thermochemistry -
 -------------------
 Temperature   298.150 Kelvin.  Pressure   1.00000 Atm.
 Atom     1 has atomic number  1 and mass   1.00783

 Molecular mass:    21.01405 amu.
 Principal axes and moments of inertia in atomic units:
                           1         2         3
     Eigenvalues --     0.00000  44.49300  44.49300
           X            1.00000  -0.00000   0.00000
           Y            0.00000   1.00000   0.00000
           Z            0.00000   0.00000   1.00000
 This molecule is a prolate symmetric top.
 Rotational symmetry number  1.
 Rotational temperature (Kelvin)      1.94669
 Rotational constant (GHZ):          40.562362
    1 imaginary frequencies ignored.
 Zero-point vibrational energy      20684.2 (Joules/Mol)
                                    4.94363 (Kcal/Mol)
 Warning -- explicit consideration of   1 degrees of freedom as
           vibrations may cause significant error
 Vibrational temperatures:    845.91  2064.78  2064.78
          (Kelvin)

 Zero-point correction=                           0.007878 (Hartree/Particle)
 Thermal correction to Energy=                    0.010418
 Thermal correction to Enthalpy=                  0.011362
 Thermal correction to Gibbs Free Energy=        -0.011887
 Sum of electronic and zero-point Energies=           -100.886903
 Sum of electronic and thermal Energies=              -100.884363
 Sum of electronic and thermal Enthalpies=            -100.883419
 Sum of electronic and thermal Free Energies=         -100.906669

                     E (Thermal)             CV                S
                      KCal/Mol        Cal/Mol-Kelvin    Cal/Mol-Kelvin
 Total                    6.538              6.213             48.933
 Electronic               0.000              0.000              1.377
 Translational            0.889              2.981             35.068
 Rotational               0.592              1.987             11.986
 Vibrational              5.056              1.245              0.502
 Vibration     1          0.945              1.058              0.471

 Normal termination of Gaussian 16 at Fri Aug 22 16:55:39 2025.
