 Gaussian 16, Revision C.01,
 Gaussian 16:  ES64L-G16RevC.01  3-Jul-2019

 -----------------------------------------
 # sp b3lyp/6-311g** Force nosymm scf=(qc)
 -----------------------------------------

 -------------------
 Title Card Required
 -------------------
 Symbolic Z-matrix:
 Charge =  0 Multiplicity = 2

                          Input orientation:
 ---------------------------------------------------------------------
 Center     Atomic      Atomic             Coordinates (Angstroms)
 Number     Number       Type             X           Y           Z
 ---------------------------------------------------------------------
      1          1           0        0.000000    0.000000    0.000000
      2          1           0       -2.850000    0.000000    0.000000
      3          9           0        1.750000    0.000000    0.000000
 ---------------------------------------------------------------------

 SCF Done:  E(UB3LYP) =  -100.806406785     a.u. after   11 cycles

 Alpha  occ. eigenvalues --  -24.63877  -1.08393  -0.40333  -0.35646  -0.35646
 Alpha  occ. eigenvalues --   -0.35060
 Alpha virt. eigenvalues --   -0.19395   0.20913   0.27009   0.95243   0.95472
 Alpha virt. eigenvalues --    0.95472   1.08038   1.22370   1.22370   1.23302
 Alpha virt. eigenvalues --    1.26788   1.26788   1.68587   2.13159   2.16024

  Beta  occ. eigenvalues --  -24.63931  -1.08540  -0.40287  -0.35699  -0.35699
  Beta virt. eigenvalues --   -0.19672  -0.08436   0.24089   0.36392   0.95446
  Beta virt. eigenvalues --    0.95509   0.95509   1.08108   1.27320   1.27320
  Beta virt. eigenvalues --    1.43551   1.43639   1.43639   1.69075   2.16695

 Mulliken charges and spin densities:
               1          2
     1  H    0.310828   0.031760
     2  H    0.013919   0.985436
     3  F   -0.324747  -0.017196
 Sum of Mulliken charges =  -0.00000   1.00000

 Dipole moment (field-independent basis, Debye):
    X=             -2.9993    Y=             -0.0000    Z=              0.0000  Tot=              2.9993
 Quadrupole moment (field-independent basis, Debye-Ang):
   XX=            -10.4110   YY=             -7.4444   ZZ=             -7.4444
   XY=             -0.0000   XZ=              0.0000   YZ=             -0.0000

  Exact polarizability:      28.246      -0.000       2.087       0.000       0.000       2.087
 Approx polarizability:      59.522      -0.000       1.999       0.000       0.000       1.999

 ******    2 imaginary frequencies (negative Signs) ******

                      1                      2                      3
                      A                      A                      A
 Frequencies --  -1210.9963              -197.2441               821.3127
 Red. masses --      1.0533                 1.0583                 1.0248
 Frc consts  --      0.9101                 0.0243                 0.4073
 IR Inten    --    108.2829                 5.3469                87.2374

                      4
                      A
 Frequencies --    821.3127
 Red. masses --      1.0248
 Frc consts  --      0.4073
 IR Inten    --     87.2374

 - Thermochemistry -
 -------------------
 Temperature   298.150 Kelvin.  Pressure   1.00000 Atm.
 Atom     1 has atomic number  1 and mass   1.00783

 Molecular mass:    21.01405 amu.
 Principal axes and moments of inertia in atomic units:
                           1         2         3
     Eigenvalues --     0.00000  80.21704  80.21704
           X            1.00000  -0.00000   0.00000
           Y            0.00000   1.00000   0.00000
           Z            0.00000   0.00000   1.00000
 This molecule is a prolate symmetric top.
 Rotational symmetry number  1.
 Rotational temperature (Kelvin)      1.07974
 Rotational constant (GHZ):          22.498227
    2 imaginary frequencies ignored.
 Zero-point vibrational energy       9825.1 (Joules/Mol)
                                    2.34825 (Kcal/Mol)
 Vibrational temperatures:   1181.69  1181.69
          (Kelvin)

 Zero-point correction=                           0.003742 (Hartree/Particle)
 Thermal correction to Energy=                    0.006248
 Thermal correction to Enthalpy=                  0.007192
 Thermal correction to Gibbs Free Energy=        -0.016557
 Sum of electronic and zero-point Energies=           -100.802665
 Sum of electronic and thermal Energies=              -100.800159
 Sum of electronic and thermal Enthalpies=            -100.799215
 Sum of electronic and thermal Free Energies=         -100.822964

                     E (Thermal)             CV                S
                      KCal/Mol        Cal/Mol-Kelvin    Cal/Mol-Kelvin
 Total                    3.920              6.201             49.984
 Electronic               0.000              0.000              1.377
 Translational            0.889              2.981             35.068
 Rotational               0.592              1.987             13.157
 Vibrational              2.439              1.233              0.381

 Normal termination of Gaussian 16 at Fri Aug 22 16:41:14 2025.
