 Gaussian 16, Revision C.01,
 Gaussian 16:  ES64L-G16RevC.01  3-Jul-2019

 -----------------------------------------
 # sp b3lyp/6-311g** Force nosymm scf=(qc)
 -----------------------------------------

 -------------------
 Title Card Required
 -------------------
 Symbolic Z-matrix:
 Charge =  0 Multiplicity = 2

                          Input orientation:
 ---------------------------------------------------------------------
 Center     Atomic      Atomic             Coordinates (Angstroms)
 Number     Number       Type             X           Y           Z
 ---------------------------------------------------------------------
      1          1           0        0.000000    0.000000    0.000000
      2          1           0       -3.300000    0.000000    0.000000
      3          9           0        3.400000    0.000000    0.000000
 ---------------------------------------------------------------------

 SCF Done:  E(UB3LYP) =  -100.759581777     a.u. after   29 cycles

 Alpha  occ. eigenvalues --  -24.75205  -1.21182  -0.54327  -0.45614  -0.45614
 Alpha  occ. eigenvalues --   -0.32406
 Alpha virt. eigenvalues --   -0.07521   0.24466   0.36501   0.87937   0.91593
 Alpha virt. eigenvalues --    0.91593   1.02105   1.25107   1.25107   1.25410
 Alpha virt. eigenvalues --    1.44540   1.44600   1.44600   2.15274   2.40544

  Beta  occ. eigenvalues --  -24.72103  -1.12271  -0.42505  -0.42505  -0.32973
  Beta virt. eigenvalues --   -0.25390  -0.06851   0.24243   0.37571   0.93078
  Beta virt. eigenvalues --    0.93078   0.97008   1.06077   1.24451   1.24451
  Beta virt. eigenvalues --    1.24730   1.45438   1.45671   1.45671   2.15577

 Mulliken charges and spin densities:
               1          2
     1  H    0.014593  -0.980073
     2  H    0.000372   0.996532
     3  F   -0.014965   0.983541
 Sum of Mulliken charges =  -0.00000   1.00000

 Dipole moment (field-independent basis, Debye):
    X=             -0.2675    Y=             -0.0000    Z=             -0.0000  Tot=              0.2675
 Quadrupole moment (field-independent basis, Debye-Ang):
   XX=             -7.5259   YY=             -7.6242   ZZ=             -7.6242
   XY=              0.0000   XZ=              0.0000   YZ=             -0.0000

  Exact polarizability:      26.881       0.000       2.031       0.000       0.000       2.031
 Approx polarizability:      22.065       0.000       1.932       0.000       0.000       1.932

 ******    2 imaginary frequencies (negative Signs) ******

                      1                      2                      3
                      A                      A                      A
 Frequencies --   -291.5878              -124.0014                97.1530
 Red. masses --      1.0226                 1.0912                 1.0176
 Frc consts  --      0.0512                 0.0099                 0.0057
 IR Inten    --     13.4605                 2.4903                 0.1882

                      4
                      A
 Frequencies --     97.1530
 Red. masses --      1.0176
 Frc consts  --      0.0057
 IR Inten    --      0.1882

 - Thermochemistry -
 -------------------
 Temperature   298.150 Kelvin.  Pressure   1.00000 Atm.
 Atom     1 has atomic number  1 and mass   1.00783

 Molecular mass:    21.01405 amu.
 Principal axes and moments of inertia in atomic units:
                           1         2         3
     Eigenvalues --     0.00000 185.55640 185.55640
           X            1.00000  -0.00000   0.00000
           Y            0.00000   1.00000   0.00000
           Z            0.00000   0.00000   1.00000
 This molecule is a prolate symmetric top.
 Rotational symmetry number  1.
 Rotational temperature (Kelvin)      0.46678
 Rotational constant (GHZ):           9.726106
    2 imaginary frequencies ignored.
 Zero-point vibrational energy       1162.2 (Joules/Mol)
                                    0.27777 (Kcal/Mol)
 Warning -- explicit consideration of   2 degrees of freedom as
           vibrations may cause significant error
 Vibrational temperatures:    139.78   139.78
          (Kelvin)

 Zero-point correction=                           0.000443 (Hartree/Particle)
 Thermal correction to Energy=                    0.004283
 Thermal correction to Enthalpy=                  0.005227
 Thermal correction to Gibbs Free Energy=        -0.022468
 Sum of electronic and zero-point Energies=           -100.759139
 Sum of electronic and thermal Energies=              -100.755298
 Sum of electronic and thermal Enthalpies=            -100.754354
 Sum of electronic and thermal Free Energies=         -100.782050

                     E (Thermal)             CV                S
                      KCal/Mol        Cal/Mol-Kelvin    Cal/Mol-Kelvin
 Total                    2.688              8.870             58.290
 Electronic               0.000              0.000              1.377
 Translational            0.889              2.981             35.068
 Rotational               0.592              1.987             14.824
 Vibrational              1.207              3.902              7.021
 Vibration     1          0.603              1.951              3.511
 Vibration     2          0.603              1.951              3.511

 Normal termination of Gaussian 16 at Fri Aug 22 21:18:25 2025.
