 Gaussian 16, Revision C.01,
 Gaussian 16:  ES64L-G16RevC.01  3-Jul-2019

 -----------------------------------------
 # sp b3lyp/6-311g** Force nosymm scf=(qc)
 -----------------------------------------

 -------------------
 Title Card Required
 -------------------
 Symbolic Z-matrix:
 Charge =  0 Multiplicity = 2

                          Input orientation:
 ---------------------------------------------------------------------
 Center     Atomic      Atomic             Coordinates (Angstroms)
 Number     Number       Type             X           Y           Z
 ---------------------------------------------------------------------
      1          1           0        0.000000    0.000000    0.000000
      2          1           0       -2.750000    0.000000    0.000000
      3          9           0        0.550000    0.000000    0.000000
 ---------------------------------------------------------------------

 SCF Done:  E(UB3LYP) =  -100.519320661     a.u. after    6 cycles

 Alpha  occ. eigenvalues --  -24.62679  -1.38411  -0.62252  -0.43614  -0.43614
 Alpha  occ. eigenvalues --   -0.33928
 Alpha virt. eigenvalues --    0.08542   0.25709   0.60643   0.91232   0.91238
 Alpha virt. eigenvalues --    0.91238   1.20673   1.23608   1.23608   1.42795
 Alpha virt. eigenvalues --    1.54151   1.54151   1.96779   2.14801   3.65579

  Beta  occ. eigenvalues --  -24.62676  -1.38400  -0.62246  -0.43613  -0.43613
  Beta virt. eigenvalues --   -0.06823   0.09681   0.38854   0.60426   0.91229
  Beta virt. eigenvalues --    0.91229   0.91283   1.33493   1.48505   1.48505
  Beta virt. eigenvalues --    1.54152   1.54152   1.54669   1.96439   2.44662

 Mulliken charges and spin densities:
               1          2
     1  H    0.196401   0.001961
     2  H    0.002950   0.996260
     3  F   -0.199351   0.001778
 Sum of Mulliken charges =   0.00000   1.00000

 Dipole moment (field-independent basis, Debye):
    X=             -1.3966    Y=              0.0000    Z=              0.0000  Tot=              1.3966
 Quadrupole moment (field-independent basis, Debye-Ang):
   XX=             -6.7014   YY=             -6.4932   ZZ=             -6.4932
   XY=              0.0000   XZ=              0.0000   YZ=             -0.0000

  Exact polarizability:       4.130      -0.000       2.442      -0.000       0.000       2.442
 Approx polarizability:       4.191      -0.000       2.423       0.000       0.000       2.423

 ******    2 imaginary frequencies (negative Signs) ******

                      1                      2                      3
                      A                      A                      A
 Frequencies --  -7476.1009             -7476.1009                66.5289
 Red. masses --      1.0420                 1.0420                 1.0532
 Frc consts  --     34.3127                34.3127                 0.0027
 IR Inten    --    248.8849               248.8849                 0.1135

                      4
                      A
 Frequencies --  15777.8669
 Red. masses --      1.0583
 Frc consts  --    155.2244
 IR Inten    --     94.6161

 - Thermochemistry -
 -------------------
 Temperature   298.150 Kelvin.  Pressure   1.00000 Atm.
 Atom     1 has atomic number  1 and mass   1.00783

 Molecular mass:    21.01405 amu.
 Principal axes and moments of inertia in atomic units:
                           1         2         3
     Eigenvalues --     0.00000  37.72344  37.72344
           X            1.00000  -0.00000   0.00000
           Y            0.00000   1.00000   0.00000
           Z            0.00000   0.00000   1.00000
 This molecule is a prolate symmetric top.
 Rotational symmetry number  1.
 Rotational temperature (Kelvin)      2.29602
 Rotational constant (GHZ):          47.841378
    2 imaginary frequencies ignored.
 Zero-point vibrational energy      94770.5 (Joules/Mol)
                                   22.65070 (Kcal/Mol)
 Warning -- explicit consideration of   1 degrees of freedom as
           vibrations may cause significant error
 Vibrational temperatures:     95.72 22700.83
          (Kelvin)

 Zero-point correction=                           0.036096 (Hartree/Particle)
 Thermal correction to Energy=                    0.039257
 Thermal correction to Enthalpy=                  0.040202
 Thermal correction to Gibbs Free Energy=         0.015325
 Sum of electronic and zero-point Energies=           -100.483224
 Sum of electronic and thermal Energies=              -100.480063
 Sum of electronic and thermal Enthalpies=            -100.479119
 Sum of electronic and thermal Free Energies=         -100.503995

                     E (Thermal)             CV                S
                      KCal/Mol        Cal/Mol-Kelvin    Cal/Mol-Kelvin
 Total                   24.634              6.938             52.357
 Electronic               0.000              0.000              1.377
 Translational            0.889              2.981             35.068
 Rotational               0.592              1.987             11.658
 Vibrational             23.153              1.970              4.254
 Vibration     1          0.598              1.970              4.254

 Normal termination of Gaussian 16 at Fri Aug 22 15:39:50 2025.
