 Gaussian 16, Revision C.01,
 Gaussian 16:  ES64L-G16RevC.01  3-Jul-2019

 -----------------------------------------
 # sp b3lyp/6-311g** Force nosymm scf=(qc)
 -----------------------------------------

 -------------------
 Title Card Required
 -------------------
 Symbolic Z-matrix:
 Charge =  0 Multiplicity = 2

                          Input orientation:
 ---------------------------------------------------------------------
 Center     Atomic      Atomic             Coordinates (Angstroms)
 Number     Number       Type             X           Y           Z
 ---------------------------------------------------------------------
      1          1           0        0.000000    0.000000    0.000000
      2          1           0       -1.950000    0.000000    0.000000
      3          9           0        3.600000    0.000000    0.000000
 ---------------------------------------------------------------------

 SCF Done:  E(UB3LYP) =  -100.776808365     a.u. after   37 cycles

 Alpha  occ. eigenvalues --  -24.75738  -1.21677  -0.54862  -0.46069  -0.46069
 Alpha  occ. eigenvalues --   -0.33090
 Alpha virt. eigenvalues --   -0.11016   0.25889   0.32022   0.87279   0.91244
 Alpha virt. eigenvalues --    0.91244   1.01474   1.15213   1.24881   1.24881
 Alpha virt. eigenvalues --    1.37685   1.37685   1.53341   2.13292   2.37024

  Beta  occ. eigenvalues --  -24.72607  -1.12676  -0.42930  -0.42930  -0.33140
  Beta virt. eigenvalues --   -0.25715  -0.10835   0.25770   0.32378   0.92738
  Beta virt. eigenvalues --    0.92738   0.96518   1.05552   1.15218   1.24821
  Beta virt. eigenvalues --    1.24821   1.37920   1.37920   1.53512   2.13716

 Mulliken charges and spin densities:
               1          2
     1  H    0.001002  -0.824543
     2  H    0.005196   0.831868
     3  F   -0.006197   0.992676
 Sum of Mulliken charges =   0.00000   1.00000

 Dipole moment (field-independent basis, Debye):
    X=             -0.1619    Y=             -0.0000    Z=              0.0000  Tot=              0.1619
 Quadrupole moment (field-independent basis, Debye-Ang):
   XX=             -6.4257   YY=             -7.7347   ZZ=             -7.7347
   XY=             -0.0001   XZ=              0.0000   YZ=             -0.0000

  Exact polarizability:      39.812      -0.000       2.006       0.000       0.000       2.006
 Approx polarizability:      37.149      -0.000       1.942       0.000      -0.000       1.942

 ******    2 imaginary frequencies (negative Signs) ******

                      1                      2                      3
                      A                      A                      A
 Frequencies --  -1446.8913              -117.6891               600.5877
 Red. masses --      1.0078                 1.1085                 1.0122
 Frc consts  --      1.2431                 0.0090                 0.2151
 IR Inten    --      7.0409                 4.2340                 0.0008

                      4
                      A
 Frequencies --    600.5877
 Red. masses --      1.0122
 Frc consts  --      0.2151
 IR Inten    --      0.0008

 - Thermochemistry -
 -------------------
 Temperature   298.150 Kelvin.  Pressure   1.00000 Atm.
 Atom     1 has atomic number  1 and mass   1.00783

 Molecular mass:    21.01405 amu.
 Principal axes and moments of inertia in atomic units:
                           1         2         3
     Eigenvalues --     0.00000 143.05053 143.05053
           X            1.00000  -0.00000   0.00000
           Y            0.00000   1.00000   0.00000
           Z            0.00000   0.00000   1.00000
 This molecule is a prolate symmetric top.
 Rotational symmetry number  1.
 Rotational temperature (Kelvin)      0.60548
 Rotational constant (GHZ):          12.616110
    2 imaginary frequencies ignored.
 Zero-point vibrational energy       7184.6 (Joules/Mol)
                                    1.71717 (Kcal/Mol)
 Warning -- explicit consideration of   2 degrees of freedom as
           vibrations may cause significant error
 Vibrational temperatures:    864.11   864.11
          (Kelvin)

 Zero-point correction=                           0.002736 (Hartree/Particle)
 Thermal correction to Energy=                    0.005416
 Thermal correction to Enthalpy=                  0.006360
 Thermal correction to Gibbs Free Energy=        -0.018180
 Sum of electronic and zero-point Energies=           -100.774072
 Sum of electronic and thermal Energies=              -100.771392
 Sum of electronic and thermal Enthalpies=            -100.770448
 Sum of electronic and thermal Free Energies=         -100.794988

                     E (Thermal)             CV                S
                      KCal/Mol        Cal/Mol-Kelvin    Cal/Mol-Kelvin
 Total                    3.399              7.029             51.649
 Electronic               0.000              0.000              1.377
 Translational            0.889              2.981             35.068
 Rotational               0.592              1.987             14.307
 Vibrational              1.918              2.061              0.897
 Vibration     1          0.959              1.031              0.449
 Vibration     2          0.959              1.031              0.449

 Normal termination of Gaussian 16 at Fri Aug 22 23:05:26 2025.
