 Gaussian 16, Revision C.01,
 Gaussian 16:  ES64L-G16RevC.01  3-Jul-2019

 -----------------------------------------
 # sp b3lyp/6-311g** Force nosymm scf=(qc)
 -----------------------------------------

 -------------------
 Title Card Required
 -------------------
 Symbolic Z-matrix:
 Charge =  0 Multiplicity = 2

                          Input orientation:
 ---------------------------------------------------------------------
 Center     Atomic      Atomic             Coordinates (Angstroms)
 Number     Number       Type             X           Y           Z
 ---------------------------------------------------------------------
      1          1           0        0.000000    0.000000    0.000000
      2          1           0       -0.600000    0.000000    0.000000
      3          9           0        1.150000    0.000000    0.000000
 ---------------------------------------------------------------------

 SCF Done:  E(UB3LYP) =  -100.900179070     a.u. after    6 cycles

 Alpha  occ. eigenvalues --  -24.68616  -1.18901  -0.63512  -0.41897  -0.41897
 Alpha  occ. eigenvalues --   -0.38155
 Alpha virt. eigenvalues --    0.12869   0.18760   0.57943   0.87141   0.87141
 Alpha virt. eigenvalues --    0.95089   1.12141   1.12141   1.49947   1.64589
 Alpha virt. eigenvalues --    1.87013   1.87013   1.88047   2.46864   3.78976

  Beta  occ. eigenvalues --  -24.66397  -1.13201  -0.55091  -0.39837  -0.39837
  Beta virt. eigenvalues --   -0.19278   0.14431   0.19520   0.62069   0.88723
  Beta virt. eigenvalues --    0.88723   0.99727   1.15487   1.15487   1.52691
  Beta virt. eigenvalues --    1.70227   1.89254   1.89861   1.89861   2.52351

 Mulliken charges and spin densities:
               1          2
     1  H    0.251799  -0.015909
     2  H   -0.039770   0.409456
     3  F   -0.212029   0.606453
 Sum of Mulliken charges =   0.00000   1.00000

 Dipole moment (field-independent basis, Debye):
    X=             -1.3136    Y=              0.0000    Z=             -0.0000  Tot=              1.3136
 Quadrupole moment (field-independent basis, Debye-Ang):
   XX=             -7.1728   YY=             -6.4798   ZZ=             -6.4798
   XY=              0.0000   XZ=              0.0000   YZ=              0.0000

  Exact polarizability:      13.759      -0.000       2.431       0.000      -0.000       2.431
 Approx polarizability:      16.850       0.000       2.490       0.000      -0.000       2.490

 ******    2 imaginary frequencies (negative Signs) ******

                      1                      2                      3
                      A                      A                      A
 Frequencies --  -3203.3936             -3203.3936              1351.4573
 Red. masses --      1.0120                 1.0120                 1.1083
 Frc consts  --      6.1185                 6.1185                 1.1927
 IR Inten    --      7.6381                 7.6381                11.6975

                      4
                      A
 Frequencies --   6613.9591
 Red. masses --      1.0080
 Frc consts  --     25.9790
 IR Inten    --    343.1088

 - Thermochemistry -
 -------------------
 Temperature   298.150 Kelvin.  Pressure   1.00000 Atm.
 Atom     1 has atomic number  1 and mass   1.00783

 Molecular mass:    21.01405 amu.
 Principal axes and moments of inertia in atomic units:
                           1         2         3
     Eigenvalues --     0.00000  14.33003  14.33003
           X            1.00000  -0.00000   0.00000
           Y            0.00000   1.00000   0.00000
           Z            0.00000   0.00000   1.00000
 This molecule is a prolate symmetric top.
 Rotational symmetry number  1.
 Rotational temperature (Kelvin)      6.04423
 Rotational constant (GHZ):         125.941217
    2 imaginary frequencies ignored.
 Zero-point vibrational energy      47643.8 (Joules/Mol)
                                   11.38713 (Kcal/Mol)
 Vibrational temperatures:   1944.45  9516.01
          (Kelvin)

 Zero-point correction=                           0.018147 (Hartree/Particle)
 Thermal correction to Energy=                    0.020516
 Thermal correction to Enthalpy=                  0.021460
 Thermal correction to Gibbs Free Energy=        -0.000492
 Sum of electronic and zero-point Energies=           -100.882033
 Sum of electronic and thermal Energies=              -100.879663
 Sum of electronic and thermal Enthalpies=            -100.878719
 Sum of electronic and thermal Free Energies=         -100.900671

                     E (Thermal)             CV                S
                      KCal/Mol        Cal/Mol-Kelvin    Cal/Mol-Kelvin
 Total                   12.874              5.093             46.202
 Electronic               0.000              0.000              1.377
 Translational            0.889              2.981             35.068
 Rotational               0.592              1.987              9.734
 Vibrational             11.393              0.125              0.022

 Normal termination of Gaussian 16 at Fri Aug 22 16:06:44 2025.
