 Gaussian 16, Revision C.01,
 Gaussian 16:  ES64L-G16RevC.01  3-Jul-2019

 -----------------------------------------
 # sp b3lyp/6-311g** Force nosymm scf=(qc)
 -----------------------------------------

 -------------------
 Title Card Required
 -------------------
 Symbolic Z-matrix:
 Charge =  0 Multiplicity = 2

                          Input orientation:
 ---------------------------------------------------------------------
 Center     Atomic      Atomic             Coordinates (Angstroms)
 Number     Number       Type             X           Y           Z
 ---------------------------------------------------------------------
      1          1           0        0.000000    0.000000    0.000000
      2          1           0       -1.800000    0.000000    0.000000
      3          9           0        1.500000    0.000000    0.000000
 ---------------------------------------------------------------------

 SCF Done:  E(UB3LYP) =  -100.864696204     a.u. after   11 cycles

 Alpha  occ. eigenvalues --  -24.63989  -1.10293  -0.45050  -0.37787  -0.36287
 Alpha  occ. eigenvalues --   -0.36287
 Alpha virt. eigenvalues --   -0.09961   0.22326   0.27989   0.94207   0.94207
 Alpha virt. eigenvalues --    0.97547   1.04287   1.18709   1.18709   1.35069
 Alpha virt. eigenvalues --    1.35069   1.39661   1.74258   2.12078   2.31870

  Beta  occ. eigenvalues --  -24.63029  -1.07744  -0.41543  -0.35374  -0.35374
  Beta virt. eigenvalues --   -0.19652  -0.06267   0.25710   0.30802   0.94056
  Beta virt. eigenvalues --    0.94056   1.01959   1.06590   1.28502   1.28502
  Beta virt. eigenvalues --    1.37229   1.37229   1.48337   1.75886   2.17190

 Mulliken charges and spin densities:
               1          2
     1  H    0.283844  -0.190295
     2  H    0.059107   0.891075
     3  F   -0.342951   0.299219
 Sum of Mulliken charges =   0.00000   1.00000

 Dipole moment (field-independent basis, Debye):
    X=             -3.0478    Y=             -0.0000    Z=             -0.0000  Tot=              3.0478
 Quadrupole moment (field-independent basis, Debye-Ang):
   XX=             -8.5922   YY=             -7.2787   ZZ=             -7.2787
   XY=             -0.0000   XZ=             -0.0000   YZ=             -0.0000

  Exact polarizability:      31.762      -0.000       2.249      -0.000      -0.000       2.249
 Approx polarizability:      43.991       0.000       2.182       0.000      -0.000       2.182

 ******    2 imaginary frequencies (negative Signs) ******

                      1                      2                      3
                      A                      A                      A
 Frequencies --  -2164.1528              -451.0973               992.4011
 Red. masses --      1.0302                 1.0826                 1.0203
 Frc consts  --      2.8429                 0.1298                 0.5920
 IR Inten    --      2.2722                 0.1655                52.4574

                      4
                      A
 Frequencies --    992.4011
 Red. masses --      1.0203
 Frc consts  --      0.5920
 IR Inten    --     52.4574

 - Thermochemistry -
 -------------------
 Temperature   298.150 Kelvin.  Pressure   1.00000 Atm.
 Atom     1 has atomic number  1 and mass   1.00783

 Molecular mass:    21.01405 amu.
 Principal axes and moments of inertia in atomic units:
                           1         2         3
     Eigenvalues --     0.00000  43.31411  43.31411
           X            1.00000  -0.00000   0.00000
           Y            0.00000   1.00000   0.00000
           Z            0.00000   0.00000   1.00000
 This molecule is a prolate symmetric top.
 Rotational symmetry number  1.
 Rotational temperature (Kelvin)      1.99967
 Rotational constant (GHZ):          41.666359
    2 imaginary frequencies ignored.
 Zero-point vibrational energy      11871.8 (Joules/Mol)
                                    2.83742 (Kcal/Mol)
 Vibrational temperatures:   1427.84  1427.84
          (Kelvin)

 Zero-point correction=                           0.004522 (Hartree/Particle)
 Thermal correction to Energy=                    0.006958
 Thermal correction to Enthalpy=                  0.007902
 Thermal correction to Gibbs Free Energy=        -0.015175
 Sum of electronic and zero-point Energies=           -100.860174
 Sum of electronic and thermal Energies=              -100.857738
 Sum of electronic and thermal Enthalpies=            -100.856794
 Sum of electronic and thermal Free Energies=         -100.879871

                     E (Thermal)             CV                S
                      KCal/Mol        Cal/Mol-Kelvin    Cal/Mol-Kelvin
 Total                    4.366              5.739             48.571
 Electronic               0.000              0.000              1.377
 Translational            0.889              2.981             35.068
 Rotational               0.592              1.987             11.932
 Vibrational              2.885              0.771              0.193

 Normal termination of Gaussian 16 at Fri Aug 22 16:25:20 2025.
