 Gaussian 16, Revision C.01,
 Gaussian 16:  ES64L-G16RevC.01  3-Jul-2019

 -----------------------------------------
 # sp b3lyp/6-311g** Force nosymm scf=(qc)
 -----------------------------------------

 -------------------
 Title Card Required
 -------------------
 Symbolic Z-matrix:
 Charge =  0 Multiplicity = 2

                          Input orientation:
 ---------------------------------------------------------------------
 Center     Atomic      Atomic             Coordinates (Angstroms)
 Number     Number       Type             X           Y           Z
 ---------------------------------------------------------------------
      1          1           0        0.000000    0.000000    0.000000
      2          1           0       -3.900000    0.000000    0.000000
      3          9           0        1.200000    0.000000    0.000000
 ---------------------------------------------------------------------

 SCF Done:  E(UB3LYP) =  -100.925535124     a.u. after    6 cycles

 Alpha  occ. eigenvalues --  -24.64362  -1.12279  -0.47752  -0.37538  -0.37538
 Alpha  occ. eigenvalues --   -0.33534
 Alpha virt. eigenvalues --   -0.05779   0.22161   0.29073   0.93165   0.93165
 Alpha virt. eigenvalues --    1.00800   1.23922   1.23974   1.23974   1.26015
 Alpha virt. eigenvalues --    1.34606   1.34606   1.72545   2.13494   2.28390

  Beta  occ. eigenvalues --  -24.64360  -1.12274  -0.47748  -0.37537  -0.37537
  Beta virt. eigenvalues --   -0.06762  -0.04512   0.26683   0.38942   0.93165
  Beta virt. eigenvalues --    0.93165   1.00804   1.26014   1.34603   1.34603
  Beta virt. eigenvalues --    1.48520   1.48520   1.49076   1.72564   2.27715

 Mulliken charges and spin densities:
               1          2
     1  H    0.353570   0.000006
     2  H    0.000503   0.999459
     3  F   -0.354074   0.000534
 Sum of Mulliken charges =   0.00000   1.00000

 Dipole moment (field-independent basis, Debye):
    X=             -2.2837    Y=             -0.0000    Z=             -0.0000  Tot=              2.2837
 Quadrupole moment (field-independent basis, Debye-Ang):
   XX=             -8.9189   YY=             -7.1277   ZZ=             -7.1277
   XY=             -0.0000   XZ=             -0.0000   YZ=             -0.0000

  Exact polarizability:       9.153       0.000       2.322      -0.000      -0.000       2.322
 Approx polarizability:      13.160      -0.000       2.276       0.000       0.000       2.276

 ******    1 imaginary frequencies (negative Signs) ******

                      1                      2                      3
                      A                      A                      A
 Frequencies --    -36.6722              1007.0825              1210.3564
 Red. masses --      1.0531                 1.0585                 1.0358
 Frc consts  --      0.0008                 0.6325                 0.8941
 IR Inten    --      0.0281                63.9527               148.4976

                      4
                      A
 Frequencies --   1210.3564
 Red. masses --      1.0358
 Frc consts  --      0.8941
 IR Inten    --    148.4976

 - Thermochemistry -
 -------------------
 Temperature   298.150 Kelvin.  Pressure   1.00000 Atm.
 Atom     1 has atomic number  1 and mass   1.00783

 Molecular mass:    21.01405 amu.
 Principal axes and moments of inertia in atomic units:
                           1         2         3
     Eigenvalues --     0.00000  91.94202  91.94202
           X            1.00000  -0.00000   0.00000
           Y            0.00000   1.00000   0.00000
           Z            0.00000   0.00000   1.00000
 This molecule is a prolate symmetric top.
 Rotational symmetry number  1.
 Rotational temperature (Kelvin)      0.94205
 Rotational constant (GHZ):          19.629124
    1 imaginary frequencies ignored.
 Zero-point vibrational energy      20502.8 (Joules/Mol)
                                    4.90028 (Kcal/Mol)
 Vibrational temperatures:   1448.97  1741.43  1741.43
          (Kelvin)

 Zero-point correction=                           0.007809 (Hartree/Particle)
 Thermal correction to Energy=                    0.010238
 Thermal correction to Enthalpy=                  0.011182
 Thermal correction to Gibbs Free Energy=        -0.012596
 Sum of electronic and zero-point Energies=           -100.917726
 Sum of electronic and thermal Energies=              -100.915298
 Sum of electronic and thermal Enthalpies=            -100.914353
 Sum of electronic and thermal Free Energies=         -100.938131

                     E (Thermal)             CV                S
                      KCal/Mol        Cal/Mol-Kelvin    Cal/Mol-Kelvin
 Total                    6.424              5.734             50.044
 Electronic               0.000              0.000              1.377
 Translational            0.889              2.981             35.068
 Rotational               0.592              1.987             13.428
 Vibrational              4.943              0.766              0.170

 Normal termination of Gaussian 16 at Fri Aug 22 16:11:23 2025.
