 Gaussian 16, Revision C.01,
 Gaussian 16:  ES64L-G16RevC.01  3-Jul-2019

 -----------------------------------------
 # sp b3lyp/6-311g** Force nosymm scf=(qc)
 -----------------------------------------

 -------------------
 Title Card Required
 -------------------
 Symbolic Z-matrix:
 Charge =  0 Multiplicity = 2

                          Input orientation:
 ---------------------------------------------------------------------
 Center     Atomic      Atomic             Coordinates (Angstroms)
 Number     Number       Type             X           Y           Z
 ---------------------------------------------------------------------
      1          1           0        0.000000    0.000000    0.000000
      2          1           0       -2.000000    0.000000    0.000000
      3          9           0        1.400000    0.000000    0.000000
 ---------------------------------------------------------------------

 SCF Done:  E(UB3LYP) =  -100.881584136     a.u. after    8 cycles

 Alpha  occ. eigenvalues --  -24.63658  -1.10013  -0.45024  -0.36995  -0.36162
 Alpha  occ. eigenvalues --   -0.36162
 Alpha virt. eigenvalues --   -0.09234   0.23291   0.27307   0.93786   0.93786
 Alpha virt. eigenvalues --    1.03030   1.07216   1.20086   1.20086   1.34143
 Alpha virt. eigenvalues --    1.34143   1.36712   1.71551   2.10392   2.27640

  Beta  occ. eigenvalues --  -24.63270  -1.09000  -0.43410  -0.35797  -0.35797
  Beta virt. eigenvalues --   -0.16999  -0.05116   0.26497   0.32937   0.93710
  Beta virt. eigenvalues --    0.93710   1.04190   1.12048   1.32175   1.32175
  Beta virt. eigenvalues --    1.38757   1.38757   1.48534   1.71983   2.19172

 Mulliken charges and spin densities:
               1          2
     1  H    0.323713  -0.064790
     2  H    0.039609   0.944471
     3  F   -0.363322   0.120319
 Sum of Mulliken charges =   0.00000   1.00000

 Dipole moment (field-independent basis, Debye):
    X=             -2.9203    Y=             -0.0000    Z=              0.0000  Tot=              2.9203
 Quadrupole moment (field-independent basis, Debye-Ang):
   XX=             -8.6765   YY=             -7.2320   ZZ=             -7.2320
   XY=             -0.0000   XZ=              0.0000   YZ=             -0.0000

  Exact polarizability:      23.036       0.000       2.279      -0.000       0.000       2.279
 Approx polarizability:      32.264      -0.000       2.221       0.000       0.000       2.221

 ******    2 imaginary frequencies (negative Signs) ******

                      1                      2                      3
                      A                      A                      A
 Frequencies --  -1499.3448              -309.8910              1056.2846
 Red. masses --      1.0345                 1.0780                 1.0228
 Frc consts  --      1.3701                 0.0610                 0.6724
 IR Inten    --    168.4734                 0.0355                82.9241

                      4
                      A
 Frequencies --   1056.2846
 Red. masses --      1.0228
 Frc consts  --      0.6724
 IR Inten    --     82.9241

 - Thermochemistry -
 -------------------
 Temperature   298.150 Kelvin.  Pressure   1.00000 Atm.
 Atom     1 has atomic number  1 and mass   1.00783

 Molecular mass:    21.01405 amu.
 Principal axes and moments of inertia in atomic units:
                           1         2         3
     Eigenvalues --     0.00000  44.68173  44.68173
           X            1.00000  -0.00000   0.00000
           Y            0.00000   1.00000   0.00000
           Z            0.00000   0.00000   1.00000
 This molecule is a prolate symmetric top.
 Rotational symmetry number  1.
 Rotational temperature (Kelvin)      1.93846
 Rotational constant (GHZ):          40.391030
    2 imaginary frequencies ignored.
 Zero-point vibrational energy      12636.0 (Joules/Mol)
                                    3.02007 (Kcal/Mol)
 Vibrational temperatures:   1519.76  1519.76
          (Kelvin)

 Zero-point correction=                           0.004813 (Hartree/Particle)
 Thermal correction to Energy=                    0.007232
 Thermal correction to Enthalpy=                  0.008177
 Thermal correction to Gibbs Free Energy=        -0.014909
 Sum of electronic and zero-point Energies=           -100.876771
 Sum of electronic and thermal Energies=              -100.874352
 Sum of electronic and thermal Enthalpies=            -100.873407
 Sum of electronic and thermal Free Energies=         -100.896494

                     E (Thermal)             CV                S
                      KCal/Mol        Cal/Mol-Kelvin    Cal/Mol-Kelvin
 Total                    4.538              5.607             48.589
 Electronic               0.000              0.000              1.377
 Translational            0.889              2.981             35.068
 Rotational               0.592              1.987             11.994
 Vibrational              3.057              0.639              0.149

 Normal termination of Gaussian 16 at Fri Aug 22 16:20:11 2025.
