 Gaussian 16, Revision C.01,
 Gaussian 16:  ES64L-G16RevC.01  3-Jul-2019

 -----------------------------------------
 # sp b3lyp/6-311g** Force nosymm scf=(qc)
 -----------------------------------------

 -------------------
 Title Card Required
 -------------------
 Symbolic Z-matrix:
 Charge =  0 Multiplicity = 2

                          Input orientation:
 ---------------------------------------------------------------------
 Center     Atomic      Atomic             Coordinates (Angstroms)
 Number     Number       Type             X           Y           Z
 ---------------------------------------------------------------------
      1          1           0        0.000000    0.000000    0.000000
      2          1           0       -2.900000    0.000000    0.000000
      3          9           0        3.100000    0.000000    0.000000
 ---------------------------------------------------------------------

 SCF Done:  E(UB3LYP) =  -100.761651460     a.u. after   23 cycles

 Alpha  occ. eigenvalues --  -24.74452  -1.20483  -0.53571  -0.44981  -0.44981
 Alpha  occ. eigenvalues --   -0.32694
 Alpha virt. eigenvalues --   -0.09036   0.24903   0.34921   0.89099   0.92055
 Alpha virt. eigenvalues --    0.92055   1.03379   1.24857   1.24857   1.25856
 Alpha virt. eigenvalues --    1.42407   1.42407   1.42799   2.15650   2.38837

  Beta  occ. eigenvalues --  -24.71400  -1.11731  -0.41925  -0.41925  -0.33541
  Beta virt. eigenvalues --   -0.24986  -0.07878   0.24835   0.36366   0.93524
  Beta virt. eigenvalues --    0.93524   0.97946   1.07249   1.23862   1.23862
  Beta virt. eigenvalues --    1.24835   1.44248   1.44248   1.44371   2.16247

 Mulliken charges and spin densities:
               1          2
     1  H    0.027932  -0.957552
     2  H    0.001775   0.990341
     3  F   -0.029707   0.967211
 Sum of Mulliken charges =  -0.00000   1.00000

 Dipole moment (field-independent basis, Debye):
    X=             -0.4976    Y=             -0.0000    Z=             -0.0000  Tot=              0.4976
 Quadrupole moment (field-independent basis, Debye-Ang):
   XX=             -7.9658   YY=             -7.6302   ZZ=             -7.6302
   XY=             -0.0000   XZ=             -0.0000   YZ=             -0.0000

  Exact polarizability:      35.304      -0.000       2.022      -0.000      -0.000       2.022
 Approx polarizability:      32.415      -0.000       1.926      -0.000       0.000       1.926

 ******    2 imaginary frequencies (negative Signs) ******

                      1                      2                      3
                      A                      A                      A
 Frequencies --   -451.6650              -187.7513               165.8111
 Red. masses --      1.0173                 1.0972                 1.0172
 Frc consts  --      0.1223                 0.0228                 0.0165
 IR Inten    --     25.3896                 8.2162                 0.6756

                      4
                      A
 Frequencies --    165.8111
 Red. masses --      1.0172
 Frc consts  --      0.0165
 IR Inten    --      0.6756

 - Thermochemistry -
 -------------------
 Temperature   298.150 Kelvin.  Pressure   1.00000 Atm.
 Atom     1 has atomic number  1 and mass   1.00783

 Molecular mass:    21.01405 amu.
 Principal axes and moments of inertia in atomic units:
                           1         2         3
     Eigenvalues --     0.00000 149.85720 149.85720
           X            1.00000  -0.00000   0.00000
           Y            0.00000   1.00000   0.00000
           Z            0.00000   0.00000   1.00000
 This molecule is a prolate symmetric top.
 Rotational symmetry number  1.
 Rotational temperature (Kelvin)      0.57798
 Rotational constant (GHZ):          12.043073
    2 imaginary frequencies ignored.
 Zero-point vibrational energy       1983.5 (Joules/Mol)
                                    0.47408 (Kcal/Mol)
 Warning -- explicit consideration of   2 degrees of freedom as
           vibrations may cause significant error
 Vibrational temperatures:    238.57   238.57
          (Kelvin)

 Zero-point correction=                           0.000755 (Hartree/Particle)
 Thermal correction to Energy=                    0.004349
 Thermal correction to Enthalpy=                  0.005293
 Thermal correction to Gibbs Free Energy=        -0.021224
 Sum of electronic and zero-point Energies=           -100.760896
 Sum of electronic and thermal Energies=              -100.757303
 Sum of electronic and thermal Enthalpies=            -100.756359
 Sum of electronic and thermal Free Energies=         -100.782876

                     E (Thermal)             CV                S
                      KCal/Mol        Cal/Mol-Kelvin    Cal/Mol-Kelvin
 Total                    2.729              8.737             55.809
 Electronic               0.000              0.000              1.377
 Translational            0.889              2.981             35.068
 Rotational               0.592              1.987             14.399
 Vibrational              1.248              3.769              4.965
 Vibration     1          0.624              1.884              2.482
 Vibration     2          0.624              1.884              2.482

 Normal termination of Gaussian 16 at Fri Aug 22 19:55:39 2025.
