 Gaussian 16, Revision C.01,
 Gaussian 16:  ES64L-G16RevC.01  3-Jul-2019

 -----------------------------------------
 # sp b3lyp/6-311g** Force nosymm scf=(qc)
 -----------------------------------------

 -------------------
 Title Card Required
 -------------------
 Symbolic Z-matrix:
 Charge =  0 Multiplicity = 2

                          Input orientation:
 ---------------------------------------------------------------------
 Center     Atomic      Atomic             Coordinates (Angstroms)
 Number     Number       Type             X           Y           Z
 ---------------------------------------------------------------------
      1          1           0        0.000000    0.000000    0.000000
      2          1           0       -3.500000    0.000000    0.000000
      3          9           0        3.650000    0.000000    0.000000
 ---------------------------------------------------------------------

 SCF Done:  E(UB3LYP) =  -100.758905720     a.u. after   34 cycles

 Alpha  occ. eigenvalues --  -24.75601  -1.21548  -0.54724  -0.45947  -0.45947
 Alpha  occ. eigenvalues --   -0.32306
 Alpha virt. eigenvalues --   -0.06848   0.24332   0.37258   0.87180   0.91347
 Alpha virt. eigenvalues --    0.91347   1.01489   1.25198   1.25198   1.25349
 Alpha virt. eigenvalues --    1.45326   1.45500   1.45500   2.15054   2.41210

  Beta  occ. eigenvalues --  -24.72473  -1.12558  -0.42812  -0.42812  -0.32670
  Beta virt. eigenvalues --   -0.25592  -0.06460   0.24116   0.37941   0.92840
  Beta virt. eigenvalues --    0.92840   0.96410   1.05548   1.24788   1.24788
  Beta virt. eigenvalues --    1.24919   1.45900   1.46129   1.46129   2.15170

 Mulliken charges and spin densities:
               1          2
     1  H    0.007391  -0.989571
     2  H    0.000133   0.997872
     3  F   -0.007524   0.991699
 Sum of Mulliken charges =   0.00000   1.00000

 Dipole moment (field-independent basis, Debye):
    X=             -0.1437    Y=              0.0000    Z=              0.0000  Tot=              0.1437
 Quadrupole moment (field-independent basis, Debye-Ang):
   XX=             -7.1979   YY=             -7.6229   ZZ=             -7.6229
   XY=              0.0000   XZ=              0.0000   YZ=             -0.0000

  Exact polarizability:      19.560      -0.000       1.999      -0.000      -0.000       1.999
 Approx polarizability:      14.753       0.000       1.935       0.000      -0.000       1.935

 ******    2 imaginary frequencies (negative Signs) ******

                      1                      2                      3
                      A                      A                      A
 Frequencies --   -222.4275               -94.7163                90.9306
 Red. masses --      1.0206                 1.0935                 1.0174
 Frc consts  --      0.0297                 0.0058                 0.0050
 IR Inten    --      5.4071                 1.1509                 0.0820

                      4
                      A
 Frequencies --     90.9328
 Red. masses --      1.0174
 Frc consts  --      0.0050
 IR Inten    --      0.0820

 - Thermochemistry -
 -------------------
 Temperature   298.150 Kelvin.  Pressure   1.00000 Atm.
 Atom     1 has atomic number  1 and mass   1.00783

 Molecular mass:    21.01405 amu.
 Principal axes and moments of inertia in atomic units:
                           1         2         3
     Eigenvalues --     0.00000 211.80523 211.80523
           X            1.00000  -0.00000   0.00000
           Y            0.00000   1.00000   0.00000
           Z            0.00000   0.00000   1.00000
 This molecule is a prolate symmetric top.
 Rotational symmetry number  1.
 Rotational temperature (Kelvin)      0.40893
 Rotational constant (GHZ):           8.520758
    2 imaginary frequencies ignored.
 Zero-point vibrational energy       1087.8 (Joules/Mol)
                                    0.25999 (Kcal/Mol)
 Warning -- explicit consideration of   2 degrees of freedom as
           vibrations may cause significant error
 Vibrational temperatures:    130.83   130.83
          (Kelvin)

 Zero-point correction=                           0.000414 (Hartree/Particle)
 Thermal correction to Energy=                    0.004279
 Thermal correction to Enthalpy=                  0.005223
 Thermal correction to Gibbs Free Energy=        -0.022720
 Sum of electronic and zero-point Energies=           -100.758491
 Sum of electronic and thermal Energies=              -100.754627
 Sum of electronic and thermal Enthalpies=            -100.753682
 Sum of electronic and thermal Free Energies=         -100.781626

                     E (Thermal)             CV                S
                      KCal/Mol        Cal/Mol-Kelvin    Cal/Mol-Kelvin
 Total                    2.685              8.879             58.812
 Electronic               0.000              0.000              1.377
 Translational            0.889              2.981             35.068
 Rotational               0.592              1.987             15.086
 Vibrational              1.204              3.911              7.280
 Vibration     1          0.602              1.956              3.640
 Vibration     2          0.602              1.956              3.640

 Normal termination of Gaussian 16 at Fri Aug 22 23:38:06 2025.
