 Gaussian 16, Revision C.01,
 Gaussian 16:  ES64L-G16RevC.01  3-Jul-2019

 -----------------------------------------
 # sp b3lyp/6-311g** Force nosymm scf=(qc)
 -----------------------------------------

 -------------------
 Title Card Required
 -------------------
 Symbolic Z-matrix:
 Charge =  0 Multiplicity = 2

                          Input orientation:
 ---------------------------------------------------------------------
 Center     Atomic      Atomic             Coordinates (Angstroms)
 Number     Number       Type             X           Y           Z
 ---------------------------------------------------------------------
      1          1           0        0.000000    0.000000    0.000000
      2          1           0       -2.200000    0.000000    0.000000
      3          9           0        2.150000    0.000000    0.000000
 ---------------------------------------------------------------------

 SCF Done:  E(UB3LYP) =  -100.786785643     a.u. after   18 cycles

 Alpha  occ. eigenvalues --  -24.69299  -1.15610  -0.48358  -0.40642  -0.40642
 Alpha  occ. eigenvalues --   -0.35299
 Alpha virt. eigenvalues --   -0.13471   0.24389   0.31655   0.88793   0.94720
 Alpha virt. eigenvalues --    0.94720   1.06019   1.22519   1.22519   1.27433
 Alpha virt. eigenvalues --    1.34847   1.34847   1.52497   2.11838   2.30424

  Beta  occ. eigenvalues --  -24.66725  -1.08360  -0.38093  -0.38093  -0.36718
  Beta virt. eigenvalues --   -0.21866  -0.11091   0.26070   0.33070   0.92498
  Beta virt. eigenvalues --    0.95748   0.95748   1.08834   1.22276   1.22276
  Beta virt. eigenvalues --    1.38483   1.38483   1.40492   1.46735   2.12051

 Mulliken charges and spin densities:
               1          2
     1  H    0.123417  -0.741951
     2  H    0.029138   0.931597
     3  F   -0.152554   0.810354
 Sum of Mulliken charges =   0.00000   1.00000

 Dipole moment (field-independent basis, Debye):
    X=             -1.9487    Y=              0.0000    Z=              0.0000  Tot=              1.9487
 Quadrupole moment (field-independent basis, Debye-Ang):
   XX=             -8.9072   YY=             -7.5769   ZZ=             -7.5769
   XY=              0.0000   XZ=              0.0000   YZ=             -0.0000

  Exact polarizability:      47.862       0.000       2.036       0.000       0.000       2.036
 Approx polarizability:      54.122      -0.000       1.938      -0.000       0.000       1.938

 ******    2 imaginary frequencies (negative Signs) ******

                      1                      2                      3
                      A                      A                      A
 Frequencies --  -1234.3903              -488.6105               509.2156
 Red. masses --      1.0212                 1.0928                 1.0182
 Frc consts  --      0.9168                 0.1537                 0.1556
 IR Inten    --     74.1823                38.2708                10.9017

                      4
                      A
 Frequencies --    509.2156
 Red. masses --      1.0182
 Frc consts  --      0.1556
 IR Inten    --     10.9017

 - Thermochemistry -
 -------------------
 Temperature   298.150 Kelvin.  Pressure   1.00000 Atm.
 Atom     1 has atomic number  1 and mass   1.00783

 Molecular mass:    21.01405 amu.
 Principal axes and moments of inertia in atomic units:
                           1         2         3
     Eigenvalues --     0.00000  77.44601  77.44601
           X            1.00000  -0.00000   0.00000
           Y            0.00000   1.00000   0.00000
           Z            0.00000   0.00000   1.00000
 This molecule is a prolate symmetric top.
 Rotational symmetry number  1.
 Rotational temperature (Kelvin)      1.11838
 Rotational constant (GHZ):          23.303216
    2 imaginary frequencies ignored.
 Zero-point vibrational energy       6091.6 (Joules/Mol)
                                    1.45592 (Kcal/Mol)
 Warning -- explicit consideration of   2 degrees of freedom as
           vibrations may cause significant error
 Vibrational temperatures:    732.65   732.65
          (Kelvin)

 Zero-point correction=                           0.002320 (Hartree/Particle)
 Thermal correction to Energy=                    0.005115
 Thermal correction to Enthalpy=                  0.006060
 Thermal correction to Gibbs Free Energy=        -0.018079
 Sum of electronic and zero-point Energies=           -100.784465
 Sum of electronic and thermal Energies=              -100.781670
 Sum of electronic and thermal Enthalpies=            -100.780726
 Sum of electronic and thermal Free Energies=         -100.804864

                     E (Thermal)             CV                S
                      KCal/Mol        Cal/Mol-Kelvin    Cal/Mol-Kelvin
 Total                    3.210              7.427             50.804
 Electronic               0.000              0.000              1.377
 Translational            0.889              2.981             35.068
 Rotational               0.592              1.987             13.087
 Vibrational              1.729              2.459              1.271
 Vibration     1          0.864              1.230              0.635
 Vibration     2          0.864              1.230              0.635

 Normal termination of Gaussian 16 at Fri Aug 22 17:07:50 2025.
