 Gaussian 16, Revision C.01,
 Gaussian 16:  ES64L-G16RevC.01  3-Jul-2019

 -----------------------------------------
 # sp b3lyp/6-311g** Force nosymm scf=(qc)
 -----------------------------------------

 -------------------
 Title Card Required
 -------------------
 Symbolic Z-matrix:
 Charge =  0 Multiplicity = 2

                          Input orientation:
 ---------------------------------------------------------------------
 Center     Atomic      Atomic             Coordinates (Angstroms)
 Number     Number       Type             X           Y           Z
 ---------------------------------------------------------------------
      1          1           0        0.000000    0.000000    0.000000
      2          1           0       -2.350000    0.000000    0.000000
      3          9           0        2.950000    0.000000    0.000000
 ---------------------------------------------------------------------

 SCF Done:  E(UB3LYP) =  -100.767139865     a.u. after   21 cycles

 Alpha  occ. eigenvalues --  -24.73996  -1.20058  -0.53112  -0.44596  -0.44596
 Alpha  occ. eigenvalues --   -0.33304
 Alpha virt. eigenvalues --   -0.11021   0.25428   0.33125   0.89745   0.92333
 Alpha virt. eigenvalues --    0.92333   1.04269   1.24425   1.24425   1.25776
 Alpha virt. eigenvalues --    1.38834   1.38834   1.42136   2.14550   2.35560

  Beta  occ. eigenvalues --  -24.70977  -1.11409  -0.41575  -0.41575  -0.33924
  Beta virt. eigenvalues --   -0.24749  -0.09878   0.25752   0.34221   0.93791
  Beta virt. eigenvalues --    0.93791   0.98452   1.08176   1.23664   1.23664
  Beta virt. eigenvalues --    1.24926   1.40691   1.40691   1.43850   2.15649

 Mulliken charges and spin densities:
               1          2
     1  H    0.030382  -0.910448
     2  H    0.008531   0.954019
     3  F   -0.038913   0.956429
 Sum of Mulliken charges =  -0.00000   1.00000

 Dipole moment (field-independent basis, Debye):
    X=             -0.6844    Y=              0.0000    Z=              0.0000  Tot=              0.6844
 Quadrupole moment (field-independent basis, Debye-Ang):
   XX=             -7.8896   YY=             -7.6637   ZZ=             -7.6637
   XY=             -0.0000   XZ=             -0.0000   YZ=              0.0000

  Exact polarizability:      48.677      -0.000       2.011      -0.000      -0.000       2.011
 Approx polarizability:      43.680      -0.000       1.922      -0.000       0.000       1.922

 ******    2 imaginary frequencies (negative Signs) ******

                      1                      2                      3
                      A                      A                      A
 Frequencies --   -856.6138              -252.3101               325.0985
 Red. masses --      1.0090                 1.1071                 1.0154
 Frc consts  --      0.4362                 0.0415                 0.0632
 IR Inten    --     24.1891                24.5654                 0.6520

                      4
                      A
 Frequencies --    325.0985
 Red. masses --      1.0154
 Frc consts  --      0.0632
 IR Inten    --      0.6520

 - Thermochemistry -
 -------------------
 Temperature   298.150 Kelvin.  Pressure   1.00000 Atm.
 Atom     1 has atomic number  1 and mass   1.00783

 Molecular mass:    21.01405 amu.
 Principal axes and moments of inertia in atomic units:
                           1         2         3
     Eigenvalues --     0.00000 120.66846 120.66846
           X            1.00000  -0.00000   0.00000
           Y            0.00000   1.00000   0.00000
           Z            0.00000   0.00000   1.00000
 This molecule is a prolate symmetric top.
 Rotational symmetry number  1.
 Rotational temperature (Kelvin)      0.71778
 Rotational constant (GHZ):          14.956196
    2 imaginary frequencies ignored.
 Zero-point vibrational energy       3889.0 (Joules/Mol)
                                    0.92950 (Kcal/Mol)
 Warning -- explicit consideration of   2 degrees of freedom as
           vibrations may cause significant error
 Vibrational temperatures:    467.74   467.74
          (Kelvin)

 Zero-point correction=                           0.001481 (Hartree/Particle)
 Thermal correction to Energy=                    0.004621
 Thermal correction to Enthalpy=                  0.005565
 Thermal correction to Gibbs Free Energy=        -0.019608
 Sum of electronic and zero-point Energies=           -100.765659
 Sum of electronic and thermal Energies=              -100.762519
 Sum of electronic and thermal Enthalpies=            -100.761575
 Sum of electronic and thermal Free Energies=         -100.786748

                     E (Thermal)             CV                S
                      KCal/Mol        Cal/Mol-Kelvin    Cal/Mol-Kelvin
 Total                    2.900              8.219             52.983
 Electronic               0.000              0.000              1.377
 Translational            0.889              2.981             35.068
 Rotational               0.592              1.987             13.968
 Vibrational              1.419              3.251              2.569
 Vibration     1          0.709              1.625              1.284
 Vibration     2          0.709              1.625              1.284

 Normal termination of Gaussian 16 at Fri Aug 22 19:17:44 2025.
