 Gaussian 16, Revision C.01,
 Gaussian 16:  ES64L-G16RevC.01  3-Jul-2019

 -----------------------------------------
 # sp b3lyp/6-311g** Force nosymm scf=(qc)
 -----------------------------------------

 -------------------
 Title Card Required
 -------------------
 Symbolic Z-matrix:
 Charge =  0 Multiplicity = 2

                          Input orientation:
 ---------------------------------------------------------------------
 Center     Atomic      Atomic             Coordinates (Angstroms)
 Number     Number       Type             X           Y           Z
 ---------------------------------------------------------------------
      1          1           0        0.000000    0.000000    0.000000
      2          1           0       -2.900000    0.000000    0.000000
      3          9           0        3.400000    0.000000    0.000000
 ---------------------------------------------------------------------

 SCF Done:  E(UB3LYP) =  -100.760542157     a.u. after   25 cycles

 Alpha  occ. eigenvalues --  -24.75226  -1.21201  -0.54348  -0.45632  -0.45632
 Alpha  occ. eigenvalues --   -0.32521
 Alpha virt. eigenvalues --   -0.08457   0.25076   0.35425   0.87948   0.91579
 Alpha virt. eigenvalues --    0.91579   1.02097   1.25028   1.25028   1.25964
 Alpha virt. eigenvalues --    1.43238   1.43238   1.43394   2.15800   2.39104

  Beta  occ. eigenvalues --  -24.72123  -1.12288  -0.42522  -0.42522  -0.33017
  Beta virt. eigenvalues --   -0.25405  -0.07796   0.24867   0.36415   0.93065
  Beta virt. eigenvalues --    0.93065   0.97036   1.06086   1.24447   1.24447
  Beta virt. eigenvalues --    1.25323   1.44295   1.44295   1.44411   2.16242

 Mulliken charges and spin densities:
               1          2
     1  H    0.013596  -0.974021
     2  H    0.001039   0.990213
     3  F   -0.014636   0.983809
 Sum of Mulliken charges =  -0.00000   1.00000

 Dipole moment (field-independent basis, Debye):
    X=             -0.2701    Y=             -0.0000    Z=             -0.0000  Tot=              0.2701
 Quadrupole moment (field-independent basis, Debye-Ang):
   XX=             -7.4344   YY=             -7.6374   ZZ=             -7.6374
   XY=             -0.0000   XZ=             -0.0000   YZ=              0.0000

  Exact polarizability:      29.807      -0.000       2.027      -0.000      -0.000       2.027
 Approx polarizability:      23.843      -0.000       1.930      -0.000      -0.000       1.930

 ******    2 imaginary frequencies (negative Signs) ******

                      1                      2                      3
                      A                      A                      A
 Frequencies --   -409.7799              -146.8767               144.7687
 Red. masses --      1.0108                 1.1050                 1.0161
 Frc consts  --      0.1000                 0.0140                 0.0125
 IR Inten    --     10.2409                 5.8891                 0.1535

                      4
                      A
 Frequencies --    144.7687
 Red. masses --      1.0161
 Frc consts  --      0.0125
 IR Inten    --      0.1535

 - Thermochemistry -
 -------------------
 Temperature   298.150 Kelvin.  Pressure   1.00000 Atm.
 Atom     1 has atomic number  1 and mass   1.00783

 Molecular mass:    21.01405 amu.
 Principal axes and moments of inertia in atomic units:
                           1         2         3
     Eigenvalues --     0.00000 168.20860 168.20860
           X            1.00000  -0.00000   0.00000
           Y            0.00000   1.00000   0.00000
           Z            0.00000   0.00000   1.00000
 This molecule is a prolate symmetric top.
 Rotational symmetry number  1.
 Rotational temperature (Kelvin)      0.51492
 Rotational constant (GHZ):          10.729185
    2 imaginary frequencies ignored.
 Zero-point vibrational energy       1731.8 (Joules/Mol)
                                    0.41391 (Kcal/Mol)
 Warning -- explicit consideration of   2 degrees of freedom as
           vibrations may cause significant error
 Vibrational temperatures:    208.29   208.29
          (Kelvin)

 Zero-point correction=                           0.000660 (Hartree/Particle)
 Thermal correction to Energy=                    0.004325
 Thermal correction to Enthalpy=                  0.005269
 Thermal correction to Gibbs Free Energy=        -0.021601
 Sum of electronic and zero-point Energies=           -100.759883
 Sum of electronic and thermal Energies=              -100.756217
 Sum of electronic and thermal Enthalpies=            -100.755273
 Sum of electronic and thermal Free Energies=         -100.782143

                     E (Thermal)             CV                S
                      KCal/Mol        Cal/Mol-Kelvin    Cal/Mol-Kelvin
 Total                    2.714              8.785             56.554
 Electronic               0.000              0.000              1.377
 Translational            0.889              2.981             35.068
 Rotational               0.592              1.987             14.628
 Vibrational              1.233              3.817              5.480
 Vibration     1          0.616              1.908              2.740
 Vibration     2          0.616              1.908              2.740

 Normal termination of Gaussian 16 at Fri Aug 22 21:17:54 2025.
