 Gaussian 16, Revision C.01,
 Gaussian 16:  ES64L-G16RevC.01  3-Jul-2019

 -----------------------------------------
 # sp b3lyp/6-311g** Force nosymm scf=(qc)
 -----------------------------------------

 -------------------
 Title Card Required
 -------------------
 Symbolic Z-matrix:
 Charge =  0 Multiplicity = 2

                          Input orientation:
 ---------------------------------------------------------------------
 Center     Atomic      Atomic             Coordinates (Angstroms)
 Number     Number       Type             X           Y           Z
 ---------------------------------------------------------------------
      1          1           0        0.000000    0.000000    0.000000
      2          1           0       -2.200000    0.000000    0.000000
      3          9           0        2.650000    0.000000    0.000000
 ---------------------------------------------------------------------

 SCF Done:  E(UB3LYP) =  -100.773241762     a.u. after   20 cycles

 Alpha  occ. eigenvalues --  -24.72647  -1.18798  -0.51756  -0.43460  -0.43460
 Alpha  occ. eigenvalues --   -0.34047
 Alpha virt. eigenvalues --   -0.12159   0.25139   0.32590   0.90359   0.93134
 Alpha virt. eigenvalues --    0.93134   1.06019   1.23785   1.23785   1.24366
 Alpha virt. eigenvalues --    1.36750   1.36750   1.43551   2.12810   2.34181

  Beta  occ. eigenvalues --  -24.69730  -1.10468  -0.40546  -0.40546  -0.34724
  Beta virt. eigenvalues --   -0.23982  -0.10744   0.26237   0.33307   0.94548
  Beta virt. eigenvalues --    0.94548   0.98264   1.09491   1.23027   1.23027
  Beta virt. eigenvalues --    1.25083   1.39085   1.39085   1.44935   2.13587

 Mulliken charges and spin densities:
               1          2
     1  H    0.050033  -0.851443
     2  H    0.017518   0.928306
     3  F   -0.067551   0.923137
 Sum of Mulliken charges =  -0.00000   1.00000

 Dipole moment (field-independent basis, Debye):
    X=             -1.0990    Y=              0.0000    Z=             -0.0000  Tot=              1.0990
 Quadrupole moment (field-independent basis, Debye-Ang):
   XX=             -8.2369   YY=             -7.6567   ZZ=             -7.6567
   XY=              0.0000   XZ=             -0.0000   YZ=              0.0000

  Exact polarizability:      54.147       0.000       2.007      -0.000       0.000       2.007
 Approx polarizability:      53.629       0.000       1.920      -0.000      -0.000       1.920

 ******    2 imaginary frequencies (negative Signs) ******

                      1                      2                      3
                      A                      A                      A
 Frequencies --  -1073.5303              -338.4219               419.6287
 Red. masses --      1.0097                 1.1062                 1.0158
 Frc consts  --      0.6856                 0.0746                 0.1054
 IR Inten    --     40.3531                40.0697                 1.6492

                      4
                      A
 Frequencies --    419.6287
 Red. masses --      1.0158
 Frc consts  --      0.1054
 IR Inten    --      1.6492

 - Thermochemistry -
 -------------------
 Temperature   298.150 Kelvin.  Pressure   1.00000 Atm.
 Atom     1 has atomic number  1 and mass   1.00783

 Molecular mass:    21.01405 amu.
 Principal axes and moments of inertia in atomic units:
                           1         2         3
     Eigenvalues --     0.00000 100.22258 100.22258
           X            1.00000  -0.00000   0.00000
           Y            0.00000   1.00000   0.00000
           Z            0.00000   0.00000   1.00000
 This molecule is a prolate symmetric top.
 Rotational symmetry number  1.
 Rotational temperature (Kelvin)      0.86422
 Rotational constant (GHZ):          18.007332
    2 imaginary frequencies ignored.
 Zero-point vibrational energy       5019.9 (Joules/Mol)
                                    1.19978 (Kcal/Mol)
 Warning -- explicit consideration of   2 degrees of freedom as
           vibrations may cause significant error
 Vibrational temperatures:    603.75   603.75
          (Kelvin)

 Zero-point correction=                           0.001912 (Hartree/Particle)
 Thermal correction to Energy=                    0.004854
 Thermal correction to Enthalpy=                  0.005798
 Thermal correction to Gibbs Free Energy=        -0.018829
 Sum of electronic and zero-point Energies=           -100.771330
 Sum of electronic and thermal Energies=              -100.768388
 Sum of electronic and thermal Enthalpies=            -100.767444
 Sum of electronic and thermal Free Energies=         -100.792070

                     E (Thermal)             CV                S
                      KCal/Mol        Cal/Mol-Kelvin    Cal/Mol-Kelvin
 Total                    3.046              7.823             51.831
 Electronic               0.000              0.000              1.377
 Translational            0.889              2.981             35.068
 Rotational               0.592              1.987             13.599
 Vibrational              1.565              2.855              1.786
 Vibration     1          0.782              1.428              0.893
 Vibration     2          0.782              1.428              0.893

 Normal termination of Gaussian 16 at Fri Aug 22 18:14:32 2025.
