 Gaussian 16, Revision C.01,
 Gaussian 16:  ES64L-G16RevC.01  3-Jul-2019

 -----------------------------------------
 # sp b3lyp/6-311g** Force nosymm scf=(qc)
 -----------------------------------------

 -------------------
 Title Card Required
 -------------------
 Symbolic Z-matrix:
 Charge =  0 Multiplicity = 2

                          Input orientation:
 ---------------------------------------------------------------------
 Center     Atomic      Atomic             Coordinates (Angstroms)
 Number     Number       Type             X           Y           Z
 ---------------------------------------------------------------------
      1          1           0        0.000000    0.000000    0.000000
      2          1           0       -0.500000    0.000000    0.000000
      3          9           0        3.850000    0.000000    0.000000
 ---------------------------------------------------------------------

 SCF Done:  E(UB3LYP) =  -100.861491764     a.u. after  216 cycles

 Alpha  occ. eigenvalues --  -24.76197  -1.22077  -0.55281  -0.49310  -0.46453
 Alpha  occ. eigenvalues --   -0.46436
 Alpha virt. eigenvalues --    0.09930   0.18294   0.55797   0.86102   0.90978
 Alpha virt. eigenvalues --    0.92339   1.01462   1.12026   1.12028   1.61002
 Alpha virt. eigenvalues --    1.84391   1.99553   1.99556   2.36072   3.64942

  Beta  occ. eigenvalues --  -24.73040  -1.13001  -0.49309  -0.43289  -0.43272
  Beta virt. eigenvalues --   -0.25927   0.09943   0.18300   0.55849   0.92479
  Beta virt. eigenvalues --    0.93830   0.95567   1.05556   1.12025   1.12028
  Beta virt. eigenvalues --    1.61007   1.84404   1.99553   1.99556   2.36073

 Mulliken charges and spin densities:
               1          2
     1  H   -0.001110  -0.000336
     2  H   -0.001147   0.000091
     3  F    0.002257   1.000245
 Sum of Mulliken charges =   0.00000   1.00000

 Dipole moment (field-independent basis, Debye):
    X=              0.0280    Y=             -0.0000    Z=             -0.0000  Tot=              0.0280
 Quadrupole moment (field-independent basis, Debye-Ang):
   XX=             -6.1746   YY=             -5.7350   ZZ=             -6.5741
   XY=             -0.0000   XZ=             -0.0000   YZ=              0.1041

  Exact polarizability:       5.310      -0.000       2.257      -0.000       0.056       1.806
 Approx polarizability:       5.634      -0.000       2.454      -0.000       0.070       1.889

 ******    3 imaginary frequencies (negative Signs) ******

                      1                      2                      3
                      A                      A                      A
 Frequencies --  -4834.8526             -4834.5276               -51.6376
 Red. masses --      1.0082                 1.0082                 1.1085
 Frc consts  --     13.8856                13.8837                 0.0017
 IR Inten    --      0.0014                 0.0013                 0.0728

                      4
                      A
 Frequencies --   9960.6280
 Red. masses --      1.0078
 Frc consts  --     58.9127
 IR Inten    --      0.0330

 - Thermochemistry -
 -------------------
 Temperature   298.150 Kelvin.  Pressure   1.00000 Atm.
 Atom     1 has atomic number  1 and mass   1.00783

 Molecular mass:    21.01405 amu.
 Principal axes and moments of inertia in atomic units:
                           1         2         3
     Eigenvalues --     0.00000 109.84245 109.84245
           X            1.00000  -0.00000   0.00000
           Y            0.00000   1.00000   0.00000
           Z            0.00000   0.00000   1.00000
 This molecule is a prolate symmetric top.
 Rotational symmetry number  1.
 Rotational temperature (Kelvin)      0.78853
 Rotational constant (GHZ):          16.430270
    3 imaginary frequencies ignored.
 Zero-point vibrational energy      59577.8 (Joules/Mol)
                                   14.23943 (Kcal/Mol)
 Vibrational temperatures:  14331.12
          (Kelvin)

 Zero-point correction=                           0.022692 (Hartree/Particle)
 Thermal correction to Energy=                    0.025052
 Thermal correction to Enthalpy=                  0.025997
 Thermal correction to Gibbs Free Energy=         0.002132
 Sum of electronic and zero-point Energies=           -100.838800
 Sum of electronic and thermal Energies=              -100.836439
 Sum of electronic and thermal Enthalpies=            -100.835495
 Sum of electronic and thermal Free Energies=         -100.859360

                     E (Thermal)             CV                S
                      KCal/Mol        Cal/Mol-Kelvin    Cal/Mol-Kelvin
 Total                   15.721              4.968             50.227
 Electronic               0.000              0.000              1.377
 Translational            0.889              2.981             35.068
 Rotational               0.592              1.987             13.782
 Vibrational             14.239              0.000              0.000

 Normal termination of Gaussian 16 at Sat Aug 23 00:53:45 2025.
