 Gaussian 16, Revision C.01,
 Gaussian 16:  ES64L-G16RevC.01  3-Jul-2019

 -----------------------------------------
 # sp b3lyp/6-311g** Force nosymm scf=(qc)
 -----------------------------------------

 -------------------
 Title Card Required
 -------------------
 Symbolic Z-matrix:
 Charge =  0 Multiplicity = 2

                          Input orientation:
 ---------------------------------------------------------------------
 Center     Atomic      Atomic             Coordinates (Angstroms)
 Number     Number       Type             X           Y           Z
 ---------------------------------------------------------------------
      1          1           0        0.000000    0.000000    0.000000
      2          1           0       -2.750000    0.000000    0.000000
      3          9           0        2.750000    0.000000    0.000000
 ---------------------------------------------------------------------

 SCF Done:  E(UB3LYP) =  -100.765211804     a.u. after   21 cycles

 Alpha  occ. eigenvalues --  -24.73083  -1.19210  -0.52195  -0.43832  -0.43832
 Alpha  occ. eigenvalues --   -0.33118
 Alpha virt. eigenvalues --   -0.10435   0.24815   0.34079   0.90132   0.92872
 Alpha virt. eigenvalues --    0.92872   1.05481   1.24460   1.24460   1.26073
 Alpha virt. eigenvalues --    1.40388   1.40388   1.41998   2.15440   2.36683

  Beta  occ. eigenvalues --  -24.70130  -1.10769  -0.40881  -0.40881  -0.34462
  Beta virt. eigenvalues --   -0.24197  -0.08495   0.25232   0.35756   0.94305
  Beta virt. eigenvalues --    0.94305   0.98337   1.09013   1.22945   1.22945
  Beta virt. eigenvalues --    1.25730   1.43389   1.43389   1.43936   2.15613

 Mulliken charges and spin densities:
               1          2
     1  H    0.054085  -0.920346
     2  H    0.004367   0.985552
     3  F   -0.058452   0.934794
 Sum of Mulliken charges =  -0.00000   1.00000

 Dipole moment (field-independent basis, Debye):
    X=             -0.8804    Y=             -0.0000    Z=             -0.0000  Tot=              0.8804
 Quadrupole moment (field-independent basis, Debye-Ang):
   XX=             -8.5746   YY=             -7.6189   ZZ=             -7.6189
   XY=             -0.0000   XZ=              0.0000   YZ=              0.0000

  Exact polarizability:      39.115      -0.000       2.017       0.000       0.000       2.017
 Approx polarizability:      40.974      -0.000       1.920       0.000      -0.000       1.920

 ******    2 imaginary frequencies (negative Signs) ******

                      1                      2                      3
                      A                      A                      A
 Frequencies --   -599.8053              -252.5854               229.1289
 Red. masses --      1.0234                 1.0903                 1.0179
 Frc consts  --      0.2169                 0.0410                 0.0315
 IR Inten    --     46.8500                12.0877                 2.5335

                      4
                      A
 Frequencies --    229.1289
 Red. masses --      1.0179
 Frc consts  --      0.0315
 IR Inten    --      2.5335

 - Thermochemistry -
 -------------------
 Temperature   298.150 Kelvin.  Pressure   1.00000 Atm.
 Atom     1 has atomic number  1 and mass   1.00783

 Molecular mass:    21.01405 amu.
 Principal axes and moments of inertia in atomic units:
                           1         2         3
     Eigenvalues --     0.00000 124.33945 124.33945
           X            1.00000  -0.00000   0.00000
           Y            0.00000   1.00000   0.00000
           Z            0.00000   0.00000   1.00000
 This molecule is a prolate symmetric top.
 Rotational symmetry number  1.
 Rotational temperature (Kelvin)      0.69659
 Rotational constant (GHZ):          14.514630
    2 imaginary frequencies ignored.
 Zero-point vibrational energy       2741.0 (Joules/Mol)
                                    0.65511 (Kcal/Mol)
 Warning -- explicit consideration of   2 degrees of freedom as
           vibrations may cause significant error
 Vibrational temperatures:    329.67   329.67
          (Kelvin)

 Zero-point correction=                           0.001044 (Hartree/Particle)
 Thermal correction to Energy=                    0.004437
 Thermal correction to Enthalpy=                  0.005382
 Thermal correction to Gibbs Free Energy=        -0.020392
 Sum of electronic and zero-point Energies=           -100.764168
 Sum of electronic and thermal Energies=              -100.760774
 Sum of electronic and thermal Enthalpies=            -100.759830
 Sum of electronic and thermal Free Energies=         -100.785604

                     E (Thermal)             CV                S
                      KCal/Mol        Cal/Mol-Kelvin    Cal/Mol-Kelvin
 Total                    2.785              8.561             54.245
 Electronic               0.000              0.000              1.377
 Translational            0.889              2.981             35.068
 Rotational               0.592              1.987             14.028
 Vibrational              1.303              3.593              3.772
 Vibration     1          0.652              1.797              1.886
 Vibration     2          0.652              1.797              1.886

 Normal termination of Gaussian 16 at Fri Aug 22 18:34:25 2025.
