 Gaussian 16, Revision C.01,
 Gaussian 16:  ES64L-G16RevC.01  3-Jul-2019

 -----------------------------------------
 # sp b3lyp/6-311g** Force nosymm scf=(qc)
 -----------------------------------------

 -------------------
 Title Card Required
 -------------------
 Symbolic Z-matrix:
 Charge =  0 Multiplicity = 2

                          Input orientation:
 ---------------------------------------------------------------------
 Center     Atomic      Atomic             Coordinates (Angstroms)
 Number     Number       Type             X           Y           Z
 ---------------------------------------------------------------------
      1          1           0        0.000000    0.000000    0.000000
      2          1           0       -1.900000    0.000000    0.000000
      3          9           0        3.200000    0.000000    0.000000
 ---------------------------------------------------------------------

 SCF Done:  E(UB3LYP) =  -100.780316967     a.u. after   39 cycles

 Alpha  occ. eigenvalues --  -24.75060  -1.21046  -0.54181  -0.45495  -0.45495
 Alpha  occ. eigenvalues --   -0.33532
 Alpha virt. eigenvalues --   -0.11484   0.25605   0.31384   0.88779   0.91668
 Alpha virt. eigenvalues --    0.91668   1.02825   1.12973   1.24377   1.24377
 Alpha virt. eigenvalues --    1.36919   1.36919   1.55304   2.13166   2.37949

  Beta  occ. eigenvalues --  -24.71974  -1.12187  -0.42404  -0.42404  -0.33565
  Beta virt. eigenvalues --   -0.25391  -0.11142   0.25770   0.31848   0.93147
  Beta virt. eigenvalues --    0.93147   0.97726   1.06794   1.13030   1.24316
  Beta virt. eigenvalues --    1.24316   1.37384   1.37384   1.55685   2.14077

 Mulliken charges and spin densities:
               1          2
     1  H    0.007104  -0.783256
     2  H    0.011901   0.805229
     3  F   -0.019004   0.978027
 Sum of Mulliken charges =  -0.00000   1.00000

 Dipole moment (field-independent basis, Debye):
    X=             -0.4189    Y=             -0.0000    Z=              0.0000  Tot=              0.4189
 Quadrupole moment (field-independent basis, Debye-Ang):
   XX=             -6.8242   YY=             -7.7335   ZZ=             -7.7335
   XY=             -0.0000   XZ=              0.0000   YZ=              0.0000

  Exact polarizability:      54.997      -0.000       2.010       0.000      -0.000       2.010
 Approx polarizability:      51.572      -0.000       1.943       0.000       0.000       1.943

 ******    2 imaginary frequencies (negative Signs) ******

                      1                      2                      3
                      A                      A                      A
 Frequencies --  -1547.1543              -187.1893               649.9556
 Red. masses --      1.0079                 1.1085                 1.0129
 Frc consts  --      1.4214                 0.0229                 0.2521
 IR Inten    --     34.0630                17.7253                 0.0045

                      4
                      A
 Frequencies --    649.9556
 Red. masses --      1.0129
 Frc consts  --      0.2521
 IR Inten    --      0.0045

 - Thermochemistry -
 -------------------
 Temperature   298.150 Kelvin.  Pressure   1.00000 Atm.
 Atom     1 has atomic number  1 and mass   1.00783

 Molecular mass:    21.01405 amu.
 Principal axes and moments of inertia in atomic units:
                           1         2         3
     Eigenvalues --     0.00000 118.57317 118.57317
           X            1.00000  -0.00000   0.00000
           Y            0.00000   1.00000   0.00000
           Z            0.00000   0.00000   1.00000
 This molecule is a prolate symmetric top.
 Rotational symmetry number  1.
 Rotational temperature (Kelvin)      0.73047
 Rotational constant (GHZ):          15.220486
    2 imaginary frequencies ignored.
 Zero-point vibrational energy       7775.2 (Joules/Mol)
                                    1.85832 (Kcal/Mol)
 Vibrational temperatures:    935.14   935.14
          (Kelvin)

 Zero-point correction=                           0.002961 (Hartree/Particle)
 Thermal correction to Energy=                    0.005591
 Thermal correction to Enthalpy=                  0.006535
 Thermal correction to Gibbs Free Energy=        -0.017755
 Sum of electronic and zero-point Energies=           -100.777356
 Sum of electronic and thermal Energies=              -100.774726
 Sum of electronic and thermal Enthalpies=            -100.773782
 Sum of electronic and thermal Free Energies=         -100.798071

                     E (Thermal)             CV                S
                      KCal/Mol        Cal/Mol-Kelvin    Cal/Mol-Kelvin
 Total                    3.508              6.824             51.122
 Electronic               0.000              0.000              1.377
 Translational            0.889              2.981             35.068
 Rotational               0.592              1.987             13.934
 Vibrational              2.027              1.856              0.743

 Normal termination of Gaussian 16 at Fri Aug 22 20:22:58 2025.
