 Gaussian 16, Revision C.01,
 Gaussian 16:  ES64L-G16RevC.01  3-Jul-2019

 -----------------------------------------
 # sp b3lyp/6-311g** Force nosymm scf=(qc)
 -----------------------------------------

 -------------------
 Title Card Required
 -------------------
 Symbolic Z-matrix:
 Charge =  0 Multiplicity = 2

                          Input orientation:
 ---------------------------------------------------------------------
 Center     Atomic      Atomic             Coordinates (Angstroms)
 Number     Number       Type             X           Y           Z
 ---------------------------------------------------------------------
      1          1           0        0.000000    0.000000    0.000000
      2          1           0       -1.250000    0.000000    0.000000
      3          9           0        2.250000    0.000000    0.000000
 ---------------------------------------------------------------------

 SCF Done:  E(UB3LYP) =  -100.866123459     a.u. after   15 cycles

 Alpha  occ. eigenvalues --  -24.73621  -1.19747  -0.52978  -0.44331  -0.44331
 Alpha  occ. eigenvalues --   -0.37962
 Alpha virt. eigenvalues --   -0.05930   0.22441   0.33904   0.88175   0.92151
 Alpha virt. eigenvalues --    0.92151   1.06816   1.11947   1.11947   1.26846
 Alpha virt. eigenvalues --    1.49769   1.49769   2.01349   2.28054   2.53250

  Beta  occ. eigenvalues --  -24.70681  -1.11364  -0.41398  -0.41398  -0.37563
  Beta virt. eigenvalues --   -0.25278  -0.04861   0.23109   0.34361   0.93526
  Beta virt. eigenvalues --    0.93526   0.95376   1.09691   1.12693   1.12693
  Beta virt. eigenvalues --    1.29646   1.50354   1.50354   2.02236   2.28967

 Mulliken charges and spin densities:
               1          2
     1  H    0.017052  -0.096299
     2  H    0.040332   0.169668
     3  F   -0.057384   0.926632
 Sum of Mulliken charges =   0.00000   1.00000

 Dipole moment (field-independent basis, Debye):
    X=             -0.8815    Y=              0.0000    Z=              0.0000  Tot=              0.8815
 Quadrupole moment (field-independent basis, Debye-Ang):
   XX=             -6.5791   YY=             -7.4744   ZZ=             -7.4744
   XY=             -0.0000   XZ=             -0.0000   YZ=             -0.0000

  Exact polarizability:      43.723      -0.000       2.126      -0.000       0.000       2.126
 Approx polarizability:      60.156       0.000       2.123       0.000       0.000       2.123

 ******    2 imaginary frequencies (negative Signs) ******

                      1                      2                      3
                      A                      A                      A
 Frequencies --  -1290.7369              -229.7863              1373.9137
 Red. masses --      1.0127                 1.1027                 1.0124
 Frc consts  --      0.9940                 0.0343                 1.1259
 IR Inten    --    712.6865                 3.6229                 0.0030

                      4
                      A
 Frequencies --   1373.9137
 Red. masses --      1.0124
 Frc consts  --      1.1259
 IR Inten    --      0.0030

 - Thermochemistry -
 -------------------
 Temperature   298.150 Kelvin.  Pressure   1.00000 Atm.
 Atom     1 has atomic number  1 and mass   1.00783

 Molecular mass:    21.01405 amu.
 Principal axes and moments of inertia in atomic units:
                           1         2         3
     Eigenvalues --     0.00000  56.60102  56.60102
           X            1.00000  -0.00000   0.00000
           Y            0.00000   1.00000   0.00000
           Z            0.00000   0.00000   1.00000
 This molecule is a prolate symmetric top.
 Rotational symmetry number  1.
 Rotational temperature (Kelvin)      1.53025
 Rotational constant (GHZ):          31.885313
    2 imaginary frequencies ignored.
 Zero-point vibrational energy      16435.7 (Joules/Mol)
                                    3.92822 (Kcal/Mol)
 Vibrational temperatures:   1976.76  1976.76
          (Kelvin)

 Zero-point correction=                           0.006260 (Hartree/Particle)
 Thermal correction to Energy=                    0.008637
 Thermal correction to Enthalpy=                  0.009581
 Thermal correction to Gibbs Free Energy=        -0.013676
 Sum of electronic and zero-point Energies=           -100.859863
 Sum of electronic and thermal Energies=              -100.857486
 Sum of electronic and thermal Enthalpies=            -100.856542
 Sum of electronic and thermal Free Energies=         -100.879800

                     E (Thermal)             CV                S
                      KCal/Mol        Cal/Mol-Kelvin    Cal/Mol-Kelvin
 Total                    5.420              5.199             48.950
 Electronic               0.000              0.000              1.377
 Translational            0.889              2.981             35.068
 Rotational               0.592              1.987             12.464
 Vibrational              3.939              0.231              0.040

 Normal termination of Gaussian 16 at Fri Aug 22 17:15:43 2025.
