 Gaussian 16, Revision C.01,
 Gaussian 16:  ES64L-G16RevC.01  3-Jul-2019

 -----------------------------------------
 # sp b3lyp/6-311g** Force nosymm scf=(qc)
 -----------------------------------------

 -------------------
 Title Card Required
 -------------------
 Symbolic Z-matrix:
 Charge =  0 Multiplicity = 2

                          Input orientation:
 ---------------------------------------------------------------------
 Center     Atomic      Atomic             Coordinates (Angstroms)
 Number     Number       Type             X           Y           Z
 ---------------------------------------------------------------------
      1          1           0        0.000000    0.000000    0.000000
      2          1           0       -2.100000    0.000000    0.000000
      3          9           0        0.550000    0.000000    0.000000
 ---------------------------------------------------------------------

 SCF Done:  E(UB3LYP) =  -100.518811758     a.u. after    7 cycles

 Alpha  occ. eigenvalues --  -24.62658  -1.38405  -0.62304  -0.43591  -0.43591
 Alpha  occ. eigenvalues --   -0.34825
 Alpha virt. eigenvalues --    0.10866   0.24714   0.56939   0.91251   0.91251
 Alpha virt. eigenvalues --    0.91654   1.19749   1.22693   1.22693   1.54178
 Alpha virt. eigenvalues --    1.54178   1.56004   1.98162   2.19480   3.65827

  Beta  occ. eigenvalues --  -24.62638  -1.38345  -0.62242  -0.43582  -0.43582
  Beta virt. eigenvalues --   -0.09215   0.12253   0.36358   0.57721   0.91235
  Beta virt. eigenvalues --    0.91235   0.91772   1.30602   1.43525   1.43525
  Beta virt. eigenvalues --    1.54190   1.54190   1.64706   2.02054   2.45609

 Mulliken charges and spin densities:
               1          2
     1  H    0.182991   0.008635
     2  H    0.008072   0.989151
     3  F   -0.191063   0.002215
 Sum of Mulliken charges =   0.00000   1.00000

 Dipole moment (field-independent basis, Debye):
    X=             -1.4278    Y=             -0.0000    Z=             -0.0000  Tot=              1.4278
 Quadrupole moment (field-independent basis, Debye-Ang):
   XX=             -6.6032   YY=             -6.4730   ZZ=             -6.4730
   XY=             -0.0000   XZ=             -0.0000   YZ=              0.0000

  Exact polarizability:       5.281       0.000       2.464      -0.000       0.000       2.464
 Approx polarizability:       5.125       0.000       2.454       0.000      -0.000       2.454

 ******    2 imaginary frequencies (negative Signs) ******

                      1                      2                      3
                      A                      A                      A
 Frequencies --  -7422.6095             -7422.6095               325.6606
 Red. masses --      1.0383                 1.0383                 1.0533
 Frc consts  --     33.7029                33.7029                 0.0658
 IR Inten    --    225.3841               225.3841                 0.0196

                      4
                      A
 Frequencies --  15777.5429
 Red. masses --      1.0583
 Frc consts  --    155.2152
 IR Inten    --    102.2505

 - Thermochemistry -
 -------------------
 Temperature   298.150 Kelvin.  Pressure   1.00000 Atm.
 Atom     1 has atomic number  1 and mass   1.00783

 Molecular mass:    21.01405 amu.
 Principal axes and moments of inertia in atomic units:
                           1         2         3
     Eigenvalues --     0.00000  24.59524  24.59524
           X            1.00000  -0.00000   0.00000
           Y            0.00000   1.00000   0.00000
           Z            0.00000   0.00000   1.00000
 This molecule is a prolate symmetric top.
 Rotational symmetry number  1.
 Rotational temperature (Kelvin)      3.52157
 Rotational constant (GHZ):          73.377654
    2 imaginary frequencies ignored.
 Zero-point vibrational energy      96318.5 (Joules/Mol)
                                   23.02069 (Kcal/Mol)
 Warning -- explicit consideration of   1 degrees of freedom as
           vibrations may cause significant error
 Vibrational temperatures:    468.55 22700.37
          (Kelvin)

 Zero-point correction=                           0.036686 (Hartree/Particle)
 Thermal correction to Energy=                    0.039435
 Thermal correction to Enthalpy=                  0.040379
 Thermal correction to Gibbs Free Energy=         0.017319
 Sum of electronic and zero-point Energies=           -100.482126
 Sum of electronic and thermal Energies=              -100.479376
 Sum of electronic and thermal Enthalpies=            -100.478432
 Sum of electronic and thermal Free Energies=         -100.501493

                     E (Thermal)             CV                S
                      KCal/Mol        Cal/Mol-Kelvin    Cal/Mol-Kelvin
 Total                   24.746              6.592             48.535
 Electronic               0.000              0.000              1.377
 Translational            0.889              2.981             35.068
 Rotational               0.592              1.987             10.808
 Vibrational             23.265              1.624              1.282
 Vibration     1          0.710              1.624              1.282

 Normal termination of Gaussian 16 at Fri Aug 22 15:39:24 2025.
