 Gaussian 16, Revision C.01,
 Gaussian 16:  ES64L-G16RevC.01  3-Jul-2019

 -----------------------------------------
 # sp b3lyp/6-311g** Force nosymm scf=(qc)
 -----------------------------------------

 -------------------
 Title Card Required
 -------------------
 Symbolic Z-matrix:
 Charge =  0 Multiplicity = 2

                          Input orientation:
 ---------------------------------------------------------------------
 Center     Atomic      Atomic             Coordinates (Angstroms)
 Number     Number       Type             X           Y           Z
 ---------------------------------------------------------------------
      1          1           0        0.000000    0.000000    0.000000
      2          1           0       -3.950000    0.000000    0.000000
      3          9           0        2.500000    0.000000    0.000000
 ---------------------------------------------------------------------

 SCF Done:  E(UB3LYP) =  -100.767261511     a.u. after   22 cycles

 Alpha  occ. eigenvalues --  -24.71731  -1.17948  -0.50834  -0.42705  -0.42705
 Alpha  occ. eigenvalues --   -0.32745
 Alpha virt. eigenvalues --   -0.10188   0.23445   0.35091   0.89572   0.93618
 Alpha virt. eigenvalues --    0.93618   1.06158   1.24755   1.24755   1.24769
 Alpha virt. eigenvalues --    1.40434   1.40434   1.44819   2.14069   2.37074

  Beta  occ. eigenvalues --  -24.68890  -1.09863  -0.39873  -0.39873  -0.35356
  Beta virt. eigenvalues --   -0.23332  -0.06084   0.23695   0.38110   0.94980
  Beta virt. eigenvalues --    0.94980   0.95837   1.08476   1.22090   1.22090
  Beta virt. eigenvalues --    1.29712   1.46508   1.46663   1.46663   2.12275

 Mulliken charges and spin densities:
               1          2
     1  H    0.090404  -0.897039
     2  H    0.000281   0.999317
     3  F   -0.090684   0.897721
 Sum of Mulliken charges =   0.00000   1.00000

 Dipole moment (field-independent basis, Debye):
    X=             -1.1581    Y=             -0.0000    Z=             -0.0000  Tot=              1.1581
 Quadrupole moment (field-independent basis, Debye-Ang):
   XX=             -9.3567   YY=             -7.5668   ZZ=             -7.5668
   XY=             -0.0000   XZ=             -0.0000   YZ=              0.0000

  Exact polarizability:      29.849      -0.000       2.027      -0.000       0.000       2.027
 Approx polarizability:      38.231      -0.000       1.921      -0.000      -0.000       1.921

 ******    2 imaginary frequencies (negative Signs) ******

                      1                      2                      3
                      A                      A                      A
 Frequencies --   -611.3994               -72.4757               240.5292
 Red. masses --      1.0568                 1.0547                 1.0243
 Frc consts  --      0.2328                 0.0033                 0.0349
 IR Inten    --     80.7758                 0.0391                 7.9995

                      4
                      A
 Frequencies --    240.5292
 Red. masses --      1.0243
 Frc consts  --      0.0349
 IR Inten    --      7.9995

 - Thermochemistry -
 -------------------
 Temperature   298.150 Kelvin.  Pressure   1.00000 Atm.
 Atom     1 has atomic number  1 and mass   1.00783

 Molecular mass:    21.01405 amu.
 Principal axes and moments of inertia in atomic units:
                           1         2         3
     Eigenvalues --     0.00000 158.39531 158.39531
           X            1.00000  -0.00000   0.00000
           Y            0.00000   1.00000   0.00000
           Z            0.00000   0.00000   1.00000
 This molecule is a prolate symmetric top.
 Rotational symmetry number  1.
 Rotational temperature (Kelvin)      0.54682
 Rotational constant (GHZ):          11.393906
    2 imaginary frequencies ignored.
 Zero-point vibrational energy       2877.4 (Joules/Mol)
                                    0.68771 (Kcal/Mol)
 Warning -- explicit consideration of   2 degrees of freedom as
           vibrations may cause significant error
 Vibrational temperatures:    346.07   346.07
          (Kelvin)

 Zero-point correction=                           0.001096 (Hartree/Particle)
 Thermal correction to Energy=                    0.004456
 Thermal correction to Enthalpy=                  0.005400
 Thermal correction to Gibbs Free Energy=        -0.020519
 Sum of electronic and zero-point Energies=           -100.766166
 Sum of electronic and thermal Energies=              -100.762805
 Sum of electronic and thermal Enthalpies=            -100.761861
 Sum of electronic and thermal Free Energies=         -100.787781

                     E (Thermal)             CV                S
                      KCal/Mol        Cal/Mol-Kelvin    Cal/Mol-Kelvin
 Total                    2.796              8.525             54.552
 Electronic               0.000              0.000              1.377
 Translational            0.889              2.981             35.068
 Rotational               0.592              1.987             14.509
 Vibrational              1.315              3.557              3.598
 Vibration     1          0.658              1.778              1.799
 Vibration     2          0.658              1.778              1.799

 Normal termination of Gaussian 16 at Fri Aug 22 17:46:39 2025.
