 Gaussian 16, Revision C.01,
 Gaussian 16:  ES64L-G16RevC.01  3-Jul-2019

 -----------------------------------------
 # sp b3lyp/6-311g** Force nosymm scf=(qc)
 -----------------------------------------

 -------------------
 Title Card Required
 -------------------
 Symbolic Z-matrix:
 Charge =  0 Multiplicity = 2

                          Input orientation:
 ---------------------------------------------------------------------
 Center     Atomic      Atomic             Coordinates (Angstroms)
 Number     Number       Type             X           Y           Z
 ---------------------------------------------------------------------
      1          1           0        0.000000    0.000000    0.000000
      2          1           0       -1.600000    0.000000    0.000000
      3          9           0        3.450000    0.000000    0.000000
 ---------------------------------------------------------------------

 SCF Done:  E(UB3LYP) =  -100.806200179     a.u. after  501 cycles

 Alpha  occ. eigenvalues --  -24.76377  -1.22252  -0.55452  -0.46644  -0.46607
 Alpha  occ. eigenvalues --   -0.33242
 Alpha virt. eigenvalues --   -0.10218   0.25430   0.30547   0.85942   0.90818
 Alpha virt. eigenvalues --    0.92093   1.01370   1.06727   1.22430   1.22432
 Alpha virt. eigenvalues --    1.39525   1.39529   1.74723   2.19517   2.44294

  Beta  occ. eigenvalues --  -24.73222  -1.13178  -0.43490  -0.43443  -0.33231
  Beta virt. eigenvalues --   -0.26096  -0.10249   0.25424   0.30634   0.92320
  Beta virt. eigenvalues --    0.93554   0.95409   1.05431   1.06727   1.22420
  Beta virt. eigenvalues --    1.22424   1.39517   1.39519   1.74777   2.19762

 Mulliken charges and spin densities:
               1          2
     1  H    0.000428  -0.451478
     2  H   -0.003247   0.451385
     3  F    0.002818   1.000093
 Sum of Mulliken charges =   0.00000   1.00000

 Dipole moment (field-independent basis, Debye):
    X=              0.0531    Y=              0.0000    Z=              0.0000  Tot=              0.0531
 Quadrupole moment (field-independent basis, Debye-Ang):
   XX=             -6.3954   YY=             -7.7723   ZZ=             -6.9079
   XY=             -0.0000   XZ=             -0.0000   YZ=              0.0014

  Exact polarizability:      23.754       0.000       2.027       0.000       0.001       2.489
 Approx polarizability:      41.364       0.000       2.005      -0.000       0.001       2.588

 ******    2 imaginary frequencies (negative Signs) ******

                      1                      2                      3
                      A                      A                      A
 Frequencies --  -2061.9433               -32.3106              1056.0050
 Red. masses --      1.0078                 1.1085                 1.0113
 Frc consts  --      2.5246                 0.0007                 0.6644
 IR Inten    --      0.0631                 0.1953                 0.0027

                      4
                      A
 Frequencies --   1057.3095
 Red. masses --      1.0113
 Frc consts  --      0.6661
 IR Inten    --      0.0009

 - Thermochemistry -
 -------------------
 Temperature   298.150 Kelvin.  Pressure   1.00000 Atm.
 Atom     1 has atomic number  1 and mass   1.00783

 Molecular mass:    21.01405 amu.
 Principal axes and moments of inertia in atomic units:
                           1         2         3
     Eigenvalues --     0.00000 122.15006 122.15006
           X            1.00000  -0.00000   0.00000
           Y            0.00000   1.00000   0.00000
           Z            0.00000   0.00000   1.00000
 This molecule is a prolate symmetric top.
 Rotational symmetry number  1.
 Rotational temperature (Kelvin)      0.70908
 Rotational constant (GHZ):          14.774787
    2 imaginary frequencies ignored.
 Zero-point vibrational energy      12640.4 (Joules/Mol)
                                    3.02113 (Kcal/Mol)
 Vibrational temperatures:   1519.36  1521.23
          (Kelvin)

 Zero-point correction=                           0.004814 (Hartree/Particle)
 Thermal correction to Energy=                    0.007234
 Thermal correction to Enthalpy=                  0.008178
 Thermal correction to Gibbs Free Energy=        -0.015857
 Sum of electronic and zero-point Energies=           -100.801386
 Sum of electronic and thermal Energies=              -100.798966
 Sum of electronic and thermal Enthalpies=            -100.798022
 Sum of electronic and thermal Free Energies=         -100.822057

                     E (Thermal)             CV                S
                      KCal/Mol        Cal/Mol-Kelvin    Cal/Mol-Kelvin
 Total                    4.539              5.606             50.587
 Electronic               0.000              0.000              1.377
 Translational            0.889              2.981             35.068
 Rotational               0.592              1.987             13.993
 Vibrational              3.058              0.638              0.149

 Normal termination of Gaussian 16 at Fri Aug 22 21:39:35 2025.
