 Gaussian 16, Revision C.01,
 Gaussian 16:  ES64L-G16RevC.01  3-Jul-2019

 -----------------------------------------
 # sp b3lyp/6-311g** Force nosymm scf=(qc)
 -----------------------------------------

 -------------------
 Title Card Required
 -------------------
 Symbolic Z-matrix:
 Charge =  0 Multiplicity = 2

                          Input orientation:
 ---------------------------------------------------------------------
 Center     Atomic      Atomic             Coordinates (Angstroms)
 Number     Number       Type             X           Y           Z
 ---------------------------------------------------------------------
      1          1           0        0.000000    0.000000    0.000000
      2          1           0       -2.150000    0.000000    0.000000
      3          9           0        3.550000    0.000000    0.000000
 ---------------------------------------------------------------------

 SCF Done:  E(UB3LYP) =  -100.769211901     a.u. after   28 cycles

 Alpha  occ. eigenvalues --  -24.75601  -1.21548  -0.54724  -0.45950  -0.45950
 Alpha  occ. eigenvalues --   -0.32926
 Alpha virt. eigenvalues --   -0.10612   0.25909   0.33071   0.87441   0.91338
 Alpha virt. eigenvalues --    0.91338   1.01619   1.22210   1.24959   1.24959
 Alpha virt. eigenvalues --    1.38909   1.38909   1.46437   2.13715   2.35586

  Beta  occ. eigenvalues --  -24.72477  -1.12569  -0.42818  -0.42818  -0.33060
  Beta virt. eigenvalues --   -0.25626  -0.10308   0.25770   0.33556   0.92830
  Beta virt. eigenvalues --    0.92830   0.96648   1.05682   1.22095   1.24792
  Beta virt. eigenvalues --    1.24792   1.39348   1.39348   1.46786   2.14243

 Mulliken charges and spin densities:
               1          2
     1  H    0.003932  -0.902624
     2  H    0.004298   0.912079
     3  F   -0.008230   0.990545
 Sum of Mulliken charges =   0.00000   1.00000

 Dipole moment (field-independent basis, Debye):
    X=             -0.1937    Y=              0.0000    Z=             -0.0000  Tot=              0.1937
 Quadrupole moment (field-independent basis, Debye-Ang):
   XX=             -6.7417   YY=             -7.7052   ZZ=             -7.7052
   XY=             -0.0000   XZ=              0.0000   YZ=              0.0000

  Exact polarizability:      39.048       0.000       2.000      -0.000       0.000       2.000
 Approx polarizability:      31.333      -0.000       1.931       0.000      -0.000       1.931

 ******    2 imaginary frequencies (negative Signs) ******

                      1                      2                      3
                      A                      A                      A
 Frequencies --  -1100.2700              -130.6750               430.0678
 Red. masses --      1.0079                 1.1085                 1.0130
 Frc consts  --      0.7189                 0.0112                 0.1104
 IR Inten    --      6.1955                 5.6377                 0.0056

                      4
                      A
 Frequencies --    430.0678
 Red. masses --      1.0130
 Frc consts  --      0.1104
 IR Inten    --      0.0056

 - Thermochemistry -
 -------------------
 Temperature   298.150 Kelvin.  Pressure   1.00000 Atm.
 Atom     1 has atomic number  1 and mass   1.00783

 Molecular mass:    21.01405 amu.
 Principal axes and moments of inertia in atomic units:
                           1         2         3
     Eigenvalues --     0.00000 147.51961 147.51961
           X            1.00000  -0.00000   0.00000
           Y            0.00000   1.00000   0.00000
           Z            0.00000   0.00000   1.00000
 This molecule is a prolate symmetric top.
 Rotational symmetry number  1.
 Rotational temperature (Kelvin)      0.58713
 Rotational constant (GHZ):          12.233907
    2 imaginary frequencies ignored.
 Zero-point vibrational energy       5144.8 (Joules/Mol)
                                    1.22963 (Kcal/Mol)
 Warning -- explicit consideration of   2 degrees of freedom as
           vibrations may cause significant error
 Vibrational temperatures:    618.77   618.77
          (Kelvin)

 Zero-point correction=                           0.001960 (Hartree/Particle)
 Thermal correction to Energy=                    0.004882
 Thermal correction to Enthalpy=                  0.005827
 Thermal correction to Gibbs Free Energy=        -0.019132
 Sum of electronic and zero-point Energies=           -100.767252
 Sum of electronic and thermal Energies=              -100.764329
 Sum of electronic and thermal Enthalpies=            -100.763385
 Sum of electronic and thermal Free Energies=         -100.788344

                     E (Thermal)             CV                S
                      KCal/Mol        Cal/Mol-Kelvin    Cal/Mol-Kelvin
 Total                    3.064              7.778             52.530
 Electronic               0.000              0.000              1.377
 Translational            0.889              2.981             35.068
 Rotational               0.592              1.987             14.368
 Vibrational              1.583              2.810              1.717
 Vibration     1          0.791              1.405              0.858
 Vibration     2          0.791              1.405              0.858

 Normal termination of Gaussian 16 at Fri Aug 22 22:39:13 2025.
