 Gaussian 16, Revision C.01,
 Gaussian 16:  ES64L-G16RevC.01  3-Jul-2019

 -----------------------------------------
 # sp b3lyp/6-311g** Force nosymm scf=(qc)
 -----------------------------------------

 -------------------
 Title Card Required
 -------------------
 Symbolic Z-matrix:
 Charge =  0 Multiplicity = 2

                          Input orientation:
 ---------------------------------------------------------------------
 Center     Atomic      Atomic             Coordinates (Angstroms)
 Number     Number       Type             X           Y           Z
 ---------------------------------------------------------------------
      1          1           0        0.000000    0.000000    0.000000
      2          1           0       -1.650000    0.000000    0.000000
      3          9           0        2.250000    0.000000    0.000000
 ---------------------------------------------------------------------

 SCF Done:  E(UB3LYP) =  -100.810885582     a.u. after   12 cycles

 Alpha  occ. eigenvalues --  -24.70993  -1.17253  -0.50188  -0.42089  -0.42089
 Alpha  occ. eigenvalues --   -0.36491
 Alpha virt. eigenvalues --   -0.12090   0.23548   0.31207   0.86519   0.93843
 Alpha virt. eigenvalues --    0.93843   1.02782   1.19830   1.19830   1.20758
 Alpha virt. eigenvalues --    1.35915   1.35915   1.69339   2.15426   2.40744

  Beta  occ. eigenvalues --  -24.68249  -1.09472  -0.39360  -0.39360  -0.36114
  Beta virt. eigenvalues --   -0.23593  -0.11095   0.25680   0.30681   0.91108
  Beta virt. eigenvalues --    0.95090   0.95090   1.06573   1.20930   1.20930
  Beta virt. eigenvalues --    1.25048   1.36661   1.36661   1.70094   2.16348

 Mulliken charges and spin densities:
               1          2
     1  H    0.060223  -0.507666
     2  H    0.050277   0.642432
     3  F   -0.110500   0.865234
 Sum of Mulliken charges =  -0.00000   1.00000

 Dipole moment (field-independent basis, Debye):
    X=             -1.6499    Y=              0.0000    Z=              0.0000  Tot=              1.6499
 Quadrupole moment (field-independent basis, Debye-Ang):
   XX=             -7.7391   YY=             -7.6287   ZZ=             -7.6287
   XY=              0.0000   XZ=              0.0000   YZ=             -0.0000

  Exact polarizability:      59.015       0.000       2.048       0.000       0.000       2.048
 Approx polarizability:      80.752      -0.000       1.995      -0.000       0.000       1.995

 ******    2 imaginary frequencies (negative Signs) ******

                      1                      2                      3
                      A                      A                      A
 Frequencies --  -2003.5323              -444.5236               924.9179
 Red. masses --      1.0094                 1.1066                 1.0146
 Frc consts  --      2.3873                 0.1288                 0.5114
 IR Inten    --    388.1075                42.7702                 1.0381

                      4
                      A
 Frequencies --    924.9179
 Red. masses --      1.0146
 Frc consts  --      0.5114
 IR Inten    --      1.0381

 - Thermochemistry -
 -------------------
 Temperature   298.150 Kelvin.  Pressure   1.00000 Atm.
 Atom     1 has atomic number  1 and mass   1.00783

 Molecular mass:    21.01405 amu.
 Principal axes and moments of inertia in atomic units:
                           1         2         3
     Eigenvalues --     0.00000  66.43248  66.43248
           X            1.00000  -0.00000   0.00000
           Y            0.00000   1.00000   0.00000
           Z            0.00000   0.00000   1.00000
 This molecule is a prolate symmetric top.
 Rotational symmetry number  1.
 Rotational temperature (Kelvin)      1.30379
 Rotational constant (GHZ):          27.166551
    2 imaginary frequencies ignored.
 Zero-point vibrational energy      11064.5 (Joules/Mol)
                                    2.64447 (Kcal/Mol)
 Vibrational temperatures:   1330.75  1330.75
          (Kelvin)

 Zero-point correction=                           0.004214 (Hartree/Particle)
 Thermal correction to Energy=                    0.006673
 Thermal correction to Enthalpy=                  0.007617
 Thermal correction to Gibbs Free Energy=        -0.015893
 Sum of electronic and zero-point Energies=           -100.806671
 Sum of electronic and thermal Energies=              -100.804213
 Sum of electronic and thermal Enthalpies=            -100.803268
 Sum of electronic and thermal Free Energies=         -100.826778

                     E (Thermal)             CV                S
                      KCal/Mol        Cal/Mol-Kelvin    Cal/Mol-Kelvin
 Total                    4.187              5.902             49.481
 Electronic               0.000              0.000              1.377
 Translational            0.889              2.981             35.068
 Rotational               0.592              1.987             12.782
 Vibrational              2.706              0.934              0.253

 Normal termination of Gaussian 16 at Fri Aug 22 17:16:06 2025.
