 Gaussian 16, Revision C.01,
 Gaussian 16:  ES64L-G16RevC.01  3-Jul-2019

 -----------------------------------------
 # sp b3lyp/6-311g** Force nosymm scf=(qc)
 -----------------------------------------

 -------------------
 Title Card Required
 -------------------
 Symbolic Z-matrix:
 Charge =  0 Multiplicity = 2

                          Input orientation:
 ---------------------------------------------------------------------
 Center     Atomic      Atomic             Coordinates (Angstroms)
 Number     Number       Type             X           Y           Z
 ---------------------------------------------------------------------
      1          1           0        0.000000    0.000000    0.000000
      2          1           0       -1.250000    0.000000    0.000000
      3          9           0        2.450000    0.000000    0.000000
 ---------------------------------------------------------------------

 SCF Done:  E(UB3LYP) =  -100.864362769     a.u. after   16 cycles

 Alpha  occ. eigenvalues --  -24.74657  -1.20689  -0.53894  -0.45183  -0.45183
 Alpha  occ. eigenvalues --   -0.37309
 Alpha virt. eigenvalues --   -0.05858   0.22714   0.33918   0.89159   0.91751
 Alpha virt. eigenvalues --    0.91751   1.07886   1.12547   1.12547   1.21168
 Alpha virt. eigenvalues --    1.50343   1.50343   2.01658   2.28860   2.53794

  Beta  occ. eigenvalues --  -24.71630  -1.12026  -0.42157  -0.42157  -0.37010
  Beta virt. eigenvalues --   -0.25647  -0.05153   0.23142   0.34414   0.93186
  Beta virt. eigenvalues --    0.93186   0.97087   1.10948   1.12986   1.12986
  Beta virt. eigenvalues --    1.23162   1.50710   1.50710   2.02189   2.29448

 Mulliken charges and spin densities:
               1          2
     1  H    0.002843  -0.062277
     2  H    0.030299   0.106096
     3  F   -0.033142   0.956181
 Sum of Mulliken charges =  -0.00000   1.00000

 Dipole moment (field-independent basis, Debye):
    X=             -0.5882    Y=             -0.0000    Z=              0.0000  Tot=              0.5882
 Quadrupole moment (field-independent basis, Debye-Ang):
   XX=             -6.2476   YY=             -7.5048   ZZ=             -7.5048
   XY=             -0.0000   XZ=              0.0000   YZ=             -0.0000

  Exact polarizability:      40.849      -0.000       2.159       0.000      -0.000       2.159
 Approx polarizability:      53.196      -0.000       2.111       0.000       0.000       2.111

 ******    2 imaginary frequencies (negative Signs) ******

                      1                      2                      3
                      A                      A                      A
 Frequencies --  -1086.8825              -203.0052              1369.0191
 Red. masses --      1.0108                 1.1049                 1.0118
 Frc consts  --      0.7035                 0.0268                 1.1173
 IR Inten    --    414.9866                 6.1966                 0.0173

                      4
                      A
 Frequencies --   1369.0192
 Red. masses --      1.0118
 Frc consts  --      1.1173
 IR Inten    --      0.0173

 - Thermochemistry -
 -------------------
 Temperature   298.150 Kelvin.  Pressure   1.00000 Atm.
 Atom     1 has atomic number  1 and mass   1.00783

 Molecular mass:    21.01405 amu.
 Principal axes and moments of inertia in atomic units:
                           1         2         3
     Eigenvalues --     0.00000  64.34505  64.34505
           X            1.00000  -0.00000   0.00000
           Y            0.00000   1.00000   0.00000
           Z            0.00000   0.00000   1.00000
 This molecule is a prolate symmetric top.
 Rotational symmetry number  1.
 Rotational temperature (Kelvin)      1.34609
 Rotational constant (GHZ):          28.047864
    2 imaginary frequencies ignored.
 Zero-point vibrational energy      16377.1 (Joules/Mol)
                                    3.91422 (Kcal/Mol)
 Vibrational temperatures:   1969.71  1969.71
          (Kelvin)

 Zero-point correction=                           0.006238 (Hartree/Particle)
 Thermal correction to Energy=                    0.008615
 Thermal correction to Enthalpy=                  0.009559
 Thermal correction to Gibbs Free Energy=        -0.013820
 Sum of electronic and zero-point Energies=           -100.858125
 Sum of electronic and thermal Energies=              -100.855748
 Sum of electronic and thermal Enthalpies=            -100.854804
 Sum of electronic and thermal Free Energies=         -100.878183

                     E (Thermal)             CV                S
                      KCal/Mol        Cal/Mol-Kelvin    Cal/Mol-Kelvin
 Total                    5.406              5.203             49.205
 Electronic               0.000              0.000              1.377
 Translational            0.889              2.981             35.068
 Rotational               0.592              1.987             12.719
 Vibrational              3.925              0.235              0.041

 Normal termination of Gaussian 16 at Fri Aug 22 17:37:31 2025.
