 Gaussian 16, Revision C.01,
 Gaussian 16:  ES64L-G16RevC.01  3-Jul-2019

 -----------------------------------------
 # sp b3lyp/6-311g** Force nosymm scf=(qc)
 -----------------------------------------

 -------------------
 Title Card Required
 -------------------
 Symbolic Z-matrix:
 Charge =  0 Multiplicity = 2

                          Input orientation:
 ---------------------------------------------------------------------
 Center     Atomic      Atomic             Coordinates (Angstroms)
 Number     Number       Type             X           Y           Z
 ---------------------------------------------------------------------
      1          1           0        0.000000    0.000000    0.000000
      2          1           0       -1.900000    0.000000    0.000000
      3          9           0        1.950000    0.000000    0.000000
 ---------------------------------------------------------------------

 SCF Done:  E(UB3LYP) =  -100.807496754     a.u. after   14 cycles

 Alpha  occ. eigenvalues --  -24.67815  -1.14158  -0.46970  -0.39393  -0.39393
 Alpha  occ. eigenvalues --   -0.36923
 Alpha virt. eigenvalues --   -0.13213   0.23579   0.30536   0.87638   0.94943
 Alpha virt. eigenvalues --    0.94943   1.04271   1.20877   1.20877   1.28682
 Alpha virt. eigenvalues --    1.33964   1.33964   1.64138   2.11726   2.32672

  Beta  occ. eigenvalues --  -24.65485  -1.07656  -0.37637  -0.37100  -0.37100
  Beta virt. eigenvalues --   -0.21483  -0.11385   0.25982   0.31060   0.90334
  Beta virt. eigenvalues --    0.95583   0.95583   1.08049   1.23322   1.23322
  Beta virt. eigenvalues --    1.35500   1.35500   1.37539   1.62642   2.12744

 Mulliken charges and spin densities:
               1          2
     1  H    0.146282  -0.584219
     2  H    0.051486   0.852247
     3  F   -0.197767   0.731972
 Sum of Mulliken charges =  -0.00000   1.00000

 Dipole moment (field-independent basis, Debye):
    X=             -2.3792    Y=              0.0000    Z=             -0.0000  Tot=              2.3792
 Quadrupole moment (field-independent basis, Debye-Ang):
   XX=             -8.5934   YY=             -7.5344   ZZ=             -7.5344
   XY=              0.0000   XZ=             -0.0000   YZ=              0.0000

  Exact polarizability:      49.964      -0.000       2.078      -0.000      -0.000       2.078
 Approx polarizability:      62.653       0.000       1.989       0.000      -0.000       1.989

 ******    2 imaginary frequencies (negative Signs) ******

                      1                      2                      3
                      A                      A                      A
 Frequencies --  -1740.5209              -595.2646               720.2565
 Red. masses --      1.0183                 1.0961                 1.0176
 Frc consts  --      1.8176                 0.2288                 0.3110
 IR Inten    --    164.8096                29.7476                12.2808

                      4
                      A
 Frequencies --    720.2565
 Red. masses --      1.0176
 Frc consts  --      0.3110
 IR Inten    --     12.2808

 - Thermochemistry -
 -------------------
 Temperature   298.150 Kelvin.  Pressure   1.00000 Atm.
 Atom     1 has atomic number  1 and mass   1.00783

 Molecular mass:    21.01405 amu.
 Principal axes and moments of inertia in atomic units:
                           1         2         3
     Eigenvalues --     0.00000  61.22504  61.22504
           X            1.00000  -0.00000   0.00000
           Y            0.00000   1.00000   0.00000
           Z            0.00000   0.00000   1.00000
 This molecule is a prolate symmetric top.
 Rotational symmetry number  1.
 Rotational temperature (Kelvin)      1.41468
 Rotational constant (GHZ):          29.477176
    2 imaginary frequencies ignored.
 Zero-point vibrational energy       8616.2 (Joules/Mol)
                                    2.05932 (Kcal/Mol)
 Vibrational temperatures:   1036.29  1036.29
          (Kelvin)

 Zero-point correction=                           0.003282 (Hartree/Particle)
 Thermal correction to Energy=                    0.005852
 Thermal correction to Enthalpy=                  0.006796
 Thermal correction to Gibbs Free Energy=        -0.016786
 Sum of electronic and zero-point Energies=           -100.804215
 Sum of electronic and thermal Energies=              -100.801645
 Sum of electronic and thermal Enthalpies=            -100.800701
 Sum of electronic and thermal Free Energies=         -100.824282

                     E (Thermal)             CV                S
                      KCal/Mol        Cal/Mol-Kelvin    Cal/Mol-Kelvin
 Total                    3.672              6.550             49.632
 Electronic               0.000              0.000              1.377
 Translational            0.889              2.981             35.068
 Rotational               0.592              1.987             12.620
 Vibrational              2.191              1.582              0.566

 Normal termination of Gaussian 16 at Fri Aug 22 16:53:13 2025.
