 Gaussian 16, Revision C.01,
 Gaussian 16:  ES64L-G16RevC.01  3-Jul-2019

 -----------------------------------------
 # sp b3lyp/6-311g** Force nosymm scf=(qc)
 -----------------------------------------

 -------------------
 Title Card Required
 -------------------
 Symbolic Z-matrix:
 Charge =  0 Multiplicity = 2

                          Input orientation:
 ---------------------------------------------------------------------
 Center     Atomic      Atomic             Coordinates (Angstroms)
 Number     Number       Type             X           Y           Z
 ---------------------------------------------------------------------
      1          1           0        0.000000    0.000000    0.000000
      2          1           0       -2.850000    0.000000    0.000000
      3          9           0        1.250000    0.000000    0.000000
 ---------------------------------------------------------------------

 SCF Done:  E(UB3LYP) =  -100.913765201     a.u. after    6 cycles

 Alpha  occ. eigenvalues --  -24.64269  -1.11576  -0.46842  -0.37205  -0.37205
 Alpha  occ. eigenvalues --   -0.34695
 Alpha virt. eigenvalues --   -0.07016   0.23338   0.28188   0.93137   0.93137
 Alpha virt. eigenvalues --    1.01489   1.22262   1.22836   1.22836   1.26499
 Alpha virt. eigenvalues --    1.34355   1.34355   1.71963   2.13947   2.27238

  Beta  occ. eigenvalues --  -24.64245  -1.11514  -0.46756  -0.37183  -0.37183
  Beta virt. eigenvalues --   -0.10513  -0.04446   0.26889   0.37270   0.93135
  Beta virt. eigenvalues --    0.93135   1.01548   1.25144   1.34297   1.34297
  Beta virt. eigenvalues --    1.44971   1.45019   1.45019   1.72205   2.27151

 Mulliken charges and spin densities:
               1          2
     1  H    0.352970  -0.000946
     2  H    0.005659   0.993350
     3  F   -0.358629   0.007597
 Sum of Mulliken charges =  -0.00000   1.00000

 Dipole moment (field-independent basis, Debye):
    X=             -2.4167    Y=              0.0000    Z=             -0.0000  Tot=              2.4167
 Quadrupole moment (field-independent basis, Debye-Ang):
   XX=             -8.8402   YY=             -7.1644   ZZ=             -7.1644
   XY=              0.0000   XZ=             -0.0000   YZ=              0.0000

  Exact polarizability:      12.266       0.000       2.313       0.000       0.000       2.313
 Approx polarizability:      17.001       0.000       2.264      -0.000       0.000       2.264

 ******    1 imaginary frequencies (negative Signs) ******

                      1                      2                      3
                      A                      A                      A
 Frequencies --   -152.4886               389.7086              1173.6557
 Red. masses --      1.0348                 1.0777                 1.0302
 Frc consts  --      0.0142                 0.0964                 0.8361
 IR Inten    --      8.0474                81.8684               133.3439

                      4
                      A
 Frequencies --   1173.6557
 Red. masses --      1.0302
 Frc consts  --      0.8361
 IR Inten    --    133.3439

 - Thermochemistry -
 -------------------
 Temperature   298.150 Kelvin.  Pressure   1.00000 Atm.
 Atom     1 has atomic number  1 and mass   1.00783

 Molecular mass:    21.01405 amu.
 Principal axes and moments of inertia in atomic units:
                           1         2         3
     Eigenvalues --     0.00000  61.18234  61.18234
           X            1.00000  -0.00000   0.00000
           Y            0.00000   1.00000   0.00000
           Z            0.00000   0.00000   1.00000
 This molecule is a prolate symmetric top.
 Rotational symmetry number  1.
 Rotational temperature (Kelvin)      1.41567
 Rotational constant (GHZ):          29.497746
    1 imaginary frequencies ignored.
 Zero-point vibrational energy      16371.0 (Joules/Mol)
                                    3.91277 (Kcal/Mol)
 Warning -- explicit consideration of   1 degrees of freedom as
           vibrations may cause significant error
 Vibrational temperatures:    560.70  1688.63  1688.63
          (Kelvin)

 Zero-point correction=                           0.006235 (Hartree/Particle)
 Thermal correction to Energy=                    0.008953
 Thermal correction to Enthalpy=                  0.009897
 Thermal correction to Gibbs Free Energy=        -0.013935
 Sum of electronic and zero-point Energies=           -100.907530
 Sum of electronic and thermal Energies=              -100.904813
 Sum of electronic and thermal Enthalpies=            -100.903868
 Sum of electronic and thermal Free Energies=         -100.927700

                     E (Thermal)             CV                S
                      KCal/Mol        Cal/Mol-Kelvin    Cal/Mol-Kelvin
 Total                    5.618              6.906             50.158
 Electronic               0.000              0.000              1.377
 Translational            0.889              2.981             35.068
 Rotational               0.592              1.987             12.619
 Vibrational              4.137              1.938              1.093
 Vibration     1          0.758              1.492              1.001

 Normal termination of Gaussian 16 at Fri Aug 22 16:13:11 2025.
