 Gaussian 16, Revision C.01,
 Gaussian 16:  ES64L-G16RevC.01  3-Jul-2019

 -----------------------------------------
 # sp b3lyp/6-311g** Force nosymm scf=(qc)
 -----------------------------------------

 -------------------
 Title Card Required
 -------------------
 Symbolic Z-matrix:
 Charge =  0 Multiplicity = 2

                          Input orientation:
 ---------------------------------------------------------------------
 Center     Atomic      Atomic             Coordinates (Angstroms)
 Number     Number       Type             X           Y           Z
 ---------------------------------------------------------------------
      1          1           0        0.000000    0.000000    0.000000
      2          1           0       -1.100000    0.000000    0.000000
      3          9           0        1.700000    0.000000    0.000000
 ---------------------------------------------------------------------

 SCF Done:  E(UB3LYP) =  -100.902541141     a.u. after   11 cycles

 Alpha  occ. eigenvalues --  -24.70249  -1.16846  -0.51512  -0.41692  -0.41692
 Alpha  occ. eigenvalues --   -0.40615
 Alpha virt. eigenvalues --   -0.00869   0.20704   0.33698   0.91197   0.91197
 Alpha virt. eigenvalues --    0.95488   1.08403   1.08403   1.08943   1.55030
 Alpha virt. eigenvalues --    1.57305   1.57305   2.16339   2.28781   2.54755

  Beta  occ. eigenvalues --  -24.67720  -1.09808  -0.41594  -0.39208  -0.39208
  Beta virt. eigenvalues --   -0.24081   0.01381   0.22114   0.34704   0.92173
  Beta virt. eigenvalues --    0.92173   1.02115   1.10780   1.10780   1.11570
  Beta virt. eigenvalues --    1.58663   1.58672   1.58672   2.18646   2.31757

 Mulliken charges and spin densities:
               1          2
     1  H    0.102698  -0.121981
     2  H    0.057249   0.338306
     3  F   -0.159948   0.783674
 Sum of Mulliken charges =  -0.00000   1.00000

 Dipole moment (field-independent basis, Debye):
    X=             -1.6091    Y=             -0.0000    Z=             -0.0000  Tot=              1.6091
 Quadrupole moment (field-independent basis, Debye-Ang):
   XX=             -7.2219   YY=             -7.1898   ZZ=             -7.1898
   XY=              0.0000   XZ=              0.0000   YZ=             -0.0000

  Exact polarizability:      34.341       0.000       2.280       0.000       0.000       2.280
 Approx polarizability:      50.767      -0.000       2.268      -0.000       0.000       2.268

 ******    1 imaginary frequencies (negative Signs) ******

                      1                      2                      3
                      A                      A                      A
 Frequencies --  -1650.3380               563.0093              1352.0779
 Red. masses --      1.0322                 1.0805                 1.0135
 Frc consts  --      1.6563                 0.2018                 1.0917
 IR Inten    --   1111.2403                64.5720                 1.5061

                      4
                      A
 Frequencies --   1352.0779
 Red. masses --      1.0135
 Frc consts  --      1.0917
 IR Inten    --      1.5061

 - Thermochemistry -
 -------------------
 Temperature   298.150 Kelvin.  Pressure   1.00000 Atm.
 Atom     1 has atomic number  1 and mass   1.00783

 Molecular mass:    21.01405 amu.
 Principal axes and moments of inertia in atomic units:
                           1         2         3
     Eigenvalues --     0.00000  35.12207  35.12207
           X            1.00000  -0.00000   0.00000
           Y            0.00000   1.00000   0.00000
           Z            0.00000   0.00000   1.00000
 This molecule is a prolate symmetric top.
 Rotational symmetry number  1.
 Rotational temperature (Kelvin)      2.46608
 Rotational constant (GHZ):          51.384816
    1 imaginary frequencies ignored.
 Zero-point vibrational energy      19542.0 (Joules/Mol)
                                    4.67065 (Kcal/Mol)
 Warning -- explicit consideration of   1 degrees of freedom as
           vibrations may cause significant error
 Vibrational temperatures:    810.04  1945.34  1945.34
          (Kelvin)

 Zero-point correction=                           0.007443 (Hartree/Particle)
 Thermal correction to Energy=                    0.010003
 Thermal correction to Enthalpy=                  0.010947
 Thermal correction to Gibbs Free Energy=        -0.012107
 Sum of electronic and zero-point Energies=           -100.895098
 Sum of electronic and thermal Energies=              -100.892538
 Sum of electronic and thermal Enthalpies=            -100.891594
 Sum of electronic and thermal Free Energies=         -100.914649

                     E (Thermal)             CV                S
                      KCal/Mol        Cal/Mol-Kelvin    Cal/Mol-Kelvin
 Total                    6.277              6.328             48.523
 Electronic               0.000              0.000              1.377
 Translational            0.889              2.981             35.068
 Rotational               0.592              1.987             11.516
 Vibrational              4.796              1.360              0.562
 Vibration     1          0.919              1.111              0.518

 Normal termination of Gaussian 16 at Fri Aug 22 16:36:36 2025.
