 Gaussian 16, Revision C.01,
 Gaussian 16:  ES64L-G16RevC.01  3-Jul-2019

 -----------------------------------------
 # sp b3lyp/6-311g** Force nosymm scf=(qc)
 -----------------------------------------

 -------------------
 Title Card Required
 -------------------
 Symbolic Z-matrix:
 Charge =  0 Multiplicity = 2

                          Input orientation:
 ---------------------------------------------------------------------
 Center     Atomic      Atomic             Coordinates (Angstroms)
 Number     Number       Type             X           Y           Z
 ---------------------------------------------------------------------
      1          1           0        0.000000    0.000000    0.000000
      2          1           0       -3.400000    0.000000    0.000000
      3          9           0        2.250000    0.000000    0.000000
 ---------------------------------------------------------------------

 SCF Done:  E(UB3LYP) =  -100.774067171     a.u. after   16 cycles

 Alpha  occ. eigenvalues --  -24.67359  -1.08797  -0.38630  -0.38630  -0.36559
 Alpha  occ. eigenvalues --   -0.33075
 Alpha virt. eigenvalues --   -0.22163   0.20817   0.28039   0.92195   0.95583
 Alpha virt. eigenvalues --    0.95583   1.08312   1.21540   1.21540   1.24338
 Alpha virt. eigenvalues --    1.24338   1.24452   1.39595   2.11396   2.15325

  Beta  occ. eigenvalues --  -24.70022  -1.16325  -0.49089  -0.41274  -0.41274
  Beta virt. eigenvalues --   -0.12283  -0.04598   0.31646   0.40160   0.88711
  Beta virt. eigenvalues --    0.94429   0.94429   1.06258   1.38097   1.38097
  Beta virt. eigenvalues --    1.47882   1.47882   1.47900   1.50347   2.33365

 Mulliken charges and spin densities:
               1          2
     1  H    0.134227   0.840831
     2  H    0.001450   0.998580
     3  F   -0.135677  -0.839411
 Sum of Mulliken charges =   0.00000   1.00000

 Dipole moment (field-independent basis, Debye):
    X=             -1.5576    Y=             -0.0000    Z=             -0.0000  Tot=              1.5576
 Quadrupole moment (field-independent basis, Debye-Ang):
   XX=             -9.7894   YY=             -7.5244   ZZ=             -7.5244
   XY=             -0.0000   XZ=             -0.0000   YZ=             -0.0000

  Exact polarizability:      29.937      -0.000       2.037      -0.000      -0.000       2.037
 Approx polarizability:      40.848      -0.000       1.927      -0.000       0.000       1.927

 ******    1 imaginary frequencies (negative Signs) ******

                      1                      2                      3
                      A                      A                      A
 Frequencies --   -798.6541                86.4187               331.0650
 Red. masses --      1.0600                 1.0516                 1.0236
 Frc consts  --      0.3984                 0.0046                 0.0661
 IR Inten    --     92.0332                 0.2853                16.9835

                      4
                      A
 Frequencies --    331.0651
 Red. masses --      1.0236
 Frc consts  --      0.0661
 IR Inten    --     16.9835

 - Thermochemistry -
 -------------------
 Temperature   298.150 Kelvin.  Pressure   1.00000 Atm.
 Atom     1 has atomic number  1 and mass   1.00783

 Molecular mass:    21.01405 amu.
 Principal axes and moments of inertia in atomic units:
                           1         2         3
     Eigenvalues --     0.00000 122.33693 122.33693
           X            1.00000  -0.00000   0.00000
           Y            0.00000   1.00000   0.00000
           Z            0.00000   0.00000   1.00000
 This molecule is a prolate symmetric top.
 Rotational symmetry number  1.
 Rotational temperature (Kelvin)      0.70799
 Rotational constant (GHZ):          14.752219
    1 imaginary frequencies ignored.
 Zero-point vibrational energy       4477.3 (Joules/Mol)
                                    1.07010 (Kcal/Mol)
 Warning -- explicit consideration of   3 degrees of freedom as
           vibrations may cause significant error
 Vibrational temperatures:    124.34   476.33   476.33
          (Kelvin)

 Zero-point correction=                           0.001705 (Hartree/Particle)
 Thermal correction to Energy=                    0.005592
 Thermal correction to Enthalpy=                  0.006536
 Thermal correction to Gibbs Free Energy=        -0.020399
 Sum of electronic and zero-point Energies=           -100.772362
 Sum of electronic and thermal Energies=              -100.768475
 Sum of electronic and thermal Enthalpies=            -100.767531
 Sum of electronic and thermal Free Energies=         -100.794466

                     E (Thermal)             CV                S
                      KCal/Mol        Cal/Mol-Kelvin    Cal/Mol-Kelvin
 Total                    3.509             10.154             56.690
 Electronic               0.000              0.000              1.377
 Translational            0.889              2.981             35.068
 Rotational               0.592              1.987             13.996
 Vibrational              2.028              5.186              6.249
 Vibration     1          0.601              1.959              3.740
 Vibration     2          0.713              1.613              1.255
 Vibration     3          0.713              1.613              1.255

 Normal termination of Gaussian 16 at Fri Aug 22 17:17:43 2025.
