 Gaussian 16, Revision C.01,
 Gaussian 16:  ES64L-G16RevC.01  3-Jul-2019

 -----------------------------------------
 # sp b3lyp/6-311g** Force nosymm scf=(qc)
 -----------------------------------------

 -------------------
 Title Card Required
 -------------------
 Symbolic Z-matrix:
 Charge =  0 Multiplicity = 2

                          Input orientation:
 ---------------------------------------------------------------------
 Center     Atomic      Atomic             Coordinates (Angstroms)
 Number     Number       Type             X           Y           Z
 ---------------------------------------------------------------------
      1          1           0        0.000000    0.000000    0.000000
      2          1           0       -2.750000    0.000000    0.000000
      3          9           0        1.200000    0.000000    0.000000
 ---------------------------------------------------------------------

 SCF Done:  E(UB3LYP) =  -100.925948173     a.u. after    6 cycles

 Alpha  occ. eigenvalues --  -24.64236  -1.12185  -0.47700  -0.37431  -0.37431
 Alpha  occ. eigenvalues --   -0.34816
 Alpha virt. eigenvalues --   -0.05261   0.24036   0.28583   0.93271   0.93271
 Alpha virt. eigenvalues --    1.00871   1.22085   1.22720   1.22720   1.29356
 Alpha virt. eigenvalues --    1.34739   1.34739   1.73718   2.13936   2.29232

  Beta  occ. eigenvalues --  -24.64211  -1.12122  -0.47605  -0.37409  -0.37409
  Beta virt. eigenvalues --   -0.10339  -0.03016   0.27966   0.37115   0.93270
  Beta virt. eigenvalues --    0.93270   1.00926   1.27339   1.34686   1.34686
  Beta virt. eigenvalues --    1.44746   1.44746   1.45267   1.74013   2.29133

 Mulliken charges and spin densities:
               1          2
     1  H    0.348981  -0.000110
     2  H    0.006357   0.992279
     3  F   -0.355339   0.007831
 Sum of Mulliken charges =  -0.00000   1.00000

 Dipole moment (field-independent basis, Debye):
    X=             -2.3674    Y=             -0.0000    Z=             -0.0000  Tot=              2.3674
 Quadrupole moment (field-independent basis, Debye-Ang):
   XX=             -8.6491   YY=             -7.1264   ZZ=             -7.1264
   XY=             -0.0000   XZ=             -0.0000   YZ=              0.0000

  Exact polarizability:      11.613       0.000       2.338       0.000       0.000       2.338
 Approx polarizability:      15.332      -0.000       2.295      -0.000       0.000       2.295

 ******    1 imaginary frequencies (negative Signs) ******

                      1                      2                      3
                      A                      A                      A
 Frequencies --   -137.4411               972.6830              1188.4873
 Red. masses --      1.0494                 1.0622                 1.0303
 Frc consts  --      0.0117                 0.5921                 0.8574
 IR Inten    --      2.1534                97.4174               136.7983

                      4
                      A
 Frequencies --   1188.4873
 Red. masses --      1.0303
 Frc consts  --      0.8574
 IR Inten    --    136.7983

 - Thermochemistry -
 -------------------
 Temperature   298.150 Kelvin.  Pressure   1.00000 Atm.
 Atom     1 has atomic number  1 and mass   1.00783

 Molecular mass:    21.01405 amu.
 Principal axes and moments of inertia in atomic units:
                           1         2         3
     Eigenvalues --     0.00000  56.75814  56.75814
           X            1.00000  -0.00000   0.00000
           Y            0.00000   1.00000   0.00000
           Z            0.00000   0.00000   1.00000
 This molecule is a prolate symmetric top.
 Rotational symmetry number  1.
 Rotational temperature (Kelvin)      1.52602
 Rotational constant (GHZ):          31.797048
    1 imaginary frequencies ignored.
 Zero-point vibrational energy      20035.4 (Joules/Mol)
                                    4.78858 (Kcal/Mol)
 Vibrational temperatures:   1399.47  1709.97  1709.97
          (Kelvin)

 Zero-point correction=                           0.007631 (Hartree/Particle)
 Thermal correction to Energy=                    0.010068
 Thermal correction to Enthalpy=                  0.011012
 Thermal correction to Gibbs Free Energy=        -0.012320
 Sum of electronic and zero-point Energies=           -100.918317
 Sum of electronic and thermal Energies=              -100.915881
 Sum of electronic and thermal Enthalpies=            -100.914936
 Sum of electronic and thermal Free Energies=         -100.938268

                     E (Thermal)             CV                S
                      KCal/Mol        Cal/Mol-Kelvin    Cal/Mol-Kelvin
 Total                    6.317              5.801             49.106
 Electronic               0.000              0.000              1.377
 Translational            0.889              2.981             35.068
 Rotational               0.592              1.987             12.470
 Vibrational              4.836              0.833              0.191

 Normal termination of Gaussian 16 at Fri Aug 22 16:10:39 2025.
