 Gaussian 16, Revision C.01,
 Gaussian 16:  ES64L-G16RevC.01  3-Jul-2019

 -----------------------------------------
 # sp b3lyp/6-311g** Force nosymm scf=(qc)
 -----------------------------------------

 -------------------
 Title Card Required
 -------------------
 Symbolic Z-matrix:
 Charge =  0 Multiplicity = 2

                          Input orientation:
 ---------------------------------------------------------------------
 Center     Atomic      Atomic             Coordinates (Angstroms)
 Number     Number       Type             X           Y           Z
 ---------------------------------------------------------------------
      1          1           0        0.000000    0.000000    0.000000
      2          1           0       -3.600000    0.000000    0.000000
      3          9           0        2.800000    0.000000    0.000000
 ---------------------------------------------------------------------

 SCF Done:  E(UB3LYP) =  -100.762738656     a.u. after   21 cycles

 Alpha  occ. eigenvalues --  -24.73277  -1.19395  -0.52394  -0.43998  -0.43998
 Alpha  occ. eigenvalues --   -0.32637
 Alpha virt. eigenvalues --   -0.08790   0.23789   0.35905   0.89864   0.92754
 Alpha virt. eigenvalues --    0.92754   1.05050   1.24868   1.24868   1.24979
 Alpha virt. eigenvalues --    1.43013   1.43013   1.43900   2.14574   2.39126

  Beta  occ. eigenvalues --  -24.70308  -1.10904  -0.41030  -0.41030  -0.34285
  Beta virt. eigenvalues --   -0.24302  -0.06469   0.23914   0.37976   0.94194
  Beta virt. eigenvalues --    0.94194   0.98089   1.08435   1.23030   1.23030
  Beta virt. eigenvalues --    1.24606   1.45975   1.46226   1.46226   2.14194

 Mulliken charges and spin densities:
               1          2
     1  H    0.053875  -0.938456
     2  H    0.000466   0.998396
     3  F   -0.054341   0.940060
 Sum of Mulliken charges =  -0.00000   1.00000

 Dipole moment (field-independent basis, Debye):
    X=             -0.7879    Y=             -0.0000    Z=             -0.0000  Tot=              0.7879
 Quadrupole moment (field-independent basis, Debye-Ang):
   XX=             -8.7279   YY=             -7.5970   ZZ=             -7.5970
   XY=             -0.0000   XZ=             -0.0000   YZ=             -0.0000

  Exact polarizability:      32.001      -0.000       2.024      -0.000      -0.000       2.024
 Approx polarizability:      35.978      -0.000       1.923      -0.000       0.000       1.923

 ******    2 imaginary frequencies (negative Signs) ******

                      1                      2                      3
                      A                      A                      A
 Frequencies --   -455.8131              -107.5299               166.2654
 Red. masses --      1.0521                 1.0595                 1.0213
 Frc consts  --      0.1288                 0.0072                 0.0166
 IR Inten    --     54.7704                 0.2916                 2.7674

                      4
                      A
 Frequencies --    166.2654
 Red. masses --      1.0213
 Frc consts  --      0.0166
 IR Inten    --      2.7674

 - Thermochemistry -
 -------------------
 Temperature   298.150 Kelvin.  Pressure   1.00000 Atm.
 Atom     1 has atomic number  1 and mass   1.00783

 Molecular mass:    21.01405 amu.
 Principal axes and moments of inertia in atomic units:
                           1         2         3
     Eigenvalues --     0.00000 161.02217 161.02217
           X            1.00000  -0.00000   0.00000
           Y            0.00000   1.00000   0.00000
           Z            0.00000   0.00000   1.00000
 This molecule is a prolate symmetric top.
 Rotational symmetry number  1.
 Rotational temperature (Kelvin)      0.53790
 Rotational constant (GHZ):          11.208030
    2 imaginary frequencies ignored.
 Zero-point vibrational energy       1989.0 (Joules/Mol)
                                    0.47538 (Kcal/Mol)
 Warning -- explicit consideration of   2 degrees of freedom as
           vibrations may cause significant error
 Vibrational temperatures:    239.22   239.22
          (Kelvin)

 Zero-point correction=                           0.000758 (Hartree/Particle)
 Thermal correction to Energy=                    0.004349
 Thermal correction to Enthalpy=                  0.005293
 Thermal correction to Gibbs Free Energy=        -0.021286
 Sum of electronic and zero-point Energies=           -100.761981
 Sum of electronic and thermal Energies=              -100.758390
 Sum of electronic and thermal Enthalpies=            -100.757445
 Sum of electronic and thermal Free Energies=         -100.784025

                     E (Thermal)             CV                S
                      KCal/Mol        Cal/Mol-Kelvin    Cal/Mol-Kelvin
 Total                    2.729              8.736             55.942
 Electronic               0.000              0.000              1.377
 Translational            0.889              2.981             35.068
 Rotational               0.592              1.987             14.542
 Vibrational              1.248              3.768              4.955
 Vibration     1          0.624              1.884              2.477
 Vibration     2          0.624              1.884              2.477

 Normal termination of Gaussian 16 at Fri Aug 22 18:44:43 2025.
