 Gaussian 16, Revision C.01,
 Gaussian 16:  ES64L-G16RevC.01  3-Jul-2019

 -----------------------------------------
 # sp b3lyp/6-311g** Force nosymm scf=(qc)
 -----------------------------------------

 -------------------
 Title Card Required
 -------------------
 Symbolic Z-matrix:
 Charge =  0 Multiplicity = 2

                          Input orientation:
 ---------------------------------------------------------------------
 Center     Atomic      Atomic             Coordinates (Angstroms)
 Number     Number       Type             X           Y           Z
 ---------------------------------------------------------------------
      1          1           0        0.000000    0.000000    0.000000
      2          1           0       -3.850000    0.000000    0.000000
      3          9           0        1.150000    0.000000    0.000000
 ---------------------------------------------------------------------

 SCF Done:  E(UB3LYP) =  -100.937326955     a.u. after    6 cycles

 Alpha  occ. eigenvalues --  -24.64337  -1.13012  -0.48661  -0.37807  -0.37807
 Alpha  occ. eigenvalues --   -0.33541
 Alpha virt. eigenvalues --   -0.04136   0.22526   0.30004   0.93344   0.93344
 Alpha virt. eigenvalues --    1.00183   1.23915   1.23968   1.23968   1.27480
 Alpha virt. eigenvalues --    1.34919   1.34919   1.75402   2.13625   2.30170

  Beta  occ. eigenvalues --  -24.64335  -1.13008  -0.48657  -0.37806  -0.37806
  Beta virt. eigenvalues --   -0.06118  -0.03375   0.27892   0.39132   0.93344
  Beta virt. eigenvalues --    0.93344   1.00187   1.27475   1.34916   1.34916
  Beta virt. eigenvalues --    1.49161   1.49161   1.49434   1.75422   2.29560

 Mulliken charges and spin densities:
               1          2
     1  H    0.348095   0.000103
     2  H    0.000539   0.999415
     3  F   -0.348634   0.000482
 Sum of Mulliken charges =   0.00000   1.00000

 Dipole moment (field-independent basis, Debye):
    X=             -2.2245    Y=             -0.0000    Z=              0.0000  Tot=              2.2245
 Quadrupole moment (field-independent basis, Debye-Ang):
   XX=             -8.7484   YY=             -7.0891   ZZ=             -7.0891
   XY=             -0.0000   XZ=              0.0000   YZ=              0.0000

  Exact polarizability:       8.418      -0.000       2.343      -0.000      -0.000       2.343
 Approx polarizability:      11.604       0.000       2.301       0.000      -0.000       2.301

 ******    1 imaginary frequencies (negative Signs) ******

                      1                      2                      3
                      A                      A                      A
 Frequencies --    -35.8602              1211.6898              1211.6898
 Red. masses --      1.0532                 1.0363                 1.0363
 Frc consts  --      0.0008                 0.8964                 0.8964
 IR Inten    --      0.0266               153.6017               153.6017

                      4
                      A
 Frequencies --   1468.3009
 Red. masses --      1.0584
 Frc consts  --      1.3444
 IR Inten    --     69.5493

 - Thermochemistry -
 -------------------
 Temperature   298.150 Kelvin.  Pressure   1.00000 Atm.
 Atom     1 has atomic number  1 and mass   1.00783

 Molecular mass:    21.01405 amu.
 Principal axes and moments of inertia in atomic units:
                           1         2         3
     Eigenvalues --     0.00000  88.20648  88.20648
           X            1.00000  -0.00000   0.00000
           Y            0.00000   1.00000   0.00000
           Z            0.00000   0.00000   1.00000
 This molecule is a prolate symmetric top.
 Rotational symmetry number  1.
 Rotational temperature (Kelvin)      0.98195
 Rotational constant (GHZ):          20.460416
    1 imaginary frequencies ignored.
 Zero-point vibrational energy      23277.4 (Joules/Mol)
                                    5.56344 (Kcal/Mol)
 Vibrational temperatures:   1743.35  1743.35  2112.56
          (Kelvin)

 Zero-point correction=                           0.008866 (Hartree/Particle)
 Thermal correction to Energy=                    0.011264
 Thermal correction to Enthalpy=                  0.012208
 Thermal correction to Gibbs Free Energy=        -0.011493
 Sum of electronic and zero-point Energies=           -100.928461
 Sum of electronic and thermal Energies=              -100.926063
 Sum of electronic and thermal Enthalpies=            -100.925119
 Sum of electronic and thermal Free Energies=         -100.948820

                     E (Thermal)             CV                S
                      KCal/Mol        Cal/Mol-Kelvin    Cal/Mol-Kelvin
 Total                    7.068              5.446             49.883
 Electronic               0.000              0.000              1.377
 Translational            0.889              2.981             35.068
 Rotational               0.592              1.987             13.346
 Vibrational              5.587              0.478              0.092

 Normal termination of Gaussian 16 at Fri Aug 22 16:08:57 2025.
