 Gaussian 16, Revision C.01,
 Gaussian 16:  ES64L-G16RevC.01  3-Jul-2019

 -----------------------------------------
 # sp b3lyp/6-311g** Force nosymm scf=(qc)
 -----------------------------------------

 -------------------
 Title Card Required
 -------------------
 Symbolic Z-matrix:
 Charge =  0 Multiplicity = 2

                          Input orientation:
 ---------------------------------------------------------------------
 Center     Atomic      Atomic             Coordinates (Angstroms)
 Number     Number       Type             X           Y           Z
 ---------------------------------------------------------------------
      1          1           0        0.000000    0.000000    0.000000
      2          1           0       -2.500000    0.000000    0.000000
      3          9           0        3.550000    0.000000    0.000000
 ---------------------------------------------------------------------

 SCF Done:  E(UB3LYP) =  -100.762883226     a.u. after   30 cycles

 Alpha  occ. eigenvalues --  -24.75526  -1.21479  -0.54649  -0.45885  -0.45885
 Alpha  occ. eigenvalues --   -0.32652
 Alpha virt. eigenvalues --   -0.09482   0.25698   0.34373   0.87450   0.91390
 Alpha virt. eigenvalues --    0.91390   1.01657   1.25000   1.25000   1.26564
 Alpha virt. eigenvalues --    1.41382   1.41382   1.42996   2.15768   2.36805

  Beta  occ. eigenvalues --  -24.72405  -1.12508  -0.42757  -0.42757  -0.32926
  Beta virt. eigenvalues --   -0.25569  -0.09043   0.25504   0.35021   0.92882
  Beta virt. eigenvalues --    0.92882   0.96652   1.05712   1.24676   1.24676
  Beta virt. eigenvalues --    1.26178   1.42055   1.42055   1.43666   2.16219

 Mulliken charges and spin densities:
               1          2
     1  H    0.007112  -0.959556
     2  H    0.002076   0.969881
     3  F   -0.009188   0.989674
 Sum of Mulliken charges =   0.00000   1.00000

 Dipole moment (field-independent basis, Debye):
    X=             -0.1922    Y=             -0.0000    Z=              0.0000  Tot=              0.1922
 Quadrupole moment (field-independent basis, Debye-Ang):
   XX=             -7.0432   YY=             -7.6656   ZZ=             -7.6656
   XY=              0.0000   XZ=             -0.0000   YZ=              0.0000

  Exact polarizability:      31.570       0.000       2.035      -0.000       0.000       2.035
 Approx polarizability:      23.603       0.000       1.929      -0.000      -0.000       1.929

 ******    2 imaginary frequencies (negative Signs) ******

                      1                      2                      3
                      A                      A                      A
 Frequencies --   -668.8853              -132.8869               244.0412
 Red. masses --      1.0080                 1.1083                 1.0143
 Frc consts  --      0.2657                 0.0115                 0.0356
 IR Inten    --      5.0356                 5.1527                 0.0274

                      4
                      A
 Frequencies --    244.0412
 Red. masses --      1.0143
 Frc consts  --      0.0356
 IR Inten    --      0.0274

 - Thermochemistry -
 -------------------
 Temperature   298.150 Kelvin.  Pressure   1.00000 Atm.
 Atom     1 has atomic number  1 and mass   1.00783

 Molecular mass:    21.01405 amu.
 Principal axes and moments of inertia in atomic units:
                           1         2         3
     Eigenvalues --     0.00000 161.18176 161.18176
           X            1.00000  -0.00000   0.00000
           Y            0.00000   1.00000   0.00000
           Z            0.00000   0.00000   1.00000
 This molecule is a prolate symmetric top.
 Rotational symmetry number  1.
 Rotational temperature (Kelvin)      0.53737
 Rotational constant (GHZ):          11.196932
    2 imaginary frequencies ignored.
 Zero-point vibrational energy       2919.4 (Joules/Mol)
                                    0.69775 (Kcal/Mol)
 Warning -- explicit consideration of   2 degrees of freedom as
           vibrations may cause significant error
 Vibrational temperatures:    351.12   351.12
          (Kelvin)

 Zero-point correction=                           0.001112 (Hartree/Particle)
 Thermal correction to Energy=                    0.004462
 Thermal correction to Enthalpy=                  0.005406
 Thermal correction to Gibbs Free Energy=        -0.020505
 Sum of electronic and zero-point Energies=           -100.761771
 Sum of electronic and thermal Energies=              -100.758421
 Sum of electronic and thermal Enthalpies=            -100.757477
 Sum of electronic and thermal Free Energies=         -100.783388

                     E (Thermal)             CV                S
                      KCal/Mol        Cal/Mol-Kelvin    Cal/Mol-Kelvin
 Total                    2.800              8.513             54.536
 Electronic               0.000              0.000              1.377
 Translational            0.889              2.981             35.068
 Rotational               0.592              1.987             14.544
 Vibrational              1.319              3.545              3.546
 Vibration     1          0.659              1.773              1.773
 Vibration     2          0.659              1.773              1.773

 Normal termination of Gaussian 16 at Fri Aug 22 22:39:48 2025.
