 Gaussian 16, Revision C.01,
 Gaussian 16:  ES64L-G16RevC.01  3-Jul-2019

 -----------------------------------------
 # sp b3lyp/6-311g** Force nosymm scf=(qc)
 -----------------------------------------

 -------------------
 Title Card Required
 -------------------
 Symbolic Z-matrix:
 Charge =  0 Multiplicity = 2

                          Input orientation:
 ---------------------------------------------------------------------
 Center     Atomic      Atomic             Coordinates (Angstroms)
 Number     Number       Type             X           Y           Z
 ---------------------------------------------------------------------
      1          1           0        0.000000    0.000000    0.000000
      2          1           0       -2.200000    0.000000    0.000000
      3          9           0        3.200000    0.000000    0.000000
 ---------------------------------------------------------------------

 SCF Done:  E(UB3LYP) =  -100.768756744     a.u. after   23 cycles

 Alpha  occ. eigenvalues --  -24.74874  -1.20872  -0.53993  -0.45335  -0.45335
 Alpha  occ. eigenvalues --   -0.33176
 Alpha virt. eigenvalues --   -0.10939   0.25694   0.32866   0.88765   0.91794
 Alpha virt. eigenvalues --    0.91794   1.02854   1.23314   1.24665   1.24665
 Alpha virt. eigenvalues --    1.38592   1.38592   1.44775   2.13744   2.35595

  Beta  occ. eigenvalues --  -24.71797  -1.12040  -0.42253  -0.42253  -0.33459
  Beta virt. eigenvalues --   -0.25246  -0.10304   0.25745   0.33661   0.93271
  Beta virt. eigenvalues --    0.93271   0.97728   1.06826   1.22960   1.24294
  Beta virt. eigenvalues --    1.24294   1.39584   1.39584   1.45639   2.14778

 Mulliken charges and spin densities:
               1          2
     1  H    0.014067  -0.901473
     2  H    0.007680   0.926013
     3  F   -0.021747   0.975460
 Sum of Mulliken charges =   0.00000   1.00000

 Dipole moment (field-independent basis, Debye):
    X=             -0.4375    Y=              0.0000    Z=              0.0000  Tot=              0.4375
 Quadrupole moment (field-independent basis, Debye-Ang):
   XX=             -7.2851   YY=             -7.6918   ZZ=             -7.6918
   XY=              0.0000   XZ=              0.0000   YZ=              0.0000

  Exact polarizability:      49.277       0.000       2.011       0.000      -0.000       2.011
 Approx polarizability:      40.558       0.000       1.927       0.000       0.000       1.927

 ******    2 imaginary frequencies (negative Signs) ******

                      1                      2                      3
                      A                      A                      A
 Frequencies --  -1033.6173              -194.9509               398.3607
 Red. masses --      1.0080                 1.1083                 1.0140
 Frc consts  --      0.6345                 0.0248                 0.0948
 IR Inten    --     17.0775                17.0791                 0.1044

                      4
                      A
 Frequencies --    398.3607
 Red. masses --      1.0140
 Frc consts  --      0.0948
 IR Inten    --      0.1044

 - Thermochemistry -
 -------------------
 Temperature   298.150 Kelvin.  Pressure   1.00000 Atm.
 Atom     1 has atomic number  1 and mass   1.00783

 Molecular mass:    21.01405 amu.
 Principal axes and moments of inertia in atomic units:
                           1         2         3
     Eigenvalues --     0.00000 129.03493 129.03493
           X            1.00000  -0.00000   0.00000
           Y            0.00000   1.00000   0.00000
           Z            0.00000   0.00000   1.00000
 This molecule is a prolate symmetric top.
 Rotational symmetry number  1.
 Rotational temperature (Kelvin)      0.67124
 Rotational constant (GHZ):          13.986455
    2 imaginary frequencies ignored.
 Zero-point vibrational energy       4765.5 (Joules/Mol)
                                    1.13897 (Kcal/Mol)
 Warning -- explicit consideration of   2 degrees of freedom as
           vibrations may cause significant error
 Vibrational temperatures:    573.15   573.15
          (Kelvin)

 Zero-point correction=                           0.001815 (Hartree/Particle)
 Thermal correction to Energy=                    0.004797
 Thermal correction to Enthalpy=                  0.005742
 Thermal correction to Gibbs Free Energy=        -0.019195
 Sum of electronic and zero-point Energies=           -100.766942
 Sum of electronic and thermal Energies=              -100.763959
 Sum of electronic and thermal Enthalpies=            -100.763015
 Sum of electronic and thermal Free Energies=         -100.787952

                     E (Thermal)             CV                S
                      KCal/Mol        Cal/Mol-Kelvin    Cal/Mol-Kelvin
 Total                    3.010              7.915             52.484
 Electronic               0.000              0.000              1.377
 Translational            0.889              2.981             35.068
 Rotational               0.592              1.987             14.102
 Vibrational              1.529              2.947              1.937
 Vibration     1          0.765              1.474              0.969
 Vibration     2          0.765              1.474              0.969

 Normal termination of Gaussian 16 at Fri Aug 22 20:23:22 2025.
