 Gaussian 16, Revision C.01,
 Gaussian 16:  ES64L-G16RevC.01  3-Jul-2019

 -----------------------------------------
 # sp b3lyp/6-311g** Force nosymm scf=(qc)
 -----------------------------------------

 -------------------
 Title Card Required
 -------------------
 Symbolic Z-matrix:
 Charge =  0 Multiplicity = 2

                          Input orientation:
 ---------------------------------------------------------------------
 Center     Atomic      Atomic             Coordinates (Angstroms)
 Number     Number       Type             X           Y           Z
 ---------------------------------------------------------------------
      1          1           0        0.000000    0.000000    0.000000
      2          1           0       -2.400000    0.000000    0.000000
      3          9           0        3.100000    0.000000    0.000000
 ---------------------------------------------------------------------

 SCF Done:  E(UB3LYP) =  -100.765472198     a.u. after   23 cycles

 Alpha  occ. eigenvalues --  -24.74517  -1.20542  -0.53635  -0.45034  -0.45034
 Alpha  occ. eigenvalues --   -0.33068
 Alpha virt. eigenvalues --   -0.10533   0.25526   0.33412   0.89158   0.92016
 Alpha virt. eigenvalues --    0.92016   1.03374   1.24633   1.24633   1.26115
 Alpha virt. eigenvalues --    1.39662   1.39662   1.42240   2.15036   2.36054

  Beta  occ. eigenvalues --  -24.71462  -1.11780  -0.41975  -0.41975  -0.33599
  Beta virt. eigenvalues --   -0.25037  -0.09587   0.25603   0.34501   0.93486
  Beta virt. eigenvalues --    0.93486   0.98038   1.07313   1.23977   1.23977
  Beta virt. eigenvalues --    1.25296   1.41180   1.41180   1.43722   2.16081

 Mulliken charges and spin densities:
               1          2
     1  H    0.022469  -0.928379
     2  H    0.006019   0.960208
     3  F   -0.028488   0.968171
 Sum of Mulliken charges =   0.00000   1.00000

 Dipole moment (field-independent basis, Debye):
    X=             -0.5221    Y=             -0.0000    Z=             -0.0000  Tot=              0.5221
 Quadrupole moment (field-independent basis, Debye-Ang):
   XX=             -7.6661   YY=             -7.6656   ZZ=             -7.6656
   XY=             -0.0000   XZ=             -0.0000   YZ=              0.0000

  Exact polarizability:      45.417      -0.000       2.013      -0.000       0.000       2.013
 Approx polarizability:      38.618      -0.000       1.924      -0.000       0.000       1.924

 ******    2 imaginary frequencies (negative Signs) ******

                      1                      2                      3
                      A                      A                      A
 Frequencies --   -790.0418              -215.9888               296.7187
 Red. masses --      1.0086                 1.1075                 1.0151
 Frc consts  --      0.3709                 0.0304                 0.0527
 IR Inten    --     18.3121                18.4366                 0.3581

                      4
                      A
 Frequencies --    296.7187
 Red. masses --      1.0151
 Frc consts  --      0.0527
 IR Inten    --      0.3581

 - Thermochemistry -
 -------------------
 Temperature   298.150 Kelvin.  Pressure   1.00000 Atm.
 Atom     1 has atomic number  1 and mass   1.00783

 Molecular mass:    21.01405 amu.
 Principal axes and moments of inertia in atomic units:
                           1         2         3
     Eigenvalues --     0.00000 130.69047 130.69047
           X            1.00000  -0.00000   0.00000
           Y            0.00000   1.00000   0.00000
           Z            0.00000   0.00000   1.00000
 This molecule is a prolate symmetric top.
 Rotational symmetry number  1.
 Rotational temperature (Kelvin)      0.66274
 Rotational constant (GHZ):          13.809279
    2 imaginary frequencies ignored.
 Zero-point vibrational energy       3549.5 (Joules/Mol)
                                    0.84836 (Kcal/Mol)
 Warning -- explicit consideration of   2 degrees of freedom as
           vibrations may cause significant error
 Vibrational temperatures:    426.91   426.91
          (Kelvin)

 Zero-point correction=                           0.001352 (Hartree/Particle)
 Thermal correction to Energy=                    0.004561
 Thermal correction to Enthalpy=                  0.005505
 Thermal correction to Gibbs Free Energy=        -0.019887
 Sum of electronic and zero-point Energies=           -100.764120
 Sum of electronic and thermal Energies=              -100.760911
 Sum of electronic and thermal Enthalpies=            -100.759967
 Sum of electronic and thermal Free Energies=         -100.785360

                     E (Thermal)             CV                S
                      KCal/Mol        Cal/Mol-Kelvin    Cal/Mol-Kelvin
 Total                    2.862              8.328             53.443
 Electronic               0.000              0.000              1.377
 Translational            0.889              2.981             35.068
 Rotational               0.592              1.987             14.127
 Vibrational              1.381              3.360              2.871
 Vibration     1          0.690              1.680              1.435
 Vibration     2          0.690              1.680              1.435

 Normal termination of Gaussian 16 at Fri Aug 22 19:55:03 2025.
