 Gaussian 16, Revision C.01,
 Gaussian 16:  ES64L-G16RevC.01  3-Jul-2019

 -----------------------------------------
 # sp b3lyp/6-311g** Force nosymm scf=(qc)
 -----------------------------------------

 -------------------
 Title Card Required
 -------------------
 Symbolic Z-matrix:
 Charge =  0 Multiplicity = 2

                          Input orientation:
 ---------------------------------------------------------------------
 Center     Atomic      Atomic             Coordinates (Angstroms)
 Number     Number       Type             X           Y           Z
 ---------------------------------------------------------------------
      1          1           0        0.000000    0.000000    0.000000
      2          1           0       -0.900000    0.000000    0.000000
      3          9           0        3.050000    0.000000    0.000000
 ---------------------------------------------------------------------

 SCF Done:  E(UB3LYP) =  -100.922466353     a.u. after  264 cycles

 Alpha  occ. eigenvalues --  -24.76610  -1.22426  -0.55618  -0.46865  -0.46768
 Alpha  occ. eigenvalues --   -0.40264
 Alpha virt. eigenvalues --    0.02868   0.20904   0.41863   0.85838   0.90711
 Alpha virt. eigenvalues --    0.93664   1.04575   1.08494   1.08500   1.45658
 Alpha virt. eigenvalues --    1.72384   1.72391   2.19174   2.38181   2.74323

  Beta  occ. eigenvalues --  -24.73449  -1.13340  -0.43726  -0.43599  -0.40230
  Beta virt. eigenvalues --   -0.26243   0.02897   0.20928   0.41951   0.92210
  Beta virt. eigenvalues --    0.95296   0.95402   1.08359   1.08493   1.08499
  Beta virt. eigenvalues --    1.45667   1.72383   1.72390   2.19194   2.38188

 Mulliken charges and spin densities:
               1          2
     1  H   -0.003574  -0.000828
     2  H   -0.004650  -0.000236
     3  F    0.008224   1.001064
 Sum of Mulliken charges =   0.00000   1.00000

 Dipole moment (field-independent basis, Debye):
    X=              0.0913    Y=             -0.0000    Z=             -0.0000  Tot=              0.0913
 Quadrupole moment (field-independent basis, Debye-Ang):
   XX=             -6.1250   YY=             -6.9630   ZZ=             -6.4887
   XY=              0.0000   XZ=              0.0000   YZ=              0.3609

  Exact polarizability:      10.857       0.000       2.134       0.000       0.192       2.386
 Approx polarizability:      13.324       0.000       2.224       0.000       0.242       2.542

                      1                      2                      3
                      A                      A                      A
 Frequencies --     54.1222              1455.0472              1456.1409
 Red. masses --      1.1085                 1.0095                 1.0095
 Frc consts  --      0.0019                 1.2592                 1.2611
 IR Inten    --      0.3111                 0.0014                 0.0010

                      4
                      A
 Frequencies --   2643.5739
 Red. masses --      1.0078
 Frc consts  --      4.1497
 IR Inten    --      0.5076

 - Thermochemistry -
 -------------------
 Temperature   298.150 Kelvin.  Pressure   1.00000 Atm.
 Atom     1 has atomic number  1 and mass   1.00783

 Molecular mass:    21.01405 amu.
 Principal axes and moments of inertia in atomic units:
                           1         2         3
     Eigenvalues --     0.00000  81.17557  81.17557
           X            1.00000  -0.00000   0.00000
           Y            0.00000   1.00000   0.00000
           Z            0.00000   0.00000   1.00000
 This molecule is a prolate symmetric top.
 Rotational symmetry number  1.
 Rotational temperature (Kelvin)      1.06699
 Rotational constant (GHZ):          22.232566
 Zero-point vibrational energy      33548.6 (Joules/Mol)
                                    8.01830 (Kcal/Mol)
 Warning -- explicit consideration of   1 degrees of freedom as
           vibrations may cause significant error
 Vibrational temperatures:     77.87  2093.49  2095.06  3803.51
          (Kelvin)

 Zero-point correction=                           0.012778 (Hartree/Particle)
 Thermal correction to Energy=                    0.015977
 Thermal correction to Enthalpy=                  0.016921
 Thermal correction to Gibbs Free Energy=        -0.008886
 Sum of electronic and zero-point Energies=           -100.909688
 Sum of electronic and thermal Energies=              -100.906490
 Sum of electronic and thermal Enthalpies=            -100.905546
 Sum of electronic and thermal Free Energies=         -100.931353

                     E (Thermal)             CV                S
                      KCal/Mol        Cal/Mol-Kelvin    Cal/Mol-Kelvin
 Total                   10.025              7.120             54.315
 Electronic               0.000              0.000              1.377
 Translational            0.889              2.981             35.068
 Rotational               0.592              1.987             13.181
 Vibrational              8.544              2.152              4.689
 Vibration     1          0.596              1.976              4.661

 Normal termination of Gaussian 16 at Fri Aug 22 19:38:57 2025.
