 Gaussian 16, Revision C.01,
 Gaussian 16:  ES64L-G16RevC.01  3-Jul-2019

 -----------------------------------------
 # sp b3lyp/6-311g** Force nosymm scf=(qc)
 -----------------------------------------

 -------------------
 Title Card Required
 -------------------
 Symbolic Z-matrix:
 Charge =  0 Multiplicity = 2

                          Input orientation:
 ---------------------------------------------------------------------
 Center     Atomic      Atomic             Coordinates (Angstroms)
 Number     Number       Type             X           Y           Z
 ---------------------------------------------------------------------
      1          1           0        0.000000    0.000000    0.000000
      2          1           0       -1.550000    0.000000    0.000000
      3          9           0        3.100000    0.000000    0.000000
 ---------------------------------------------------------------------

 SCF Done:  E(UB3LYP) =  -100.813209776     a.u. after   43 cycles

 Alpha  occ. eigenvalues --  -24.75620  -1.21563  -0.54730  -0.45992  -0.45976
 Alpha  occ. eigenvalues --   -0.34071
 Alpha virt. eigenvalues --   -0.10504   0.24794   0.30144   0.88149   0.91286
 Alpha virt. eigenvalues --    0.92012   1.03185   1.06274   1.20785   1.20786
 Alpha virt. eigenvalues --    1.39819   1.39821   1.77898   2.20335   2.45587

  Beta  occ. eigenvalues --  -24.72513  -1.12636  -0.42886  -0.42862  -0.33935
  Beta virt. eigenvalues --   -0.25805  -0.10335   0.25032   0.30391   0.92769
  Beta virt. eigenvalues --    0.93068   0.97581   1.06381   1.07260   1.20919
  Beta virt. eigenvalues --    1.20920   1.39949   1.39949   1.78158   2.20858

 Mulliken charges and spin densities:
               1          2
     1  H   -0.000740  -0.351635
     2  H    0.011672   0.366746
     3  F   -0.010932   0.984889
 Sum of Mulliken charges =   0.00000   1.00000

 Dipole moment (field-independent basis, Debye):
    X=             -0.2659    Y=              0.0015    Z=              0.0000  Tot=              0.2659
 Quadrupole moment (field-independent basis, Debye-Ang):
   XX=             -6.1687   YY=             -7.5691   ZZ=             -7.7508
   XY=              0.3493   XZ=              0.0004   YZ=              0.0002

  Exact polarizability:     216.639       1.405       2.138       0.010       0.000       2.025
 Approx polarizability:      60.306       0.149       2.139       0.000       0.000       2.017

 ******    2 imaginary frequencies (negative Signs) ******

                      1                      2                      3
                      A                      A                      A
 Frequencies --  -2591.9249              -249.5325              1119.1509
 Red. masses --      1.0083                 1.1079                 1.0117
 Frc consts  --      3.9911                 0.0406                 0.7466
 IR Inten    --  17137.2510               228.0045                 8.2243

                      4
                      A
 Frequencies --   1120.6456
 Red. masses --      1.0117
 Frc consts  --      0.7486
 IR Inten    --      0.0258

 - Thermochemistry -
 -------------------
 Temperature   298.150 Kelvin.  Pressure   1.00000 Atm.
 Atom     1 has atomic number  1 and mass   1.00783

 Molecular mass:    21.01405 amu.
 Principal axes and moments of inertia in atomic units:
                           1         2         3
     Eigenvalues --     0.00000 102.03883 102.03883
           X            1.00000  -0.00000   0.00000
           Y            0.00000   1.00000   0.00000
           Z            0.00000   0.00000   1.00000
 This molecule is a prolate symmetric top.
 Rotational symmetry number  1.
 Rotational temperature (Kelvin)      0.84883
 Rotational constant (GHZ):          17.686808
    2 imaginary frequencies ignored.
 Zero-point vibrational energy      13397.0 (Joules/Mol)
                                    3.20195 (Kcal/Mol)
 Vibrational temperatures:   1610.21  1612.36
          (Kelvin)

 Zero-point correction=                           0.005103 (Hartree/Particle)
 Thermal correction to Energy=                    0.007509
 Thermal correction to Enthalpy=                  0.008453
 Thermal correction to Gibbs Free Energy=        -0.015396
 Sum of electronic and zero-point Energies=           -100.808107
 Sum of electronic and thermal Energies=              -100.805701
 Sum of electronic and thermal Enthalpies=            -100.804756
 Sum of electronic and thermal Free Energies=         -100.828606

                     E (Thermal)             CV                S
                      KCal/Mol        Cal/Mol-Kelvin    Cal/Mol-Kelvin
 Total                    4.712              5.495             50.196
 Electronic               0.000              0.000              1.377
 Translational            0.889              2.981             35.068
 Rotational               0.592              1.987             13.635
 Vibrational              3.231              0.527              0.115

 Normal termination of Gaussian 16 at Fri Aug 22 19:53:43 2025.
