 Gaussian 16, Revision C.01,
 Gaussian 16:  ES64L-G16RevC.01  3-Jul-2019

 -----------------------------------------
 # sp b3lyp/6-311g** Force nosymm scf=(qc)
 -----------------------------------------

 -------------------
 Title Card Required
 -------------------
 Symbolic Z-matrix:
 Charge =  0 Multiplicity = 2

                          Input orientation:
 ---------------------------------------------------------------------
 Center     Atomic      Atomic             Coordinates (Angstroms)
 Number     Number       Type             X           Y           Z
 ---------------------------------------------------------------------
      1          1           0        0.000000    0.000000    0.000000
      2          1           0       -3.550000    0.000000    0.000000
      3          9           0        2.600000    0.000000    0.000000
 ---------------------------------------------------------------------

 SCF Done:  E(UB3LYP) =  -100.765535536     a.u. after   19 cycles

 Alpha  occ. eigenvalues --  -24.72297  -1.18480  -0.51406  -0.43178  -0.43178
 Alpha  occ. eigenvalues --   -0.32797
 Alpha virt. eigenvalues --   -0.09726   0.23596   0.35545   0.89887   0.93313
 Alpha virt. eigenvalues --    0.93313   1.06005   1.24710   1.24710   1.24848
 Alpha virt. eigenvalues --    1.41461   1.41461   1.44072   2.14498   2.37620

  Beta  occ. eigenvalues --  -24.69406  -1.10236  -0.40293  -0.40293  -0.34966
  Beta virt. eigenvalues --   -0.23699  -0.06622   0.23931   0.37933   0.94712
  Beta virt. eigenvalues --    0.94712   0.97069   1.08693   1.22405   1.22405
  Beta virt. eigenvalues --    1.27231   1.45831   1.46098   1.46098   2.13300

 Mulliken charges and spin densities:
               1          2
     1  H    0.076114  -0.912360
     2  H    0.000692   0.998178
     3  F   -0.076806   0.914183
 Sum of Mulliken charges =  -0.00000   1.00000

 Dipole moment (field-independent basis, Debye):
    X=             -1.0309    Y=              0.0000    Z=             -0.0000  Tot=              1.0309
 Quadrupole moment (field-independent basis, Debye-Ang):
   XX=             -9.1204   YY=             -7.5811   ZZ=             -7.5811
   XY=             -0.0000   XZ=             -0.0000   YZ=              0.0000

  Exact polarizability:      31.424       0.000       2.024      -0.000      -0.000       2.024
 Approx polarizability:      38.305      -0.000       1.921      -0.000      -0.000       1.921

 ******    2 imaginary frequencies (negative Signs) ******

                      1                      2                      3
                      A                      A                      A
 Frequencies --   -557.4333              -113.9767               212.8026
 Red. masses --      1.0537                 1.0578                 1.0221
 Frc consts  --      0.1929                 0.0081                 0.0273
 IR Inten    --     71.5420                 0.2676                 5.5412

                      4
                      A
 Frequencies --    212.8026
 Red. masses --      1.0221
 Frc consts  --      0.0273
 IR Inten    --      5.5412

 - Thermochemistry -
 -------------------
 Temperature   298.150 Kelvin.  Pressure   1.00000 Atm.
 Atom     1 has atomic number  1 and mass   1.00783

 Molecular mass:    21.01405 amu.
 Principal axes and moments of inertia in atomic units:
                           1         2         3
     Eigenvalues --     0.00000 147.23758 147.23758
           X            1.00000  -0.00000   0.00000
           Y            0.00000   1.00000   0.00000
           Z            0.00000   0.00000   1.00000
 This molecule is a prolate symmetric top.
 Rotational symmetry number  1.
 Rotational temperature (Kelvin)      0.58826
 Rotational constant (GHZ):          12.257341
    2 imaginary frequencies ignored.
 Zero-point vibrational energy       2545.7 (Joules/Mol)
                                    0.60843 (Kcal/Mol)
 Warning -- explicit consideration of   2 degrees of freedom as
           vibrations may cause significant error
 Vibrational temperatures:    306.18   306.18
          (Kelvin)

 Zero-point correction=                           0.000970 (Hartree/Particle)
 Thermal correction to Energy=                    0.004412
 Thermal correction to Enthalpy=                  0.005356
 Thermal correction to Gibbs Free Energy=        -0.020704
 Sum of electronic and zero-point Energies=           -100.764566
 Sum of electronic and thermal Energies=              -100.761124
 Sum of electronic and thermal Enthalpies=            -100.760179
 Sum of electronic and thermal Free Energies=         -100.786240

                     E (Thermal)             CV                S
                      KCal/Mol        Cal/Mol-Kelvin    Cal/Mol-Kelvin
 Total                    2.769              8.611             54.848
 Electronic               0.000              0.000              1.377
 Translational            0.889              2.981             35.068
 Rotational               0.592              1.987             14.364
 Vibrational              1.287              3.643              4.039
 Vibration     1          0.644              1.821              2.019
 Vibration     2          0.644              1.821              2.019

 Normal termination of Gaussian 16 at Fri Aug 22 18:05:15 2025.
