 Gaussian 16, Revision C.01,
 Gaussian 16:  ES64L-G16RevC.01  3-Jul-2019

 -----------------------------------------
 # sp b3lyp/6-311g** Force nosymm scf=(qc)
 -----------------------------------------

 -------------------
 Title Card Required
 -------------------
 Symbolic Z-matrix:
 Charge =  0 Multiplicity = 2

                          Input orientation:
 ---------------------------------------------------------------------
 Center     Atomic      Atomic             Coordinates (Angstroms)
 Number     Number       Type             X           Y           Z
 ---------------------------------------------------------------------
      1          1           0        0.000000    0.000000    0.000000
      2          1           0       -1.800000    0.000000    0.000000
      3          9           0        3.450000    0.000000    0.000000
 ---------------------------------------------------------------------

 SCF Done:  E(UB3LYP) =  -100.786326090     a.u. after   45 cycles

 Alpha  occ. eigenvalues --  -24.75645  -1.21591  -0.54770  -0.45993  -0.45993
 Alpha  occ. eigenvalues --   -0.33376
 Alpha virt. eigenvalues --   -0.11188   0.25658   0.30968   0.87745   0.91294
 Alpha virt. eigenvalues --    0.91294   1.01807   1.09636   1.24238   1.24238
 Alpha virt. eigenvalues --    1.37257   1.37257   1.61044   2.14597   2.39438

  Beta  occ. eigenvalues --  -24.72523  -1.12619  -0.42864  -0.42864  -0.33372
  Beta virt. eigenvalues --   -0.25703  -0.11024   0.25615   0.31329   0.92785
  Beta virt. eigenvalues --    0.92785   0.96896   1.05851   1.09692   1.24244
  Beta virt. eigenvalues --    1.24244   1.37441   1.37441   1.61222   2.15120

 Mulliken charges and spin densities:
               1          2
     1  H    0.000469  -0.716183
     2  H    0.008008   0.726365
     3  F   -0.008477   0.989817
 Sum of Mulliken charges =   0.00000   1.00000

 Dipole moment (field-independent basis, Debye):
    X=             -0.2174    Y=             -0.0000    Z=             -0.0000  Tot=              0.2174
 Quadrupole moment (field-independent basis, Debye-Ang):
   XX=             -6.3100   YY=             -7.7530   ZZ=             -7.7530
   XY=             -0.0000   XZ=             -0.0000   YZ=              0.0000

  Exact polarizability:      45.185       0.000       2.006       0.000       0.000       2.006
 Approx polarizability:      47.108      -0.000       1.958      -0.000       0.000       1.958

 ******    2 imaginary frequencies (negative Signs) ******

                      1                      2                      3
                      A                      A                      A
 Frequencies --  -1732.3536              -132.1293               768.0177
 Red. masses --      1.0078                 1.1085                 1.0120
 Frc consts  --      1.7820                 0.0114                 0.3517
 IR Inten    --     18.8611                 6.8955                 0.0061

                      4
                      A
 Frequencies --    768.0177
 Red. masses --      1.0120
 Frc consts  --      0.3517
 IR Inten    --      0.0061

 - Thermochemistry -
 -------------------
 Temperature   298.150 Kelvin.  Pressure   1.00000 Atm.
 Atom     1 has atomic number  1 and mass   1.00783

 Molecular mass:    21.01405 amu.
 Principal axes and moments of inertia in atomic units:
                           1         2         3
     Eigenvalues --     0.00000 128.97025 128.97025
           X            1.00000  -0.00000   0.00000
           Y            0.00000   1.00000   0.00000
           Z            0.00000   0.00000   1.00000
 This molecule is a prolate symmetric top.
 Rotational symmetry number  1.
 Rotational temperature (Kelvin)      0.67158
 Rotational constant (GHZ):          13.993469
    2 imaginary frequencies ignored.
 Zero-point vibrational energy       9187.5 (Joules/Mol)
                                    2.19587 (Kcal/Mol)
 Vibrational temperatures:   1105.01  1105.01
          (Kelvin)

 Zero-point correction=                           0.003499 (Hartree/Particle)
 Thermal correction to Energy=                    0.006036
 Thermal correction to Enthalpy=                  0.006980
 Thermal correction to Gibbs Free Energy=        -0.017259
 Sum of electronic and zero-point Energies=           -100.782827
 Sum of electronic and thermal Energies=              -100.780290
 Sum of electronic and thermal Enthalpies=            -100.779346
 Sum of electronic and thermal Free Energies=         -100.803585

                     E (Thermal)             CV                S
                      KCal/Mol        Cal/Mol-Kelvin    Cal/Mol-Kelvin
 Total                    3.788              6.378             51.016
 Electronic               0.000              0.000              1.377
 Translational            0.889              2.981             35.068
 Rotational               0.592              1.987             14.101
 Vibrational              2.306              1.410              0.470

 Normal termination of Gaussian 16 at Fri Aug 22 21:40:40 2025.
