 Gaussian 16, Revision C.01,
 Gaussian 16:  ES64L-G16RevC.01  3-Jul-2019

 -----------------------------------------
 # sp b3lyp/6-311g** Force nosymm scf=(qc)
 -----------------------------------------

 -------------------
 Title Card Required
 -------------------
 Symbolic Z-matrix:
 Charge =  0 Multiplicity = 2

                          Input orientation:
 ---------------------------------------------------------------------
 Center     Atomic      Atomic             Coordinates (Angstroms)
 Number     Number       Type             X           Y           Z
 ---------------------------------------------------------------------
      1          1           0        0.000000    0.000000    0.000000
      2          1           0       -2.300000    0.000000    0.000000
      3          9           0        1.050000    0.000000    0.000000
 ---------------------------------------------------------------------

 SCF Done:  E(UB3LYP) =  -100.958995924     a.u. after    6 cycles

 Alpha  occ. eigenvalues --  -24.64008  -1.14694  -0.50564  -0.38233  -0.38233
 Alpha  occ. eigenvalues --   -0.35515
 Alpha virt. eigenvalues --    0.00809   0.24823   0.32346   0.93998   0.93998
 Alpha virt. eigenvalues --    0.99009   1.17890   1.22014   1.22014   1.35752
 Alpha virt. eigenvalues --    1.35752   1.41157   1.84750   2.13089   2.33959

  Beta  occ. eigenvalues --  -24.63964  -1.14584  -0.50352  -0.38194  -0.38194
  Beta virt. eigenvalues --   -0.11316   0.02986   0.32231   0.36269   0.94001
  Beta virt. eigenvalues --    0.94001   0.99199   1.27089   1.35631   1.35631
  Beta virt. eigenvalues --    1.42771   1.42771   1.51899   1.84793   2.32438

 Mulliken charges and spin densities:
               1          2
     1  H    0.322481   0.002875
     2  H    0.011311   0.984119
     3  F   -0.333792   0.013005
 Sum of Mulliken charges =   0.00000   1.00000

 Dipole moment (field-independent basis, Debye):
    X=             -2.2326    Y=             -0.0000    Z=             -0.0000  Tot=              2.2326
 Quadrupole moment (field-independent basis, Debye-Ang):
   XX=             -8.0351   YY=             -6.9910   ZZ=             -6.9910
   XY=             -0.0000   XZ=             -0.0000   YZ=              0.0000

  Exact polarizability:      10.454       0.000       2.420      -0.000      -0.000       2.420
 Approx polarizability:      12.029       0.000       2.394      -0.000      -0.000       2.394

 ******    1 imaginary frequencies (negative Signs) ******

                      1                      2                      3
                      A                      A                      A
 Frequencies --   -118.7895              1092.0586              1092.0586
 Red. masses --      1.0520                 1.0295                 1.0295
 Frc consts  --      0.0087                 0.7234                 0.7234
 IR Inten    --      2.4828               141.7247               141.7247

                      4
                      A
 Frequencies --   2419.5819
 Red. masses --      1.0595
 Frc consts  --      3.6546
 IR Inten    --    145.8999

 - Thermochemistry -
 -------------------
 Temperature   298.150 Kelvin.  Pressure   1.00000 Atm.
 Atom     1 has atomic number  1 and mass   1.00783

 Molecular mass:    21.01405 amu.
 Principal axes and moments of inertia in atomic units:
                           1         2         3
     Eigenvalues --     0.00000  41.01611  41.01611
           X            1.00000  -0.00000   0.00000
           Y            0.00000   1.00000   0.00000
           Z            0.00000   0.00000   1.00000
 This molecule is a prolate symmetric top.
 Rotational symmetry number  1.
 Rotational temperature (Kelvin)      2.11170
 Rotational constant (GHZ):          44.000789
    1 imaginary frequencies ignored.
 Zero-point vibrational energy      27536.2 (Joules/Mol)
                                    6.58132 (Kcal/Mol)
 Vibrational temperatures:   1571.23  1571.23  3481.24
          (Kelvin)

 Zero-point correction=                           0.010488 (Hartree/Particle)
 Thermal correction to Energy=                    0.012900
 Thermal correction to Enthalpy=                  0.013844
 Thermal correction to Gibbs Free Energy=        -0.009151
 Sum of electronic and zero-point Energies=           -100.948508
 Sum of electronic and thermal Energies=              -100.946096
 Sum of electronic and thermal Enthalpies=            -100.945152
 Sum of electronic and thermal Free Energies=         -100.968147

                     E (Thermal)             CV                S
                      KCal/Mol        Cal/Mol-Kelvin    Cal/Mol-Kelvin
 Total                    8.095              5.544             48.399
 Electronic               0.000              0.000              1.377
 Translational            0.889              2.981             35.068
 Rotational               0.592              1.987             11.824
 Vibrational              6.614              0.576              0.129

 Normal termination of Gaussian 16 at Fri Aug 22 16:03:08 2025.
