 Gaussian 16, Revision C.01,
 Gaussian 16:  ES64L-G16RevC.01  3-Jul-2019

 -----------------------------------------
 # sp b3lyp/6-311g** Force nosymm scf=(qc)
 -----------------------------------------

 -------------------
 Title Card Required
 -------------------
 Symbolic Z-matrix:
 Charge =  0 Multiplicity = 2

                          Input orientation:
 ---------------------------------------------------------------------
 Center     Atomic      Atomic             Coordinates (Angstroms)
 Number     Number       Type             X           Y           Z
 ---------------------------------------------------------------------
      1          1           0        0.000000    0.000000    0.000000
      2          1           0       -2.550000    0.000000    0.000000
      3          9           0        1.800000    0.000000    0.000000
 ---------------------------------------------------------------------

 SCF Done:  E(UB3LYP) =  -100.807376191     a.u. after   18 cycles

 Alpha  occ. eigenvalues --  -24.66418  -1.12622  -0.45276  -0.38184  -0.38184
 Alpha  occ. eigenvalues --   -0.35237
 Alpha virt. eigenvalues --   -0.14531   0.23420   0.29280   0.93529   0.94918
 Alpha virt. eigenvalues --    0.94918   1.06361   1.22378   1.22378   1.24897
 Alpha virt. eigenvalues --    1.33751   1.33751   1.70048   2.13398   2.26192

  Beta  occ. eigenvalues --  -24.64506  -1.07357  -0.39105  -0.36318  -0.36318
  Beta virt. eigenvalues --   -0.19415  -0.09625   0.24117   0.34921   0.94730
  Beta virt. eigenvalues --    0.94960   0.94960   1.08455   1.24136   1.24136
  Beta virt. eigenvalues --    1.41517   1.41517   1.42586   1.65694   2.13374

 Mulliken charges and spin densities:
               1          2
     1  H    0.238131  -0.574994
     2  H    0.018393   0.973692
     3  F   -0.256524   0.601303
 Sum of Mulliken charges =   0.00000   1.00000

 Dipole moment (field-independent basis, Debye):
    X=             -2.4803    Y=              0.0000    Z=              0.0000  Tot=              2.4803
 Quadrupole moment (field-independent basis, Debye-Ang):
   XX=             -9.5579   YY=             -7.4624   ZZ=             -7.4624
   XY=              0.0000   XZ=              0.0000   YZ=              0.0000

  Exact polarizability:      32.937       0.000       2.099       0.000       0.000       2.099
 Approx polarizability:      43.253       0.000       1.995       0.000      -0.000       1.995

 ******    2 imaginary frequencies (negative Signs) ******

                      1                      2                      3
                      A                      A                      A
 Frequencies --  -1555.4585              -357.7172               660.6176
 Red. masses --      1.0503                 1.0613                 1.0227
 Frc consts  --      1.4972                 0.0800                 0.2630
 IR Inten    --     97.4983                10.2968                47.3061

                      4
                      A
 Frequencies --    660.6176
 Red. masses --      1.0227
 Frc consts  --      0.2630
 IR Inten    --     47.3061

 - Thermochemistry -
 -------------------
 Temperature   298.150 Kelvin.  Pressure   1.00000 Atm.
 Atom     1 has atomic number  1 and mass   1.00783

 Molecular mass:    21.01405 amu.
 Principal axes and moments of inertia in atomic units:
                           1         2         3
     Eigenvalues --     0.00000  73.23460  73.23460
           X            1.00000  -0.00000   0.00000
           Y            0.00000   1.00000   0.00000
           Z            0.00000   0.00000   1.00000
 This molecule is a prolate symmetric top.
 Rotational symmetry number  1.
 Rotational temperature (Kelvin)      1.18269
 Rotational constant (GHZ):          24.643286
    2 imaginary frequencies ignored.
 Zero-point vibrational energy       7902.7 (Joules/Mol)
                                    1.88880 (Kcal/Mol)
 Vibrational temperatures:    950.48   950.48
          (Kelvin)

 Zero-point correction=                           0.003010 (Hartree/Particle)
 Thermal correction to Energy=                    0.005630
 Thermal correction to Enthalpy=                  0.006574
 Thermal correction to Gibbs Free Energy=        -0.017247
 Sum of electronic and zero-point Energies=           -100.804366
 Sum of electronic and thermal Energies=              -100.801747
 Sum of electronic and thermal Enthalpies=            -100.800802
 Sum of electronic and thermal Free Energies=         -100.824623

                     E (Thermal)             CV                S
                      KCal/Mol        Cal/Mol-Kelvin    Cal/Mol-Kelvin
 Total                    3.533              6.781             50.134
 Electronic               0.000              0.000              1.377
 Translational            0.889              2.981             35.068
 Rotational               0.592              1.987             12.976
 Vibrational              2.051              1.813              0.713

 Normal termination of Gaussian 16 at Fri Aug 22 16:44:03 2025.
