 Gaussian 16, Revision C.01,
 Gaussian 16:  ES64L-G16RevC.01  3-Jul-2019

 -----------------------------------------
 # sp b3lyp/6-311g** Force nosymm scf=(qc)
 -----------------------------------------

 -------------------
 Title Card Required
 -------------------
 Symbolic Z-matrix:
 Charge =  0 Multiplicity = 2

                          Input orientation:
 ---------------------------------------------------------------------
 Center     Atomic      Atomic             Coordinates (Angstroms)
 Number     Number       Type             X           Y           Z
 ---------------------------------------------------------------------
      1          1           0        0.000000    0.000000    0.000000
      2          1           0       -1.300000    0.000000    0.000000
      3          9           0        3.300000    0.000000    0.000000
 ---------------------------------------------------------------------

 SCF Done:  E(UB3LYP) =  -100.854082820     a.u. after  438 cycles

 Alpha  occ. eigenvalues --  -24.76493  -1.22347  -0.55543  -0.46755  -0.46696
 Alpha  occ. eigenvalues --   -0.35223
 Alpha virt. eigenvalues --   -0.06085   0.23599   0.32684   0.85876   0.90751
 Alpha virt. eigenvalues --    0.92637   1.01935   1.15425   1.15429   1.15794
 Alpha virt. eigenvalues --    1.49524   1.49529   1.99000   2.29030   2.53233

  Beta  occ. eigenvalues --  -24.73334  -1.13267  -0.43590  -0.43530  -0.35219
  Beta virt. eigenvalues --   -0.26179  -0.06077   0.23612   0.32731   0.92250
  Beta virt. eigenvalues --    0.94178   0.95338   1.05975   1.15424   1.15428
  Beta virt. eigenvalues --    1.15807   1.49524   1.49528   1.99008   2.29032

 Mulliken charges and spin densities:
               1          2
     1  H   -0.000240  -0.000025
     2  H   -0.004243  -0.000528
     3  F    0.004483   1.000553
 Sum of Mulliken charges =  -0.00000   1.00000

 Dipole moment (field-independent basis, Debye):
    X=              0.0684    Y=             -0.0000    Z=             -0.0000  Tot=              0.0684
 Quadrupole moment (field-independent basis, Debye-Ang):
   XX=             -6.2109   YY=             -6.8925   ZZ=             -7.4362
   XY=             -0.0000   XZ=             -0.0000   YZ=              0.3358

  Exact polarizability:      18.377      -0.000       2.450      -0.000       0.180       2.158
 Approx polarizability:      29.686      -0.000       2.562      -0.000       0.226       2.196

 ******    2 imaginary frequencies (negative Signs) ******

                      1                      2                      3
                      A                      A                      A
 Frequencies --   -970.4351               -40.4470              1393.1712
 Red. masses --      1.0078                 1.1085                 1.0105
 Frc consts  --      0.5592                 0.0011                 1.1556
 IR Inten    --      0.3904                 0.2866                 0.0019

                      4
                      A
 Frequencies --   1394.1627
 Red. masses --      1.0105
 Frc consts  --      1.1572
 IR Inten    --      0.0018

 - Thermochemistry -
 -------------------
 Temperature   298.150 Kelvin.  Pressure   1.00000 Atm.
 Atom     1 has atomic number  1 and mass   1.00783

 Molecular mass:    21.01405 amu.
 Principal axes and moments of inertia in atomic units:
                           1         2         3
     Eigenvalues --     0.00000 104.57583 104.57583
           X            1.00000  -0.00000   0.00000
           Y            0.00000   1.00000   0.00000
           Z            0.00000   0.00000   1.00000
 This molecule is a prolate symmetric top.
 Rotational symmetry number  1.
 Rotational temperature (Kelvin)      0.82824
 Rotational constant (GHZ):          17.257728
    2 imaginary frequencies ignored.
 Zero-point vibrational energy      16672.0 (Joules/Mol)
                                    3.98469 (Kcal/Mol)
 Vibrational temperatures:   2004.46  2005.89
          (Kelvin)

 Zero-point correction=                           0.006350 (Hartree/Particle)
 Thermal correction to Energy=                    0.008726
 Thermal correction to Enthalpy=                  0.009670
 Thermal correction to Gibbs Free Energy=        -0.014166
 Sum of electronic and zero-point Energies=           -100.847733
 Sum of electronic and thermal Energies=              -100.845357
 Sum of electronic and thermal Enthalpies=            -100.844413
 Sum of electronic and thermal Free Energies=         -100.868249

                     E (Thermal)             CV                S
                      KCal/Mol        Cal/Mol-Kelvin    Cal/Mol-Kelvin
 Total                    5.475              5.184             50.166
 Electronic               0.000              0.000              1.377
 Translational            0.889              2.981             35.068
 Rotational               0.592              1.987             13.684
 Vibrational              3.994              0.216              0.037

 Normal termination of Gaussian 16 at Fri Aug 22 20:44:34 2025.
