 Gaussian 16, Revision C.01,
 Gaussian 16:  ES64L-G16RevC.01  3-Jul-2019

 -----------------------------------------
 # sp b3lyp/6-311g** Force nosymm scf=(qc)
 -----------------------------------------

 -------------------
 Title Card Required
 -------------------
 Symbolic Z-matrix:
 Charge =  0 Multiplicity = 2

                          Input orientation:
 ---------------------------------------------------------------------
 Center     Atomic      Atomic             Coordinates (Angstroms)
 Number     Number       Type             X           Y           Z
 ---------------------------------------------------------------------
      1          1           0        0.000000    0.000000    0.000000
      2          1           0       -1.450000    0.000000    0.000000
      3          9           0        2.600000    0.000000    0.000000
 ---------------------------------------------------------------------

 SCF Done:  E(UB3LYP) =  -100.830172904     a.u. after   21 cycles

 Alpha  occ. eigenvalues --  -24.74254  -1.20311  -0.53433  -0.44839  -0.44839
 Alpha  occ. eigenvalues --   -0.35672
 Alpha virt. eigenvalues --   -0.09886   0.23760   0.31174   0.89570   0.92076
 Alpha virt. eigenvalues --    0.92076   1.05019   1.11673   1.17464   1.17464
 Alpha virt. eigenvalues --    1.41740   1.41740   1.84479   2.22268   2.48261

  Beta  occ. eigenvalues --  -24.71245  -1.11699  -0.41830  -0.41830  -0.35288
  Beta virt. eigenvalues --   -0.25339  -0.09269   0.24422   0.31509   0.93512
  Beta virt. eigenvalues --    0.93512   0.97211   1.07145   1.14883   1.17929
  Beta virt. eigenvalues --    1.17929   1.42127   1.42127   1.85033   2.23049

 Mulliken charges and spin densities:
               1          2
     1  H    0.007967  -0.202566
     2  H    0.031315   0.250932
     3  F   -0.039282   0.951634
 Sum of Mulliken charges =  -0.00000   1.00000

 Dipole moment (field-independent basis, Debye):
    X=             -0.7329    Y=             -0.0000    Z=             -0.0000  Tot=              0.7329
 Quadrupole moment (field-independent basis, Debye-Ang):
   XX=             -6.5065   YY=             -7.6663   ZZ=             -7.6663
   XY=             -0.0000   XZ=             -0.0000   YZ=             -0.0000

  Exact polarizability:      54.527      -0.000       2.065      -0.000      -0.000       2.065
 Approx polarizability:      74.439      -0.000       2.048      -0.000      -0.000       2.048

 ******    2 imaginary frequencies (negative Signs) ******

                      1                      2                      3
                      A                      A                      A
 Frequencies --  -1851.0962              -251.5215              1217.7502
 Red. masses --      1.0085                 1.1077                 1.0124
 Frc consts  --      2.0360                 0.0413                 0.8846
 IR Inten    --    651.5153                22.2896                 0.0136

                      4
                      A
 Frequencies --   1217.7502
 Red. masses --      1.0124
 Frc consts  --      0.8846
 IR Inten    --      0.0136

 - Thermochemistry -
 -------------------
 Temperature   298.150 Kelvin.  Pressure   1.00000 Atm.
 Atom     1 has atomic number  1 and mass   1.00783

 Molecular mass:    21.01405 amu.
 Principal axes and moments of inertia in atomic units:
                           1         2         3
     Eigenvalues --     0.00000  75.72893  75.72893
           X            1.00000  -0.00000   0.00000
           Y            0.00000   1.00000   0.00000
           Z            0.00000   0.00000   1.00000
 This molecule is a prolate symmetric top.
 Rotational symmetry number  1.
 Rotational temperature (Kelvin)      1.14374
 Rotational constant (GHZ):          23.831596
    2 imaginary frequencies ignored.
 Zero-point vibrational energy      14567.5 (Joules/Mol)
                                    3.48172 (Kcal/Mol)
 Vibrational temperatures:   1752.07  1752.07
          (Kelvin)

 Zero-point correction=                           0.005548 (Hartree/Particle)
 Thermal correction to Energy=                    0.007940
 Thermal correction to Enthalpy=                  0.008884
 Thermal correction to Gibbs Free Energy=        -0.014666
 Sum of electronic and zero-point Energies=           -100.824624
 Sum of electronic and thermal Energies=              -100.822233
 Sum of electronic and thermal Enthalpies=            -100.821289
 Sum of electronic and thermal Free Energies=         -100.844838

                     E (Thermal)             CV                S
                      KCal/Mol        Cal/Mol-Kelvin    Cal/Mol-Kelvin
 Total                    4.983              5.355             49.565
 Electronic               0.000              0.000              1.377
 Translational            0.889              2.981             35.068
 Rotational               0.592              1.987             13.043
 Vibrational              3.501              0.387              0.077

 Normal termination of Gaussian 16 at Fri Aug 22 18:03:05 2025.
