 Gaussian 16, Revision C.01,
 Gaussian 16:  ES64L-G16RevC.01  3-Jul-2019

 -----------------------------------------
 # sp b3lyp/6-311g** Force nosymm scf=(qc)
 -----------------------------------------

 -------------------
 Title Card Required
 -------------------
 Symbolic Z-matrix:
 Charge =  0 Multiplicity = 2

                          Input orientation:
 ---------------------------------------------------------------------
 Center     Atomic      Atomic             Coordinates (Angstroms)
 Number     Number       Type             X           Y           Z
 ---------------------------------------------------------------------
      1          1           0        0.000000    0.000000    0.000000
      2          1           0       -3.450000    0.000000    0.000000
      3          9           0        3.400000    0.000000    0.000000
 ---------------------------------------------------------------------

 SCF Done:  E(UB3LYP) =  -100.759400519     a.u. after   26 cycles

 Alpha  occ. eigenvalues --  -24.75200  -1.21177  -0.54323  -0.45610  -0.45610
 Alpha  occ. eigenvalues --   -0.32378
 Alpha virt. eigenvalues --   -0.07244   0.24297   0.36747   0.87931   0.91596
 Alpha virt. eigenvalues --    0.91596   1.02104   1.25128   1.25128   1.25311
 Alpha virt. eigenvalues --    1.44959   1.44959   1.44980   2.15058   2.41019

  Beta  occ. eigenvalues --  -24.72098  -1.12267  -0.42502  -0.42502  -0.32963
  Beta virt. eigenvalues --   -0.25387  -0.06574   0.24067   0.37843   0.93081
  Beta virt. eigenvalues --    0.93081   0.96998   1.06072   1.24454   1.24454
  Beta virt. eigenvalues --    1.24620   1.45773   1.46016   1.46016   2.15327

 Mulliken charges and spin densities:
               1          2
     1  H    0.014787  -0.981101
     2  H    0.000252   0.997619
     3  F   -0.015039   0.983482
 Sum of Mulliken charges =  -0.00000   1.00000

 Dipole moment (field-independent basis, Debye):
    X=             -0.2671    Y=              0.0000    Z=             -0.0000  Tot=              0.2671
 Quadrupole moment (field-independent basis, Debye-Ang):
   XX=             -7.5467   YY=             -7.6213   ZZ=             -7.6213
   XY=             -0.0000   XZ=              0.0000   YZ=              0.0000

  Exact polarizability:      26.277      -0.000       2.032       0.000      -0.000       2.032
 Approx polarizability:      21.686      -0.000       1.932       0.000      -0.000       1.932

 ******    2 imaginary frequencies (negative Signs) ******

                      1                      2                      3
                      A                      A                      A
 Frequencies --   -269.6268              -111.8292                87.2223
 Red. masses --      1.0296                 1.0834                 1.0181
 Frc consts  --      0.0441                 0.0080                 0.0046
 IR Inten    --     14.4260                 1.4919                 0.1961

                      4
                      A
 Frequencies --     87.2223
 Red. masses --      1.0181
 Frc consts  --      0.0046
 IR Inten    --      0.1961

 - Thermochemistry -
 -------------------
 Temperature   298.150 Kelvin.  Pressure   1.00000 Atm.
 Atom     1 has atomic number  1 and mass   1.00783

 Molecular mass:    21.01405 amu.
 Principal axes and moments of inertia in atomic units:
                           1         2         3
     Eigenvalues --     0.00000 192.34450 192.34450
           X            1.00000  -0.00000   0.00000
           Y            0.00000   1.00000   0.00000
           Z            0.00000   0.00000   1.00000
 This molecule is a prolate symmetric top.
 Rotational symmetry number  1.
 Rotational temperature (Kelvin)      0.45031
 Rotational constant (GHZ):           9.382858
    2 imaginary frequencies ignored.
 Zero-point vibrational energy       1043.4 (Joules/Mol)
                                    0.24938 (Kcal/Mol)
 Warning -- explicit consideration of   2 degrees of freedom as
           vibrations may cause significant error
 Vibrational temperatures:    125.49   125.49
          (Kelvin)

 Zero-point correction=                           0.000397 (Hartree/Particle)
 Thermal correction to Energy=                    0.004277
 Thermal correction to Enthalpy=                  0.005221
 Thermal correction to Gibbs Free Energy=        -0.022709
 Sum of electronic and zero-point Energies=           -100.759003
 Sum of electronic and thermal Energies=              -100.755124
 Sum of electronic and thermal Enthalpies=            -100.754180
 Sum of electronic and thermal Free Energies=         -100.782110

                     E (Thermal)             CV                S
                      KCal/Mol        Cal/Mol-Kelvin    Cal/Mol-Kelvin
 Total                    2.684              8.884             58.783
 Electronic               0.000              0.000              1.377
 Translational            0.889              2.981             35.068
 Rotational               0.592              1.987             14.895
 Vibrational              1.202              3.916              7.443
 Vibration     1          0.601              1.958              3.721
 Vibration     2          0.601              1.958              3.721

 Normal termination of Gaussian 16 at Fri Aug 22 21:18:36 2025.
