 Gaussian 16, Revision C.01,
 Gaussian 16:  ES64L-G16RevC.01  3-Jul-2019

 -----------------------------------------
 # sp b3lyp/6-311g** Force nosymm scf=(qc)
 -----------------------------------------

 -------------------
 Title Card Required
 -------------------
 Symbolic Z-matrix:
 Charge =  0 Multiplicity = 2

                          Input orientation:
 ---------------------------------------------------------------------
 Center     Atomic      Atomic             Coordinates (Angstroms)
 Number     Number       Type             X           Y           Z
 ---------------------------------------------------------------------
      1          1           0        0.000000    0.000000    0.000000
      2          1           0       -3.700000    0.000000    0.000000
      3          9           0        0.500000    0.000000    0.000000
 ---------------------------------------------------------------------

 SCF Done:  E(UB3LYP) =  -100.268962322     a.u. after    6 cycles

 Alpha  occ. eigenvalues --  -24.63031  -1.42356  -0.63507  -0.44337  -0.44337
 Alpha  occ. eigenvalues --   -0.33142
 Alpha virt. eigenvalues --    0.08030   0.24851   0.62073   0.88991   0.90148
 Alpha virt. eigenvalues --    0.90148   1.24228   1.24364   1.24364   1.36454
 Alpha virt. eigenvalues --    1.58513   1.58513   2.00239   2.14682   3.76630

  Beta  occ. eigenvalues --  -24.63031  -1.42355  -0.63507  -0.44337  -0.44337
  Beta virt. eigenvalues --   -0.05162   0.08322   0.38910   0.62063   0.88988
  Beta virt. eigenvalues --    0.90147   0.90147   1.36022   1.48724   1.49253
  Beta virt. eigenvalues --    1.49253   1.58514   1.58514   2.00194   2.45917

 Mulliken charges and spin densities:
               1          2
     1  H    0.126584   0.000320
     2  H    0.000500   0.999443
     3  F   -0.127084   0.000237
 Sum of Mulliken charges =   0.00000   1.00000

 Dipole moment (field-independent basis, Debye):
    X=             -1.2975    Y=              0.0000    Z=             -0.0000  Tot=              1.2975
 Quadrupole moment (field-independent basis, Debye-Ang):
   XX=             -6.6659   YY=             -6.4388   ZZ=             -6.4388
   XY=              0.0000   XZ=             -0.0000   YZ=              0.0000

  Exact polarizability:       2.907      -0.000       2.412       0.000      -0.000       2.412
 Approx polarizability:       3.078      -0.000       2.388      -0.000      -0.000       2.388

 ******    3 imaginary frequencies (negative Signs) ******

                      1                      2                      3
                      A                      A                      A
 Frequencies --  -9604.5325             -9604.5325               -28.0208
 Red. masses --      1.0465                 1.0465                 1.0532
 Frc consts  --     56.8768                56.8768                 0.0005
 IR Inten    --    285.0344               285.0344                 0.0134

                      4
                      A
 Frequencies --  19159.4006
 Red. masses --      1.0583
 Frc consts  --    228.8901
 IR Inten    --     76.3012

 - Thermochemistry -
 -------------------
 Temperature   298.150 Kelvin.  Pressure   1.00000 Atm.
 Atom     1 has atomic number  1 and mass   1.00783

 Molecular mass:    21.01405 amu.
 Principal axes and moments of inertia in atomic units:
                           1         2         3
     Eigenvalues --     0.00000  60.57338  60.57338
           X            1.00000  -0.00000   0.00000
           Y            0.00000   1.00000   0.00000
           Z            0.00000   0.00000   1.00000
 This molecule is a prolate symmetric top.
 Rotational symmetry number  1.
 Rotational temperature (Kelvin)      1.42990
 Rotational constant (GHZ):          29.794298
    3 imaginary frequencies ignored.
 Zero-point vibrational energy     114598.7 (Joules/Mol)
                                   27.38974 (Kcal/Mol)
 Vibrational temperatures:  27566.10
          (Kelvin)

 Zero-point correction=                           0.043648 (Hartree/Particle)
 Thermal correction to Energy=                    0.046009
 Thermal correction to Enthalpy=                  0.046953
 Thermal correction to Gibbs Free Energy=         0.023650
 Sum of electronic and zero-point Energies=           -100.225314
 Sum of electronic and thermal Energies=              -100.222954
 Sum of electronic and thermal Enthalpies=            -100.222009
 Sum of electronic and thermal Free Energies=         -100.245312

                     E (Thermal)             CV                S
                      KCal/Mol        Cal/Mol-Kelvin    Cal/Mol-Kelvin
 Total                   28.871              4.968             49.044
 Electronic               0.000              0.000              1.377
 Translational            0.889              2.981             35.068
 Rotational               0.592              1.987             12.599
 Vibrational             27.390              0.000              0.000

 Normal termination of Gaussian 16 at Fri Aug 22 15:38:03 2025.
