 Gaussian 16, Revision C.01,
 Gaussian 16:  ES64L-G16RevC.01  3-Jul-2019

 -----------------------------------------
 # sp b3lyp/6-311g** Force nosymm scf=(qc)
 -----------------------------------------

 -------------------
 Title Card Required
 -------------------
 Symbolic Z-matrix:
 Charge =  0 Multiplicity = 2

                          Input orientation:
 ---------------------------------------------------------------------
 Center     Atomic      Atomic             Coordinates (Angstroms)
 Number     Number       Type             X           Y           Z
 ---------------------------------------------------------------------
      1          1           0        0.000000    0.000000    0.000000
      2          1           0       -2.300000    0.000000    0.000000
      3          9           0        0.700000    0.000000    0.000000
 ---------------------------------------------------------------------

 SCF Done:  E(UB3LYP) =  -100.874908756     a.u. after    6 cycles

 Alpha  occ. eigenvalues --  -24.63123  -1.28157  -0.58584  -0.41688  -0.41688
 Alpha  occ. eigenvalues --   -0.34791
 Alpha virt. eigenvalues --    0.08634   0.25250   0.51665   0.93553   0.93553
 Alpha virt. eigenvalues --    0.95764   1.16041   1.22757   1.22757   1.44133
 Alpha virt. eigenvalues --    1.44133   1.48257   1.96740   2.15726   2.86649

  Beta  occ. eigenvalues --  -24.63108  -1.28114  -0.58522  -0.41677  -0.41677
  Beta virt. eigenvalues --   -0.09154   0.10148   0.37399   0.51407   0.93549
  Beta virt. eigenvalues --    0.93549   0.95977   1.27039   1.43745   1.43745
  Beta virt. eigenvalues --    1.44546   1.44546   1.59961   1.97737   2.43238

 Mulliken charges and spin densities:
               1          2
     1  H    0.254379   0.005328
     2  H    0.006450   0.990409
     3  F   -0.260829   0.004263
 Sum of Mulliken charges =   0.00000   1.00000

 Dipole moment (field-independent basis, Debye):
    X=             -1.6545    Y=              0.0000    Z=             -0.0000  Tot=              1.6545
 Quadrupole moment (field-independent basis, Debye-Ang):
   XX=             -7.0730   YY=             -6.6492   ZZ=             -6.6492
   XY=              0.0000   XZ=             -0.0000   YZ=              0.0000

  Exact polarizability:       5.898       0.000       2.483       0.000      -0.000       2.483
 Approx polarizability:       5.956      -0.000       2.470       0.000      -0.000       2.470

 ******    2 imaginary frequencies (negative Signs) ******

                      1                      2                      3
                      A                      A                      A
 Frequencies --  -3518.6887             -3518.6887               179.0375
 Red. masses --      1.0360                 1.0360                 1.0533
 Frc consts  --      7.5574                 7.5574                 0.0199
 IR Inten    --    193.2210               193.2210                 0.2648

                      4
                      A
 Frequencies --   9071.5158
 Red. masses --      1.0583
 Frc consts  --     51.3124
 IR Inten    --    128.0679

 - Thermochemistry -
 -------------------
 Temperature   298.150 Kelvin.  Pressure   1.00000 Atm.
 Atom     1 has atomic number  1 and mass   1.00783

 Molecular mass:    21.01405 amu.
 Principal axes and moments of inertia in atomic units:
                           1         2         3
     Eigenvalues --     0.00000  31.79160  31.79160
           X            1.00000  -0.00000   0.00000
           Y            0.00000   1.00000   0.00000
           Z            0.00000   0.00000   1.00000
 This molecule is a prolate symmetric top.
 Rotational symmetry number  1.
 Rotational temperature (Kelvin)      2.72443
 Rotational constant (GHZ):          56.767859
    2 imaginary frequencies ignored.
 Zero-point vibrational energy      55330.6 (Joules/Mol)
                                   13.22433 (Kcal/Mol)
 Warning -- explicit consideration of   1 degrees of freedom as
           vibrations may cause significant error
 Vibrational temperatures:    257.59 13051.89
          (Kelvin)

 Zero-point correction=                           0.021074 (Hartree/Particle)
 Thermal correction to Energy=                    0.024029
 Thermal correction to Enthalpy=                  0.024973
 Thermal correction to Gibbs Free Energy=         0.001168
 Sum of electronic and zero-point Energies=           -100.853834
 Sum of electronic and thermal Energies=              -100.850880
 Sum of electronic and thermal Enthalpies=            -100.849935
 Sum of electronic and thermal Free Energies=         -100.873740

                     E (Thermal)             CV                S
                      KCal/Mol        Cal/Mol-Kelvin    Cal/Mol-Kelvin
 Total                   15.078              6.836             50.102
 Electronic               0.000              0.000              1.377
 Translational            0.889              2.981             35.068
 Rotational               0.592              1.987             11.318
 Vibrational             13.597              1.868              2.338
 Vibration     1          0.629              1.868              2.338

 Normal termination of Gaussian 16 at Fri Aug 22 15:46:38 2025.
