 Gaussian 16, Revision C.01,
 Gaussian 16:  ES64L-G16RevC.01  3-Jul-2019

 -----------------------------------------
 # sp b3lyp/6-311g** Force nosymm scf=(qc)
 -----------------------------------------

 -------------------
 Title Card Required
 -------------------
 Symbolic Z-matrix:
 Charge =  0 Multiplicity = 2

                          Input orientation:
 ---------------------------------------------------------------------
 Center     Atomic      Atomic             Coordinates (Angstroms)
 Number     Number       Type             X           Y           Z
 ---------------------------------------------------------------------
      1          1           0        0.000000    0.000000    0.000000
      2          1           0       -2.450000    0.000000    0.000000
      3          9           0        3.000000    0.000000    0.000000
 ---------------------------------------------------------------------

 SCF Done:  E(UB3LYP) =  -100.765406001     a.u. after   22 cycles

 Alpha  occ. eigenvalues --  -24.74164  -1.20214  -0.53281  -0.44738  -0.44738
 Alpha  occ. eigenvalues --   -0.33126
 Alpha virt. eigenvalues --   -0.10601   0.25406   0.33447   0.89542   0.92231
 Alpha virt. eigenvalues --    0.92231   1.03952   1.24549   1.24549   1.26351
 Alpha virt. eigenvalues --    1.39649   1.39649   1.41813   2.15171   2.36177

  Beta  occ. eigenvalues --  -24.71133  -1.11527  -0.41704  -0.41704  -0.33804
  Beta virt. eigenvalues --   -0.24838  -0.09449   0.25591   0.34658   0.93693
  Beta virt. eigenvalues --    0.93693   0.98313   1.07861   1.23726   1.23726
  Beta virt. eigenvalues --    1.25368   1.41516   1.41516   1.43585   2.16188

 Mulliken charges and spin densities:
               1          2
     1  H    0.029198  -0.926248
     2  H    0.006307   0.965859
     3  F   -0.035505   0.960389
 Sum of Mulliken charges =  -0.00000   1.00000

 Dipole moment (field-independent basis, Debye):
    X=             -0.6202    Y=             -0.0000    Z=              0.0000  Tot=              0.6202
 Quadrupole moment (field-independent basis, Debye-Ang):
   XX=             -7.8921   YY=             -7.6565   ZZ=             -7.6565
   XY=              0.0000   XZ=             -0.0000   YZ=             -0.0000

  Exact polarizability:      45.234       0.000       2.013      -0.000       0.000       2.013
 Approx polarizability:      40.326       0.000       1.922      -0.000      -0.000       1.922

 ******    2 imaginary frequencies (negative Signs) ******

                      1                      2                      3
                      A                      A                      A
 Frequencies --   -749.4061              -237.5827               281.6060
 Red. masses --      1.0095                 1.1065                 1.0157
 Frc consts  --      0.3340                 0.0368                 0.0475
 IR Inten    --     22.4657                20.4592                 0.6402

                      4
                      A
 Frequencies --    281.6060
 Red. masses --      1.0157
 Frc consts  --      0.0475
 IR Inten    --      0.6402

 - Thermochemistry -
 -------------------
 Temperature   298.150 Kelvin.  Pressure   1.00000 Atm.
 Atom     1 has atomic number  1 and mass   1.00783

 Molecular mass:    21.01405 amu.
 Principal axes and moments of inertia in atomic units:
                           1         2         3
     Eigenvalues --     0.00000 126.96606 126.96606
           X            1.00000  -0.00000   0.00000
           Y            0.00000   1.00000   0.00000
           Z            0.00000   0.00000   1.00000
 This molecule is a prolate symmetric top.
 Rotational symmetry number  1.
 Rotational temperature (Kelvin)      0.68218
 Rotational constant (GHZ):          14.214359
    2 imaginary frequencies ignored.
 Zero-point vibrational energy       3368.8 (Joules/Mol)
                                    0.80515 (Kcal/Mol)
 Warning -- explicit consideration of   2 degrees of freedom as
           vibrations may cause significant error
 Vibrational temperatures:    405.17   405.17
          (Kelvin)

 Zero-point correction=                           0.001283 (Hartree/Particle)
 Thermal correction to Energy=                    0.004531
 Thermal correction to Enthalpy=                  0.005475
 Thermal correction to Gibbs Free Energy=        -0.019974
 Sum of electronic and zero-point Energies=           -100.764123
 Sum of electronic and thermal Energies=              -100.760875
 Sum of electronic and thermal Enthalpies=            -100.759931
 Sum of electronic and thermal Free Energies=         -100.785380

                     E (Thermal)             CV                S
                      KCal/Mol        Cal/Mol-Kelvin    Cal/Mol-Kelvin
 Total                    2.843              8.383             53.563
 Electronic               0.000              0.000              1.377
 Translational            0.889              2.981             35.068
 Rotational               0.592              1.987             14.070
 Vibrational              1.362              3.415              3.048
 Vibration     1          0.681              1.708              1.524
 Vibration     2          0.681              1.708              1.524

 Normal termination of Gaussian 16 at Fri Aug 22 19:32:00 2025.
