 Gaussian 16, Revision C.01,
 Gaussian 16:  ES64L-G16RevC.01  3-Jul-2019

 -----------------------------------------
 # sp b3lyp/6-311g** Force nosymm scf=(qc)
 -----------------------------------------

 -------------------
 Title Card Required
 -------------------
 Symbolic Z-matrix:
 Charge =  0 Multiplicity = 2

                          Input orientation:
 ---------------------------------------------------------------------
 Center     Atomic      Atomic             Coordinates (Angstroms)
 Number     Number       Type             X           Y           Z
 ---------------------------------------------------------------------
      1          1           0        0.000000    0.000000    0.000000
      2          1           0       -3.700000    0.000000    0.000000
      3          9           0        2.850000    0.000000    0.000000
 ---------------------------------------------------------------------

 SCF Done:  E(UB3LYP) =  -100.762162646     a.u. after   22 cycles

 Alpha  occ. eigenvalues --  -24.73492  -1.19595  -0.52610  -0.44178  -0.44178
 Alpha  occ. eigenvalues --   -0.32581
 Alpha virt. eigenvalues --   -0.08503   0.23794   0.36014   0.89761   0.92628
 Alpha virt. eigenvalues --    0.92628   1.04750   1.24921   1.24921   1.24994
 Alpha virt. eigenvalues --    1.43367   1.43367   1.44165   2.14493   2.39676

  Beta  occ. eigenvalues --  -24.70507  -1.11053  -0.41193  -0.41193  -0.34132
  Beta virt. eigenvalues --   -0.24429  -0.06303   0.23847   0.38051   0.94075
  Beta virt. eigenvalues --    0.94075   0.98134   1.08243   1.23179   1.23179
  Beta virt. eigenvalues --    1.24313   1.46170   1.46393   1.46393   2.14242

 Mulliken charges and spin densities:
               1          2
     1  H    0.049316  -0.944105
     2  H    0.000335   0.998746
     3  F   -0.049651   0.945360
 Sum of Mulliken charges =  -0.00000   1.00000

 Dipole moment (field-independent basis, Debye):
    X=             -0.7316    Y=             -0.0000    Z=             -0.0000  Tot=              0.7316
 Quadrupole moment (field-independent basis, Debye-Ang):
   XX=             -8.6367   YY=             -7.5991   ZZ=             -7.5991
   XY=             -0.0000   XZ=             -0.0000   YZ=             -0.0000

  Exact polarizability:      31.750      -0.000       2.025      -0.000      -0.000       2.025
 Approx polarizability:      35.010      -0.000       1.924      -0.000       0.000       1.924

 ******    2 imaginary frequencies (negative Signs) ******

                      1                      2                      3
                      A                      A                      A
 Frequencies --   -430.0802               -96.4959               155.0395
 Red. masses --      1.0527                 1.0588                 1.0214
 Frc consts  --      0.1147                 0.0058                 0.0145
 IR Inten    --     50.9017                 0.2042                 2.3283

                      4
                      A
 Frequencies --    155.0396
 Red. masses --      1.0214
 Frc consts  --      0.0145
 IR Inten    --      2.3283

 - Thermochemistry -
 -------------------
 Temperature   298.150 Kelvin.  Pressure   1.00000 Atm.
 Atom     1 has atomic number  1 and mass   1.00783

 Molecular mass:    21.01405 amu.
 Principal axes and moments of inertia in atomic units:
                           1         2         3
     Eigenvalues --     0.00000 168.38786 168.38786
           X            1.00000  -0.00000   0.00000
           Y            0.00000   1.00000   0.00000
           Z            0.00000   0.00000   1.00000
 This molecule is a prolate symmetric top.
 Rotational symmetry number  1.
 Rotational temperature (Kelvin)      0.51437
 Rotational constant (GHZ):          10.717763
    2 imaginary frequencies ignored.
 Zero-point vibrational energy       1854.7 (Joules/Mol)
                                    0.44328 (Kcal/Mol)
 Warning -- explicit consideration of   2 degrees of freedom as
           vibrations may cause significant error
 Vibrational temperatures:    223.07   223.07
          (Kelvin)

 Zero-point correction=                           0.000706 (Hartree/Particle)
 Thermal correction to Energy=                    0.004336
 Thermal correction to Enthalpy=                  0.005280
 Thermal correction to Gibbs Free Energy=        -0.021467
 Sum of electronic and zero-point Energies=           -100.761456
 Sum of electronic and thermal Energies=              -100.757827
 Sum of electronic and thermal Enthalpies=            -100.756882
 Sum of electronic and thermal Free Energies=         -100.783630

                     E (Thermal)             CV                S
                      KCal/Mol        Cal/Mol-Kelvin    Cal/Mol-Kelvin
 Total                    2.721              8.762             56.295
 Electronic               0.000              0.000              1.377
 Translational            0.889              2.981             35.068
 Rotational               0.592              1.987             14.631
 Vibrational              1.240              3.794              5.219
 Vibration     1          0.620              1.897              2.609
 Vibration     2          0.620              1.897              2.609

 Normal termination of Gaussian 16 at Fri Aug 22 18:55:08 2025.
