 Gaussian 16, Revision C.01,
 Gaussian 16:  ES64L-G16RevC.01  3-Jul-2019

 -----------------------------------------
 # sp b3lyp/6-311g** Force nosymm scf=(qc)
 -----------------------------------------

 -------------------
 Title Card Required
 -------------------
 Symbolic Z-matrix:
 Charge =  0 Multiplicity = 2

                          Input orientation:
 ---------------------------------------------------------------------
 Center     Atomic      Atomic             Coordinates (Angstroms)
 Number     Number       Type             X           Y           Z
 ---------------------------------------------------------------------
      1          1           0        0.000000    0.000000    0.000000
      2          1           0       -3.250000    0.000000    0.000000
      3          9           0        2.000000    0.000000    0.000000
 ---------------------------------------------------------------------

 SCF Done:  E(UB3LYP) =  -100.787549725     a.u. after   16 cycles

 Alpha  occ. eigenvalues --  -24.68234  -1.14552  -0.47214  -0.39765  -0.39765
 Alpha  occ. eigenvalues --   -0.33656
 Alpha virt. eigenvalues --   -0.13706   0.22560   0.31907   0.89055   0.94855
 Alpha virt. eigenvalues --    0.94855   1.05807   1.23870   1.23870   1.24188
 Alpha virt. eigenvalues --    1.35406   1.35406   1.60449   2.14198   2.29570

  Beta  occ. eigenvalues --  -24.65862  -1.07922  -0.37922  -0.37427  -0.37427
  Beta virt. eigenvalues --   -0.20757  -0.07528   0.22960   0.37456   0.90527
  Beta virt. eigenvalues --    0.95492   0.95492   1.08219   1.21991   1.21991
  Beta virt. eigenvalues --    1.44622   1.45194   1.45194   1.53648   2.12287

 Mulliken charges and spin densities:
               1          2
     1  H    0.190476  -0.741525
     2  H    0.003040   0.995557
     3  F   -0.193516   0.745968
 Sum of Mulliken charges =  -0.00000   1.00000

 Dipole moment (field-independent basis, Debye):
    X=             -1.9601    Y=             -0.0000    Z=              0.0000  Tot=              1.9601
 Quadrupole moment (field-independent basis, Debye-Ang):
   XX=             -9.9407   YY=             -7.4937   ZZ=             -7.4937
   XY=              0.0000   XZ=             -0.0000   YZ=              0.0000

  Exact polarizability:      27.343       0.000       2.061      -0.000      -0.000       2.061
 Approx polarizability:      38.316       0.000       1.947      -0.000      -0.000       1.947

 ******    2 imaginary frequencies (negative Signs) ******

                      1                      2                      3
                      A                      A                      A
 Frequencies --  -1136.2296              -161.8019               479.6517
 Red. masses --      1.0561                 1.0555                 1.0248
 Frc consts  --      0.8033                 0.0163                 0.1389
 IR Inten    --    119.0248                 0.7986                33.3899

                      4
                      A
 Frequencies --    479.6517
 Red. masses --      1.0248
 Frc consts  --      0.1389
 IR Inten    --     33.3899

 - Thermochemistry -
 -------------------
 Temperature   298.150 Kelvin.  Pressure   1.00000 Atm.
 Atom     1 has atomic number  1 and mass   1.00783

 Molecular mass:    21.01405 amu.
 Principal axes and moments of inertia in atomic units:
                           1         2         3
     Eigenvalues --     0.00000 104.52106 104.52106
           X            1.00000  -0.00000   0.00000
           Y            0.00000   1.00000   0.00000
           Z            0.00000   0.00000   1.00000
 This molecule is a prolate symmetric top.
 Rotational symmetry number  1.
 Rotational temperature (Kelvin)      0.82867
 Rotational constant (GHZ):          17.266772
    2 imaginary frequencies ignored.
 Zero-point vibrational energy       5737.9 (Joules/Mol)
                                    1.37139 (Kcal/Mol)
 Warning -- explicit consideration of   2 degrees of freedom as
           vibrations may cause significant error
 Vibrational temperatures:    690.11   690.11
          (Kelvin)

 Zero-point correction=                           0.002185 (Hartree/Particle)
 Thermal correction to Energy=                    0.005025
 Thermal correction to Enthalpy=                  0.005969
 Thermal correction to Gibbs Free Energy=        -0.018524
 Sum of electronic and zero-point Energies=           -100.785364
 Sum of electronic and thermal Energies=              -100.782525
 Sum of electronic and thermal Enthalpies=            -100.781580
 Sum of electronic and thermal Free Energies=         -100.806074

                     E (Thermal)             CV                S
                      KCal/Mol        Cal/Mol-Kelvin    Cal/Mol-Kelvin
 Total                    3.153              7.558             51.550
 Electronic               0.000              0.000              1.377
 Translational            0.889              2.981             35.068
 Rotational               0.592              1.987             13.683
 Vibrational              1.672              2.590              1.422
 Vibration     1          0.836              1.295              0.711
 Vibration     2          0.836              1.295              0.711

 Normal termination of Gaussian 16 at Fri Aug 22 16:57:35 2025.
