 Gaussian 16, Revision C.01,
 Gaussian 16:  ES64L-G16RevC.01  3-Jul-2019

 -----------------------------------------
 # sp b3lyp/6-311g** Force nosymm scf=(qc)
 -----------------------------------------

 -------------------
 Title Card Required
 -------------------
 Symbolic Z-matrix:
 Charge =  0 Multiplicity = 2

                          Input orientation:
 ---------------------------------------------------------------------
 Center     Atomic      Atomic             Coordinates (Angstroms)
 Number     Number       Type             X           Y           Z
 ---------------------------------------------------------------------
      1          1           0        0.000000    0.000000    0.000000
      2          1           0       -3.250000    0.000000    0.000000
      3          9           0        2.450000    0.000000    0.000000
 ---------------------------------------------------------------------

 SCF Done:  E(UB3LYP) =  -100.768916450     a.u. after   17 cycles

 Alpha  occ. eigenvalues --  -24.71442  -1.17674  -0.50539  -0.42461  -0.42461
 Alpha  occ. eigenvalues --   -0.33081
 Alpha virt. eigenvalues --   -0.10765   0.23638   0.34814   0.89558   0.93769
 Alpha virt. eigenvalues --    0.93769   1.06401   1.24441   1.24441   1.24856
 Alpha virt. eigenvalues --    1.40059   1.40059   1.45231   2.14742   2.35278

  Beta  occ. eigenvalues --  -24.68628  -1.09675  -0.39658  -0.39658  -0.35569
  Beta virt. eigenvalues --   -0.23146  -0.07276   0.24181   0.37439   0.95107
  Beta virt. eigenvalues --    0.95107   0.95482   1.08644   1.21967   1.21967
  Beta virt. eigenvalues --    1.31238   1.45159   1.45355   1.45355   2.13081

 Mulliken charges and spin densities:
               1          2
     1  H    0.096043  -0.884648
     2  H    0.001797   0.996061
     3  F   -0.097840   0.888587
 Sum of Mulliken charges =  -0.00000   1.00000

 Dipole moment (field-independent basis, Debye):
    X=             -1.2450    Y=             -0.0000    Z=             -0.0000  Tot=              1.2450
 Quadrupole moment (field-independent basis, Debye-Ang):
   XX=             -9.3321   YY=             -7.5699   ZZ=             -7.5699
   XY=             -0.0000   XZ=             -0.0000   YZ=              0.0000

  Exact polarizability:      31.826      -0.000       2.026      -0.000      -0.000       2.026
 Approx polarizability:      39.902       0.000       1.920      -0.000      -0.000       1.920

 ******    2 imaginary frequencies (negative Signs) ******

                      1                      2                      3
                      A                      A                      A
 Frequencies --   -662.0705              -161.2963               261.9204
 Red. masses --      1.0516                 1.0600                 1.0217
 Frc consts  --      0.2716                 0.0162                 0.0413
 IR Inten    --     83.4392                 0.9109                 8.6394

                      4
                      A
 Frequencies --    261.9204
 Red. masses --      1.0217
 Frc consts  --      0.0413
 IR Inten    --      8.6394

 - Thermochemistry -
 -------------------
 Temperature   298.150 Kelvin.  Pressure   1.00000 Atm.
 Atom     1 has atomic number  1 and mass   1.00783

 Molecular mass:    21.01405 amu.
 Principal axes and moments of inertia in atomic units:
                           1         2         3
     Eigenvalues --     0.00000 127.06985 127.06985
           X            1.00000  -0.00000   0.00000
           Y            0.00000   1.00000   0.00000
           Z            0.00000   0.00000   1.00000
 This molecule is a prolate symmetric top.
 Rotational symmetry number  1.
 Rotational temperature (Kelvin)      0.68162
 Rotational constant (GHZ):          14.202749
    2 imaginary frequencies ignored.
 Zero-point vibrational energy       3133.3 (Joules/Mol)
                                    0.74887 (Kcal/Mol)
 Warning -- explicit consideration of   2 degrees of freedom as
           vibrations may cause significant error
 Vibrational temperatures:    376.84   376.84
          (Kelvin)

 Zero-point correction=                           0.001193 (Hartree/Particle)
 Thermal correction to Energy=                    0.004494
 Thermal correction to Enthalpy=                  0.005438
 Thermal correction to Gibbs Free Energy=        -0.020131
 Sum of electronic and zero-point Energies=           -100.767723
 Sum of electronic and thermal Energies=              -100.764423
 Sum of electronic and thermal Enthalpies=            -100.763478
 Sum of electronic and thermal Free Energies=         -100.789047

                     E (Thermal)             CV                S
                      KCal/Mol        Cal/Mol-Kelvin    Cal/Mol-Kelvin
 Total                    2.820              8.453             53.814
 Electronic               0.000              0.000              1.377
 Translational            0.889              2.981             35.068
 Rotational               0.592              1.987             14.071
 Vibrational              1.339              3.485              3.298
 Vibration     1          0.669              1.743              1.649
 Vibration     2          0.669              1.743              1.649

 Normal termination of Gaussian 16 at Fri Aug 22 17:39:31 2025.
