 Gaussian 16, Revision C.01,
 Gaussian 16:  ES64L-G16RevC.01  3-Jul-2019

 -----------------------------------------
 # sp b3lyp/6-311g** Force nosymm scf=(qc)
 -----------------------------------------

 -------------------
 Title Card Required
 -------------------
 Symbolic Z-matrix:
 Charge =  0 Multiplicity = 2

                          Input orientation:
 ---------------------------------------------------------------------
 Center     Atomic      Atomic             Coordinates (Angstroms)
 Number     Number       Type             X           Y           Z
 ---------------------------------------------------------------------
      1          1           0        0.000000    0.000000    0.000000
      2          1           0       -1.550000    0.000000    0.000000
      3          9           0        1.500000    0.000000    0.000000
 ---------------------------------------------------------------------

 SCF Done:  E(UB3LYP) =  -100.874542081     a.u. after   12 cycles

 Alpha  occ. eigenvalues --  -24.64700  -1.11343  -0.46780  -0.38442  -0.37007
 Alpha  occ. eigenvalues --   -0.37007
 Alpha virt. eigenvalues --   -0.07389   0.21094   0.28802   0.93695   0.93695
 Alpha virt. eigenvalues --    0.95839   1.03451   1.15889   1.15889   1.39013
 Alpha virt. eigenvalues --    1.39013   1.46541   1.82939   2.17008   2.40295

  Beta  occ. eigenvalues --  -24.63354  -1.07743  -0.41507  -0.35721  -0.35721
  Beta virt. eigenvalues --   -0.21418  -0.04014   0.24455   0.30134   0.93717
  Beta virt. eigenvalues --    0.93717   1.00707   1.06304   1.23126   1.23126
  Beta virt. eigenvalues --    1.40717   1.40717   1.51883   1.86644   2.21094

 Mulliken charges and spin densities:
               1          2
     1  H    0.249953  -0.212074
     2  H    0.070919   0.794768
     3  F   -0.320871   0.417306
 Sum of Mulliken charges =   0.00000   1.00000

 Dipole moment (field-independent basis, Debye):
    X=             -2.8998    Y=             -0.0000    Z=              0.0000  Tot=              2.8998
 Quadrupole moment (field-independent basis, Debye-Ang):
   XX=             -8.2615   YY=             -7.2407   ZZ=             -7.2407
   XY=             -0.0000   XZ=              0.0000   YZ=             -0.0000

  Exact polarizability:      34.877      -0.000       2.288       0.000      -0.000       2.288
 Approx polarizability:      49.826      -0.000       2.229       0.000       0.000       2.229

 ******    2 imaginary frequencies (negative Signs) ******

                      1                      2                      3
                      A                      A                      A
 Frequencies --  -2544.0593              -438.2232              1047.6165
 Red. masses --      1.0242                 1.0894                 1.0183
 Frc consts  --      3.9054                 0.1233                 0.6585
 IR Inten    --    210.3355                 5.0666                32.0849

                      4
                      A
 Frequencies --   1047.6165
 Red. masses --      1.0183
 Frc consts  --      0.6585
 IR Inten    --     32.0849

 - Thermochemistry -
 -------------------
 Temperature   298.150 Kelvin.  Pressure   1.00000 Atm.
 Atom     1 has atomic number  1 and mass   1.00783

 Molecular mass:    21.01405 amu.
 Principal axes and moments of inertia in atomic units:
                           1         2         3
     Eigenvalues --     0.00000  38.00415  38.00415
           X            1.00000  -0.00000   0.00000
           Y            0.00000   1.00000   0.00000
           Z            0.00000   0.00000   1.00000
 This molecule is a prolate symmetric top.
 Rotational symmetry number  1.
 Rotational temperature (Kelvin)      2.27906
 Rotational constant (GHZ):          47.488001
    2 imaginary frequencies ignored.
 Zero-point vibrational energy      12532.3 (Joules/Mol)
                                    2.99529 (Kcal/Mol)
 Vibrational temperatures:   1507.29  1507.29
          (Kelvin)

 Zero-point correction=                           0.004773 (Hartree/Particle)
 Thermal correction to Energy=                    0.007195
 Thermal correction to Enthalpy=                  0.008139
 Thermal correction to Gibbs Free Energy=        -0.014797
 Sum of electronic and zero-point Energies=           -100.869769
 Sum of electronic and thermal Energies=              -100.867347
 Sum of electronic and thermal Enthalpies=            -100.866403
 Sum of electronic and thermal Free Energies=         -100.889339

                     E (Thermal)             CV                S
                      KCal/Mol        Cal/Mol-Kelvin    Cal/Mol-Kelvin
 Total                    4.515              5.624             48.272
 Electronic               0.000              0.000              1.377
 Translational            0.889              2.981             35.068
 Rotational               0.592              1.987             11.673
 Vibrational              3.034              0.656              0.154

 Normal termination of Gaussian 16 at Fri Aug 22 16:25:06 2025.
