 Gaussian 16, Revision C.01,
 Gaussian 16:  ES64L-G16RevC.01  3-Jul-2019

 -----------------------------------------
 # sp b3lyp/6-311g** Force nosymm scf=(qc)
 -----------------------------------------

 -------------------
 Title Card Required
 -------------------
 Symbolic Z-matrix:
 Charge =  0 Multiplicity = 2

                          Input orientation:
 ---------------------------------------------------------------------
 Center     Atomic      Atomic             Coordinates (Angstroms)
 Number     Number       Type             X           Y           Z
 ---------------------------------------------------------------------
      1          1           0        0.000000    0.000000    0.000000
      2          1           0       -1.800000    0.000000    0.000000
      3          9           0        3.650000    0.000000    0.000000
 ---------------------------------------------------------------------

 SCF Done:  E(UB3LYP) =  -100.786134526     a.u. after  214 cycles

 Alpha  occ. eigenvalues --  -24.76236  -1.22128  -0.55332  -0.46509  -0.46488
 Alpha  occ. eigenvalues --   -0.32901
 Alpha virt. eigenvalues --   -0.10642   0.25965   0.31527   0.86042   0.90919
 Alpha virt. eigenvalues --    0.91678   1.01083   1.10180   1.24736   1.24736
 Alpha virt. eigenvalues --    1.37848   1.37852   1.61550   2.15096   2.39689

  Beta  occ. eigenvalues --  -24.73082  -1.13057  -0.43353  -0.43325  -0.32881
  Beta virt. eigenvalues --   -0.25981  -0.10694   0.25941   0.31601   0.92421
  Beta virt. eigenvalues --    0.93125   0.95510   1.05191   1.10160   1.24735
  Beta virt. eigenvalues --    1.24739   1.37827   1.37828   1.61573   2.15386

 Mulliken charges and spin densities:
               1          2
     1  H    0.000454  -0.720869
     2  H   -0.002012   0.720907
     3  F    0.001558   0.999962
 Sum of Mulliken charges =   0.00000   1.00000

 Dipole moment (field-independent basis, Debye):
    X=              0.0342    Y=              0.0000    Z=             -0.0000  Tot=              0.0342
 Quadrupole moment (field-independent basis, Debye-Ang):
   XX=             -6.7241   YY=             -6.8958   ZZ=             -7.7603
   XY=              0.0000   XZ=             -0.0000   YZ=             -0.0012

  Exact polarizability:      23.629      -0.000       2.477      -0.000      -0.001       2.013
 Approx polarizability:      33.601      -0.000       2.544       0.000      -0.001       1.962

 ******    2 imaginary frequencies (negative Signs) ******

                      1                      2                      3
                      A                      A                      A
 Frequencies --  -1726.9111               -48.6741               773.6114
 Red. masses --      1.0078                 1.1085                 1.0116
 Frc consts  --      1.7708                 0.0015                 0.3567
 IR Inten    --      0.0131                 0.0910                 0.0015

                      4
                      A
 Frequencies --    774.1494
 Red. masses --      1.0116
 Frc consts  --      0.3572
 IR Inten    --      0.0009

 - Thermochemistry -
 -------------------
 Temperature   298.150 Kelvin.  Pressure   1.00000 Atm.
 Atom     1 has atomic number  1 and mass   1.00783

 Molecular mass:    21.01405 amu.
 Principal axes and moments of inertia in atomic units:
                           1         2         3
     Eigenvalues --     0.00000 140.55376 140.55376
           X            1.00000  -0.00000   0.00000
           Y            0.00000   1.00000   0.00000
           Z            0.00000   0.00000   1.00000
 This molecule is a prolate symmetric top.
 Rotational symmetry number  1.
 Rotational temperature (Kelvin)      0.61623
 Rotational constant (GHZ):          12.840220
    2 imaginary frequencies ignored.
 Zero-point vibrational energy       9257.7 (Joules/Mol)
                                    2.21264 (Kcal/Mol)
 Vibrational temperatures:   1113.05  1113.83
          (Kelvin)

 Zero-point correction=                           0.003526 (Hartree/Particle)
 Thermal correction to Energy=                    0.006059
 Thermal correction to Enthalpy=                  0.007003
 Thermal correction to Gibbs Free Energy=        -0.017312
 Sum of electronic and zero-point Energies=           -100.782608
 Sum of electronic and thermal Energies=              -100.780075
 Sum of electronic and thermal Enthalpies=            -100.779131
 Sum of electronic and thermal Free Energies=         -100.803447

                     E (Thermal)             CV                S
                      KCal/Mol        Cal/Mol-Kelvin    Cal/Mol-Kelvin
 Total                    3.802              6.358             51.176
 Electronic               0.000              0.000              1.377
 Translational            0.889              2.981             35.068
 Rotational               0.592              1.987             14.272
 Vibrational              2.321              1.390              0.459

 Normal termination of Gaussian 16 at Fri Aug 22 23:34:47 2025.
