 Gaussian 16, Revision C.01,
 Gaussian 16:  ES64L-G16RevC.01  3-Jul-2019

 -----------------------------------------
 # sp b3lyp/6-311g** Force nosymm scf=(qc)
 -----------------------------------------

 -------------------
 Title Card Required
 -------------------
 Symbolic Z-matrix:
 Charge =  0 Multiplicity = 2

                          Input orientation:
 ---------------------------------------------------------------------
 Center     Atomic      Atomic             Coordinates (Angstroms)
 Number     Number       Type             X           Y           Z
 ---------------------------------------------------------------------
      1          1           0        0.000000    0.000000    0.000000
      2          1           0       -1.250000    0.000000    0.000000
      3          9           0        3.650000    0.000000    0.000000
 ---------------------------------------------------------------------

 SCF Done:  E(UB3LYP) =  -100.862708085     a.u. after   63 cycles

 Alpha  occ. eigenvalues --  -24.76313  -1.22198  -0.55398  -0.46585  -0.46554
 Alpha  occ. eigenvalues --   -0.35781
 Alpha virt. eigenvalues --   -0.05128   0.23202   0.33399   0.85987   0.90864
 Alpha virt. eigenvalues --    0.91810   1.01125   1.14122   1.14125   1.18805
 Alpha virt. eigenvalues --    1.51877   1.51880   2.02950   2.30267   2.53798

  Beta  occ. eigenvalues --  -24.73157  -1.13122  -0.43421  -0.43389  -0.35779
  Beta virt. eigenvalues --   -0.26044  -0.05125   0.23208   0.33422   0.92364
  Beta virt. eigenvalues --    0.93305   0.95452   1.05252   1.14122   1.14125
  Beta virt. eigenvalues --    1.18811   1.51877   1.51879   2.02954   2.30268

 Mulliken charges and spin densities:
               1          2
     1  H    0.000576  -0.000097
     2  H   -0.002638  -0.000139
     3  F    0.002062   1.000236
 Sum of Mulliken charges =   0.00000   1.00000

 Dipole moment (field-independent basis, Debye):
    X=              0.0371    Y=              0.0000    Z=             -0.0000  Tot=              0.0371
 Quadrupole moment (field-independent basis, Debye-Ang):
   XX=             -6.2880   YY=             -7.1143   ZZ=             -7.1115
   XY=             -0.0000   XZ=             -0.0000   YZ=              0.4322

  Exact polarizability:      17.008      -0.000       2.308      -0.000       0.233       2.310
 Approx polarizability:      26.605      -0.000       2.387      -0.000       0.291       2.389

 ******    2 imaginary frequencies (negative Signs) ******

                      1                      2                      3
                      A                      A                      A
 Frequencies --   -790.2796               -57.1788              1435.5043
 Red. masses --      1.0078                 1.1085                 1.0099
 Frc consts  --      0.3708                 0.0021                 1.2262
 IR Inten    --      0.1149                 0.1054                 0.0012

                      4
                      A
 Frequencies --   1435.5356
 Red. masses --      1.0099
 Frc consts  --      1.2262
 IR Inten    --      0.0011

 - Thermochemistry -
 -------------------
 Temperature   298.150 Kelvin.  Pressure   1.00000 Atm.
 Atom     1 has atomic number  1 and mass   1.00783

 Molecular mass:    21.01405 amu.
 Principal axes and moments of inertia in atomic units:
                           1         2         3
     Eigenvalues --     0.00000 121.74199 121.74199
           X            1.00000  -0.00000   0.00000
           Y            0.00000   1.00000   0.00000
           Z            0.00000   0.00000   1.00000
 This molecule is a prolate symmetric top.
 Rotational symmetry number  1.
 Rotational temperature (Kelvin)      0.71145
 Rotational constant (GHZ):          14.824312
    2 imaginary frequencies ignored.
 Zero-point vibrational energy      17172.6 (Joules/Mol)
                                    4.10436 (Kcal/Mol)
 Vibrational temperatures:   2065.37  2065.42
          (Kelvin)

 Zero-point correction=                           0.006541 (Hartree/Particle)
 Thermal correction to Energy=                    0.008914
 Thermal correction to Enthalpy=                  0.009858
 Thermal correction to Gibbs Free Energy=        -0.014118
 Sum of electronic and zero-point Energies=           -100.856167
 Sum of electronic and thermal Energies=              -100.853794
 Sum of electronic and thermal Enthalpies=            -100.852850
 Sum of electronic and thermal Free Energies=         -100.876826

                     E (Thermal)             CV                S
                      KCal/Mol        Cal/Mol-Kelvin    Cal/Mol-Kelvin
 Total                    5.594              5.155             50.462
 Electronic               0.000              0.000              1.377
 Translational            0.889              2.981             35.068
 Rotational               0.592              1.987             13.986
 Vibrational              4.112              0.187              0.031

 Normal termination of Gaussian 16 at Fri Aug 22 23:24:02 2025.
