 Gaussian 16, Revision C.01,
 Gaussian 16:  ES64L-G16RevC.01  3-Jul-2019

 -----------------------------------------
 # sp b3lyp/6-311g** Force nosymm scf=(qc)
 -----------------------------------------

 -------------------
 Title Card Required
 -------------------
 Symbolic Z-matrix:
 Charge =  0 Multiplicity = 2

                          Input orientation:
 ---------------------------------------------------------------------
 Center     Atomic      Atomic             Coordinates (Angstroms)
 Number     Number       Type             X           Y           Z
 ---------------------------------------------------------------------
      1          1           0        0.000000    0.000000    0.000000
      2          1           0       -2.900000    0.000000    0.000000
      3          9           0        1.750000    0.000000    0.000000
 ---------------------------------------------------------------------

 SCF Done:  E(UB3LYP) =  -100.806294579     a.u. after   11 cycles

 Alpha  occ. eigenvalues --  -24.63920  -1.08436  -0.40347  -0.35682  -0.35682
 Alpha  occ. eigenvalues --   -0.34961
 Alpha virt. eigenvalues --   -0.19430   0.20765   0.27108   0.95163   0.95447
 Alpha virt. eigenvalues --    0.95447   1.07990   1.22484   1.22484   1.23274
 Alpha virt. eigenvalues --    1.26790   1.26790   1.68546   2.13221   2.15983

  Beta  occ. eigenvalues --  -24.63967  -1.08565  -0.40312  -0.35729  -0.35729
  Beta virt. eigenvalues --   -0.19675  -0.08312   0.23934   0.36576   0.95350
  Beta virt. eigenvalues --    0.95479   0.95479   1.08052   1.27259   1.27259
  Beta virt. eigenvalues --    1.43694   1.43882   1.43882   1.68983   2.16576

 Mulliken charges and spin densities:
               1          2
     1  H    0.311957   0.028062
     2  H    0.012421   0.987030
     3  F   -0.324379  -0.015093
 Sum of Mulliken charges =  -0.00000   1.00000

 Dipole moment (field-independent basis, Debye):
    X=             -2.9788    Y=             -0.0000    Z=             -0.0000  Tot=              2.9788
 Quadrupole moment (field-independent basis, Debye-Ang):
   XX=            -10.4507   YY=             -7.4442   ZZ=             -7.4442
   XY=             -0.0000   XZ=             -0.0000   YZ=              0.0000

  Exact polarizability:      27.619      -0.000       2.086      -0.000      -0.000       2.086
 Approx polarizability:      58.810       0.000       1.999       0.000      -0.000       1.999

 ******    2 imaginary frequencies (negative Signs) ******

                      1                      2                      3
                      A                      A                      A
 Frequencies --  -1206.5831              -188.5620               821.9923
 Red. masses --      1.0538                 1.0578                 1.0251
 Frc consts  --      0.9039                 0.0222                 0.4081
 IR Inten    --     98.6390                 4.6988                88.4550

                      4
                      A
 Frequencies --    821.9923
 Red. masses --      1.0251
 Frc consts  --      0.4081
 IR Inten    --     88.4550

 - Thermochemistry -
 -------------------
 Temperature   298.150 Kelvin.  Pressure   1.00000 Atm.
 Atom     1 has atomic number  1 and mass   1.00783

 Molecular mass:    21.01405 amu.
 Principal axes and moments of inertia in atomic units:
                           1         2         3
     Eigenvalues --     0.00000  81.77155  81.77155
           X            1.00000  -0.00000   0.00000
           Y            0.00000   1.00000   0.00000
           Z            0.00000   0.00000   1.00000
 This molecule is a prolate symmetric top.
 Rotational symmetry number  1.
 Rotational temperature (Kelvin)      1.05922
 Rotational constant (GHZ):          22.070528
    2 imaginary frequencies ignored.
 Zero-point vibrational energy       9833.2 (Joules/Mol)
                                    2.35019 (Kcal/Mol)
 Vibrational temperatures:   1182.66  1182.66
          (Kelvin)

 Zero-point correction=                           0.003745 (Hartree/Particle)
 Thermal correction to Energy=                    0.006250
 Thermal correction to Enthalpy=                  0.007195
 Thermal correction to Gibbs Free Energy=        -0.016572
 Sum of electronic and zero-point Energies=           -100.802549
 Sum of electronic and thermal Energies=              -100.800044
 Sum of electronic and thermal Enthalpies=            -100.799100
 Sum of electronic and thermal Free Energies=         -100.822867

                     E (Thermal)             CV                S
                      KCal/Mol        Cal/Mol-Kelvin    Cal/Mol-Kelvin
 Total                    3.922              6.198             50.021
 Electronic               0.000              0.000              1.377
 Translational            0.889              2.981             35.068
 Rotational               0.592              1.987             13.195
 Vibrational              2.441              1.230              0.380

 Normal termination of Gaussian 16 at Fri Aug 22 16:41:17 2025.
