 Gaussian 16, Revision C.01,
 Gaussian 16:  ES64L-G16RevC.01  3-Jul-2019

 -----------------------------------------
 # sp b3lyp/6-311g** Force nosymm scf=(qc)
 -----------------------------------------

 -------------------
 Title Card Required
 -------------------
 Symbolic Z-matrix:
 Charge =  0 Multiplicity = 2

                          Input orientation:
 ---------------------------------------------------------------------
 Center     Atomic      Atomic             Coordinates (Angstroms)
 Number     Number       Type             X           Y           Z
 ---------------------------------------------------------------------
      1          1           0        0.000000    0.000000    0.000000
      2          1           0       -3.350000    0.000000    0.000000
      3          9           0        3.200000    0.000000    0.000000
 ---------------------------------------------------------------------

 SCF Done:  E(UB3LYP) =  -100.760163269     a.u. after   21 cycles

 Alpha  occ. eigenvalues --  -24.74724  -1.20737  -0.53845  -0.45210  -0.45210
 Alpha  occ. eigenvalues --   -0.32478
 Alpha virt. eigenvalues --   -0.07817   0.24305   0.36226   0.88674   0.91889
 Alpha virt. eigenvalues --    0.91889   1.02878   1.25034   1.25034   1.25298
 Alpha virt. eigenvalues --    1.44230   1.44230   1.44384   2.15125   2.40469

  Beta  occ. eigenvalues --  -24.71653  -1.11925  -0.42134  -0.42134  -0.33303
  Beta virt. eigenvalues --   -0.25132  -0.06793   0.24133   0.37649   0.93364
  Beta virt. eigenvalues --    0.93364   0.97587   1.06753   1.24076   1.24076
  Beta virt. eigenvalues --    1.24364   1.45526   1.45775   1.45775   2.15484

 Mulliken charges and spin densities:
               1          2
     1  H    0.023790  -0.970344
     2  H    0.000474   0.996973
     3  F   -0.024263   0.973371
 Sum of Mulliken charges =  -0.00000   1.00000

 Dipole moment (field-independent basis, Debye):
    X=             -0.4066    Y=              0.0000    Z=             -0.0000  Tot=              0.4066
 Quadrupole moment (field-independent basis, Debye-Ang):
   XX=             -7.8881   YY=             -7.6191   ZZ=             -7.6191
   XY=              0.0000   XZ=             -0.0000   YZ=              0.0000

  Exact polarizability:      30.504       0.000       2.028      -0.000       0.000       2.028
 Approx polarizability:      27.693       0.000       1.929      -0.000      -0.000       1.929

 ******    2 imaginary frequencies (negative Signs) ******

                      1                      2                      3
                      A                      A                      A
 Frequencies --   -327.6231              -130.6203               113.1741
 Red. masses --      1.0338                 1.0787                 1.0185
 Frc consts  --      0.0654                 0.0108                 0.0077
 IR Inten    --     24.9775                 1.8391                 0.5141

                      4
                      A
 Frequencies --    113.1742
 Red. masses --      1.0185
 Frc consts  --      0.0077
 IR Inten    --      0.5141

 - Thermochemistry -
 -------------------
 Temperature   298.150 Kelvin.  Pressure   1.00000 Atm.
 Atom     1 has atomic number  1 and mass   1.00783

 Molecular mass:    21.01405 amu.
 Principal axes and moments of inertia in atomic units:
                           1         2         3
     Eigenvalues --     0.00000 174.85187 174.85187
           X            1.00000  -0.00000   0.00000
           Y            0.00000   1.00000   0.00000
           Z            0.00000   0.00000   1.00000
 This molecule is a prolate symmetric top.
 Rotational symmetry number  1.
 Rotational temperature (Kelvin)      0.49536
 Rotational constant (GHZ):          10.321544
    2 imaginary frequencies ignored.
 Zero-point vibrational energy       1353.9 (Joules/Mol)
                                    0.32358 (Kcal/Mol)
 Warning -- explicit consideration of   2 degrees of freedom as
           vibrations may cause significant error
 Vibrational temperatures:    162.83   162.83
          (Kelvin)

 Zero-point correction=                           0.000516 (Hartree/Particle)
 Thermal correction to Energy=                    0.004296
 Thermal correction to Enthalpy=                  0.005240
 Thermal correction to Gibbs Free Energy=        -0.022118
 Sum of electronic and zero-point Energies=           -100.759648
 Sum of electronic and thermal Energies=              -100.755868
 Sum of electronic and thermal Enthalpies=            -100.754924
 Sum of electronic and thermal Free Energies=         -100.782281

                     E (Thermal)             CV                S
                      KCal/Mol        Cal/Mol-Kelvin    Cal/Mol-Kelvin
 Total                    2.695              8.845             57.578
 Electronic               0.000              0.000              1.377
 Translational            0.889              2.981             35.068
 Rotational               0.592              1.987             14.705
 Vibrational              1.214              3.877              6.427
 Vibration     1          0.607              1.939              3.214
 Vibration     2          0.607              1.939              3.214

 Normal termination of Gaussian 16 at Fri Aug 22 20:24:45 2025.
