 Gaussian 16, Revision C.01,
 Gaussian 16:  ES64L-G16RevC.01  3-Jul-2019

 -----------------------------------------
 # sp b3lyp/6-311g** Force nosymm scf=(qc)
 -----------------------------------------

 -------------------
 Title Card Required
 -------------------
 Symbolic Z-matrix:
 Charge =  0 Multiplicity = 2

                          Input orientation:
 ---------------------------------------------------------------------
 Center     Atomic      Atomic             Coordinates (Angstroms)
 Number     Number       Type             X           Y           Z
 ---------------------------------------------------------------------
      1          1           0        0.000000    0.000000    0.000000
      2          1           0       -1.950000    0.000000    0.000000
      3          9           0        2.200000    0.000000    0.000000
 ---------------------------------------------------------------------

 SCF Done:  E(UB3LYP) =  -100.792519509     a.u. after   13 cycles

 Alpha  occ. eigenvalues --  -24.69838  -1.16134  -0.48940  -0.41095  -0.41095
 Alpha  occ. eigenvalues --   -0.35888
 Alpha virt. eigenvalues --   -0.13236   0.24216   0.31545   0.87897   0.94500
 Alpha virt. eigenvalues --    0.94500   1.04772   1.22010   1.22010   1.25237
 Alpha virt. eigenvalues --    1.34190   1.34190   1.54676   2.11022   2.33619

  Beta  occ. eigenvalues --  -24.67197  -1.08676  -0.38476  -0.38476  -0.36342
  Beta virt. eigenvalues --   -0.22470  -0.11810   0.26493   0.31513   0.92080
  Beta virt. eigenvalues --    0.95634   0.95634   1.08117   1.22550   1.22550
  Beta virt. eigenvalues --    1.32075   1.36116   1.36116   1.53609   2.11682

 Mulliken charges and spin densities:
               1          2
     1  H    0.095647  -0.688853
     2  H    0.041126   0.856918
     3  F   -0.136773   0.831935
 Sum of Mulliken charges =   0.00000   1.00000

 Dipole moment (field-independent basis, Debye):
    X=             -1.8977    Y=              0.0000    Z=             -0.0000  Tot=              1.8977
 Quadrupole moment (field-independent basis, Debye-Ang):
   XX=             -8.4528   YY=             -7.6071   ZZ=             -7.6071
   XY=              0.0000   XZ=             -0.0000   YZ=              0.0000

  Exact polarizability:      55.348       0.000       2.032      -0.000      -0.000       2.032
 Approx polarizability:      64.874      -0.000       1.948       0.000      -0.000       1.948

 ******    2 imaginary frequencies (negative Signs) ******

                      1                      2                      3
                      A                      A                      A
 Frequencies --  -1535.3183              -505.0293               633.3445
 Red. masses --      1.0121                 1.1033                 1.0165
 Frc consts  --      1.4057                 0.1658                 0.2402
 IR Inten    --    118.4479                48.3913                 5.1159

                      4
                      A
 Frequencies --    633.3445
 Red. masses --      1.0165
 Frc consts  --      0.2402
 IR Inten    --      5.1159

 - Thermochemistry -
 -------------------
 Temperature   298.150 Kelvin.  Pressure   1.00000 Atm.
 Atom     1 has atomic number  1 and mass   1.00783

 Molecular mass:    21.01405 amu.
 Principal axes and moments of inertia in atomic units:
                           1         2         3
     Eigenvalues --     0.00000  72.44318  72.44318
           X            1.00000  -0.00000   0.00000
           Y            0.00000   1.00000   0.00000
           Z            0.00000   0.00000   1.00000
 This molecule is a prolate symmetric top.
 Rotational symmetry number  1.
 Rotational temperature (Kelvin)      1.19561
 Rotational constant (GHZ):          24.912505
    2 imaginary frequencies ignored.
 Zero-point vibrational energy       7576.5 (Joules/Mol)
                                    1.81082 (Kcal/Mol)
 Vibrational temperatures:    911.24   911.24
          (Kelvin)

 Zero-point correction=                           0.002886 (Hartree/Particle)
 Thermal correction to Energy=                    0.005531
 Thermal correction to Enthalpy=                  0.006475
 Thermal correction to Gibbs Free Energy=        -0.017372
 Sum of electronic and zero-point Energies=           -100.789634
 Sum of electronic and thermal Energies=              -100.786988
 Sum of electronic and thermal Enthalpies=            -100.786044
 Sum of electronic and thermal Free Energies=         -100.809892

                     E (Thermal)             CV                S
                      KCal/Mol        Cal/Mol-Kelvin    Cal/Mol-Kelvin
 Total                    3.471              6.892             50.191
 Electronic               0.000              0.000              1.377
 Translational            0.889              2.981             35.068
 Rotational               0.592              1.987             12.954
 Vibrational              1.990              1.924              0.791

 Normal termination of Gaussian 16 at Fri Aug 22 17:11:37 2025.
