 Gaussian 16, Revision C.01,
 Gaussian 16:  ES64L-G16RevC.01  3-Jul-2019

 -----------------------------------------
 # sp b3lyp/6-311g** Force nosymm scf=(qc)
 -----------------------------------------

 -------------------
 Title Card Required
 -------------------
 Symbolic Z-matrix:
 Charge =  0 Multiplicity = 2

                          Input orientation:
 ---------------------------------------------------------------------
 Center     Atomic      Atomic             Coordinates (Angstroms)
 Number     Number       Type             X           Y           Z
 ---------------------------------------------------------------------
      1          1           0        0.000000    0.000000    0.000000
      2          1           0       -1.600000    0.000000    0.000000
      3          9           0        2.750000    0.000000    0.000000
 ---------------------------------------------------------------------

 SCF Done:  E(UB3LYP) =  -100.808438140     a.u. after   21 cycles

 Alpha  occ. eigenvalues --  -24.74126  -1.20184  -0.53267  -0.44720  -0.44720
 Alpha  occ. eigenvalues --   -0.34890
 Alpha virt. eigenvalues --   -0.11323   0.24436   0.30465   0.90003   0.92204
 Alpha virt. eigenvalues --    0.92204   1.03911   1.08430   1.20746   1.20746
 Alpha virt. eigenvalues --    1.38008   1.38008   1.73201   2.17833   2.44047

  Beta  occ. eigenvalues --  -24.71116  -1.11564  -0.41709  -0.41709  -0.34590
  Beta virt. eigenvalues --   -0.25090  -0.10877   0.25370   0.30506   0.93650
  Beta virt. eigenvalues --    0.93650   0.97870   1.05645   1.11719   1.21112
  Beta virt. eigenvalues --    1.21112   1.38376   1.38376   1.73732   2.18793

 Mulliken charges and spin densities:
               1          2
     1  H    0.011309  -0.459891
     2  H    0.028299   0.506924
     3  F   -0.039608   0.952967
 Sum of Mulliken charges =  -0.00000   1.00000

 Dipole moment (field-independent basis, Debye):
    X=             -0.7707    Y=             -0.0000    Z=             -0.0000  Tot=              0.7707
 Quadrupole moment (field-independent basis, Debye-Ang):
   XX=             -6.7919   YY=             -7.7206   ZZ=             -7.7206
   XY=             -0.0000   XZ=             -0.0000   YZ=             -0.0000

  Exact polarizability:      60.473      -0.000       2.029      -0.000      -0.000       2.029
 Approx polarizability:      76.013      -0.000       1.997      -0.000       0.000       1.997

 ******    2 imaginary frequencies (negative Signs) ******

                      1                      2                      3
                      A                      A                      A
 Frequencies --  -2053.0173              -265.5658              1022.8220
 Red. masses --      1.0080                 1.1083                 1.0127
 Frc consts  --      2.5033                 0.0461                 0.6242
 IR Inten    --    285.2315                32.3868                 0.0001

                      4
                      A
 Frequencies --   1022.8220
 Red. masses --      1.0127
 Frc consts  --      0.6242
 IR Inten    --      0.0001

 - Thermochemistry -
 -------------------
 Temperature   298.150 Kelvin.  Pressure   1.00000 Atm.
 Atom     1 has atomic number  1 and mass   1.00783

 Molecular mass:    21.01405 amu.
 Principal axes and moments of inertia in atomic units:
                           1         2         3
     Eigenvalues --     0.00000  86.61863  86.61863
           X            1.00000  -0.00000   0.00000
           Y            0.00000   1.00000   0.00000
           Z            0.00000   0.00000   1.00000
 This molecule is a prolate symmetric top.
 Rotational symmetry number  1.
 Rotational temperature (Kelvin)      0.99995
 Rotational constant (GHZ):          20.835486
    2 imaginary frequencies ignored.
 Zero-point vibrational energy      12235.7 (Joules/Mol)
                                    2.92439 (Kcal/Mol)
 Vibrational temperatures:   1471.61  1471.61
          (Kelvin)

 Zero-point correction=                           0.004660 (Hartree/Particle)
 Thermal correction to Energy=                    0.007088
 Thermal correction to Enthalpy=                  0.008032
 Thermal correction to Gibbs Free Energy=        -0.015689
 Sum of electronic and zero-point Energies=           -100.803778
 Sum of electronic and thermal Energies=              -100.801350
 Sum of electronic and thermal Enthalpies=            -100.800406
 Sum of electronic and thermal Free Energies=         -100.824127

                     E (Thermal)             CV                S
                      KCal/Mol        Cal/Mol-Kelvin    Cal/Mol-Kelvin
 Total                    4.448              5.674             49.926
 Electronic               0.000              0.000              1.377
 Translational            0.889              2.981             35.068
 Rotational               0.592              1.987             13.310
 Vibrational              2.967              0.706              0.171

 Normal termination of Gaussian 16 at Fri Aug 22 18:33:07 2025.
