 Gaussian 16, Revision C.01,
 Gaussian 16:  ES64L-G16RevC.01  3-Jul-2019

 -----------------------------------------
 # sp b3lyp/6-311g** Force nosymm scf=(qc)
 -----------------------------------------

 -------------------
 Title Card Required
 -------------------
 Symbolic Z-matrix:
 Charge =  0 Multiplicity = 2

                          Input orientation:
 ---------------------------------------------------------------------
 Center     Atomic      Atomic             Coordinates (Angstroms)
 Number     Number       Type             X           Y           Z
 ---------------------------------------------------------------------
      1          1           0        0.000000    0.000000    0.000000
      2          1           0       -1.000000    0.000000    0.000000
      3          9           0        1.500000    0.000000    0.000000
 ---------------------------------------------------------------------

 SCF Done:  E(UB3LYP) =  -100.924012637     a.u. after    8 cycles

 Alpha  occ. eigenvalues --  -24.69006  -1.16096  -0.52903  -0.40896  -0.40896
 Alpha  occ. eigenvalues --   -0.40656
 Alpha virt. eigenvalues --    0.03390   0.20003   0.34957   0.89957   0.89957
 Alpha virt. eigenvalues --    0.98501   1.07634   1.07634   1.18629   1.63592
 Alpha virt. eigenvalues --    1.63592   1.63959   2.21452   2.31756   2.50241

  Beta  occ. eigenvalues --  -24.66708  -1.09826  -0.44266  -0.38671  -0.38671
  Beta virt. eigenvalues --   -0.23354   0.05770   0.21541   0.36952   0.90927
  Beta virt. eigenvalues --    0.90927   1.04132   1.10758   1.10758   1.22157
  Beta virt. eigenvalues --    1.65418   1.65418   1.67582   2.24027   2.35882

 Mulliken charges and spin densities:
               1          2
     1  H    0.157377  -0.098759
     2  H    0.049465   0.399848
     3  F   -0.206842   0.698911
 Sum of Mulliken charges =   0.00000   1.00000

 Dipole moment (field-independent basis, Debye):
    X=             -1.7520    Y=             -0.0000    Z=             -0.0000  Tot=              1.7520
 Quadrupole moment (field-independent basis, Debye-Ang):
   XX=             -7.3388   YY=             -7.0138   ZZ=             -7.0138
   XY=             -0.0000   XZ=             -0.0000   YZ=              0.0000

  Exact polarizability:      28.049       0.000       2.369      -0.000       0.000       2.369
 Approx polarizability:      40.561       0.000       2.364      -0.000       0.000       2.364

 ******    1 imaginary frequencies (negative Signs) ******

                      1                      2                      3
                      A                      A                      A
 Frequencies --  -1701.3060              1068.8777              1246.5251
 Red. masses --      1.0491                 1.0625                 1.0138
 Frc consts  --      1.7891                 0.7152                 0.9281
 IR Inten    --    873.3723               200.9311                 4.4056

                      4
                      A
 Frequencies --   1246.5251
 Red. masses --      1.0138
 Frc consts  --      0.9281
 IR Inten    --      4.4056

 - Thermochemistry -
 -------------------
 Temperature   298.150 Kelvin.  Pressure   1.00000 Atm.
 Atom     1 has atomic number  1 and mass   1.00783

 Molecular mass:    21.01405 amu.
 Principal axes and moments of inertia in atomic units:
                           1         2         3
     Eigenvalues --     0.00000  27.82986  27.82986
           X            1.00000  -0.00000   0.00000
           Y            0.00000   1.00000   0.00000
           Z            0.00000   0.00000   1.00000
 This molecule is a prolate symmetric top.
 Rotational symmetry number  1.
 Rotational temperature (Kelvin)      3.11227
 Rotational constant (GHZ):          64.849089
    1 imaginary frequencies ignored.
 Zero-point vibrational energy      21305.1 (Joules/Mol)
                                    5.09203 (Kcal/Mol)
 Vibrational temperatures:   1537.88  1793.47  1793.47
          (Kelvin)

 Zero-point correction=                           0.008115 (Hartree/Particle)
 Thermal correction to Energy=                    0.010531
 Thermal correction to Enthalpy=                  0.011475
 Thermal correction to Gibbs Free Energy=        -0.011159
 Sum of electronic and zero-point Energies=           -100.915898
 Sum of electronic and thermal Energies=              -100.913482
 Sum of electronic and thermal Enthalpies=            -100.912537
 Sum of electronic and thermal Free Energies=         -100.935172

                     E (Thermal)             CV                S
                      KCal/Mol        Cal/Mol-Kelvin    Cal/Mol-Kelvin
 Total                    6.608              5.628             47.638
 Electronic               0.000              0.000              1.377
 Translational            0.889              2.981             35.068
 Rotational               0.592              1.987             11.053
 Vibrational              5.127              0.660              0.139

 Normal termination of Gaussian 16 at Fri Aug 22 16:24:36 2025.
