 Gaussian 16, Revision C.01,
 Gaussian 16:  ES64L-G16RevC.01  3-Jul-2019

 -----------------------------------------
 # sp b3lyp/6-311g** Force nosymm scf=(qc)
 -----------------------------------------

 -------------------
 Title Card Required
 -------------------
 Symbolic Z-matrix:
 Charge =  0 Multiplicity = 2

                          Input orientation:
 ---------------------------------------------------------------------
 Center     Atomic      Atomic             Coordinates (Angstroms)
 Number     Number       Type             X           Y           Z
 ---------------------------------------------------------------------
      1          1           0        0.000000    0.000000    0.000000
      2          1           0       -2.350000    0.000000    0.000000
      3          9           0        0.800000    0.000000    0.000000
 ---------------------------------------------------------------------

 SCF Done:  E(UB3LYP) =  -100.950567692     a.u. after    6 cycles

 Alpha  occ. eigenvalues --  -24.63574  -1.22949  -0.56167  -0.40556  -0.40556
 Alpha  occ. eigenvalues --   -0.34907
 Alpha virt. eigenvalues --    0.07009   0.25230   0.45564   0.94292   0.94292
 Alpha virt. eigenvalues --    0.96800   1.16760   1.22643   1.22643   1.39913
 Alpha virt. eigenvalues --    1.39913   1.44618   2.01588   2.15014   2.53140

  Beta  occ. eigenvalues --  -24.63557  -1.22902  -0.56090  -0.40542  -0.40542
  Beta virt. eigenvalues --   -0.09479   0.08615   0.37171   0.45471   0.94293
  Beta virt. eigenvalues --    0.94293   0.97030   1.27002   1.39853   1.39853
  Beta virt. eigenvalues --    1.44081   1.44081   1.56933   2.02192   2.42043

 Mulliken charges and spin densities:
               1          2
     1  H    0.268240   0.004755
     2  H    0.006651   0.990005
     3  F   -0.274891   0.005241
 Sum of Mulliken charges =   0.00000   1.00000

 Dipole moment (field-independent basis, Debye):
    X=             -1.8144    Y=              0.0000    Z=             -0.0000  Tot=              1.8144
 Quadrupole moment (field-independent basis, Debye-Ang):
   XX=             -7.3697   YY=             -6.7567   ZZ=             -6.7567
   XY=              0.0000   XZ=             -0.0000   YZ=             -0.0000

  Exact polarizability:       6.695       0.000       2.478      -0.000      -0.000       2.478
 Approx polarizability:       6.961       0.000       2.464       0.000      -0.000       2.464

 ******    2 imaginary frequencies (negative Signs) ******

                      1                      2                      3
                      A                      A                      A
 Frequencies --  -1956.3432             -1956.3432               128.6408
 Red. masses --      1.0343                 1.0343                 1.0532
 Frc consts  --      2.3322                 2.3322                 0.0103
 IR Inten    --    177.1858               177.1858                 0.4705

                      4
                      A
 Frequencies --   6345.1148
 Red. masses --      1.0583
 Frc consts  --     25.1048
 IR Inten    --    134.9001

 - Thermochemistry -
 -------------------
 Temperature   298.150 Kelvin.  Pressure   1.00000 Atm.
 Atom     1 has atomic number  1 and mass   1.00783

 Molecular mass:    21.01405 amu.
 Principal axes and moments of inertia in atomic units:
                           1         2         3
     Eigenvalues --     0.00000  35.32143  35.32143
           X            1.00000  -0.00000   0.00000
           Y            0.00000   1.00000   0.00000
           Z            0.00000   0.00000   1.00000
 This molecule is a prolate symmetric top.
 Rotational symmetry number  1.
 Rotational temperature (Kelvin)      2.45216
 Rotational constant (GHZ):          51.094797
    2 imaginary frequencies ignored.
 Zero-point vibrational energy      38721.7 (Joules/Mol)
                                    9.25470 (Kcal/Mol)
 Warning -- explicit consideration of   1 degrees of freedom as
           vibrations may cause significant error
 Vibrational temperatures:    185.09  9129.20
          (Kelvin)

 Zero-point correction=                           0.014748 (Hartree/Particle)
 Thermal correction to Energy=                    0.017790
 Thermal correction to Enthalpy=                  0.018734
 Thermal correction to Gibbs Free Energy=        -0.005468
 Sum of electronic and zero-point Energies=           -100.935819
 Sum of electronic and thermal Energies=              -100.932778
 Sum of electronic and thermal Enthalpies=            -100.931833
 Sum of electronic and thermal Free Energies=         -100.956036

                     E (Thermal)             CV                S
                      KCal/Mol        Cal/Mol-Kelvin    Cal/Mol-Kelvin
 Total                   11.163              6.893             50.939
 Electronic               0.000              0.000              1.377
 Translational            0.889              2.981             35.068
 Rotational               0.592              1.987             11.527
 Vibrational              9.682              1.925              2.966
 Vibration     1          0.611              1.925              2.966

 Normal termination of Gaussian 16 at Fri Aug 22 15:51:20 2025.
