 Gaussian 16, Revision C.01,
 Gaussian 16:  ES64L-G16RevC.01  3-Jul-2019

 -----------------------------------------
 # sp b3lyp/6-311g** Force nosymm scf=(qc)
 -----------------------------------------

 -------------------
 Title Card Required
 -------------------
 Symbolic Z-matrix:
 Charge =  0 Multiplicity = 2

                          Input orientation:
 ---------------------------------------------------------------------
 Center     Atomic      Atomic             Coordinates (Angstroms)
 Number     Number       Type             X           Y           Z
 ---------------------------------------------------------------------
      1          1           0        0.000000    0.000000    0.000000
      2          1           0       -2.250000    0.000000    0.000000
      3          9           0        3.300000    0.000000    0.000000
 ---------------------------------------------------------------------

 SCF Done:  E(UB3LYP) =  -100.767276235     a.u. after   34 cycles

 Alpha  occ. eigenvalues --  -24.75111  -1.21093  -0.54232  -0.45535  -0.45535
 Alpha  occ. eigenvalues --   -0.33022
 Alpha virt. eigenvalues --   -0.10630   0.25749   0.33176   0.88345   0.91647
 Alpha virt. eigenvalues --    0.91647   1.02414   1.24398   1.24780   1.24780
 Alpha virt. eigenvalues --    1.39182   1.39182   1.44128   2.14235   2.35603

  Beta  occ. eigenvalues --  -24.72018  -1.12210  -0.42436  -0.42436  -0.33296
  Beta virt. eigenvalues --   -0.25367  -0.10060   0.25693   0.33950   0.93129
  Beta virt. eigenvalues --    0.93129   0.97387   1.06409   1.24035   1.24428
  Beta virt. eigenvalues --    1.24428   1.40063   1.40063   1.44923   2.15127

 Mulliken charges and spin densities:
               1          2
     1  H    0.011361  -0.917073
     2  H    0.005817   0.936455
     3  F   -0.017178   0.980619
 Sum of Mulliken charges =  -0.00000   1.00000

 Dipole moment (field-independent basis, Debye):
    X=             -0.3531    Y=             -0.0000    Z=              0.0000  Tot=              0.3531
 Quadrupole moment (field-independent basis, Debye-Ang):
   XX=             -7.1833   YY=             -7.6882   ZZ=             -7.6882
   XY=             -0.0000   XZ=              0.0000   YZ=              0.0000

  Exact polarizability:      45.232      -0.000       2.014       0.000       0.000       2.014
 Approx polarizability:      36.005      -0.000       1.927       0.000      -0.000       1.927

 ******    2 imaginary frequencies (negative Signs) ******

                      1                      2                      3
                      A                      A                      A
 Frequencies --   -960.3983              -177.2720               366.5059
 Red. masses --      1.0080                 1.1083                 1.0140
 Frc consts  --      0.5478                 0.0205                 0.0802
 IR Inten    --     12.6938                12.9419                 0.0700

                      4
                      A
 Frequencies --    366.5059
 Red. masses --      1.0140
 Frc consts  --      0.0802
 IR Inten    --      0.0700

 - Thermochemistry -
 -------------------
 Temperature   298.150 Kelvin.  Pressure   1.00000 Atm.
 Atom     1 has atomic number  1 and mass   1.00783

 Molecular mass:    21.01405 amu.
 Principal axes and moments of inertia in atomic units:
                           1         2         3
     Eigenvalues --     0.00000 136.53266 136.53266
           X            1.00000  -0.00000   0.00000
           Y            0.00000   1.00000   0.00000
           Z            0.00000   0.00000   1.00000
 This molecule is a prolate symmetric top.
 Rotational symmetry number  1.
 Rotational temperature (Kelvin)      0.63438
 Rotational constant (GHZ):          13.218385
    2 imaginary frequencies ignored.
 Zero-point vibrational energy       4384.4 (Joules/Mol)
                                    1.04789 (Kcal/Mol)
 Warning -- explicit consideration of   2 degrees of freedom as
           vibrations may cause significant error
 Vibrational temperatures:    527.32   527.32
          (Kelvin)

 Zero-point correction=                           0.001670 (Hartree/Particle)
 Thermal correction to Energy=                    0.004717
 Thermal correction to Enthalpy=                  0.005661
 Thermal correction to Gibbs Free Energy=        -0.019448
 Sum of electronic and zero-point Energies=           -100.765606
 Sum of electronic and thermal Energies=              -100.762559
 Sum of electronic and thermal Enthalpies=            -100.761615
 Sum of electronic and thermal Free Energies=         -100.786725

                     E (Thermal)             CV                S
                      KCal/Mol        Cal/Mol-Kelvin    Cal/Mol-Kelvin
 Total                    2.960              8.050             52.848
 Electronic               0.000              0.000              1.377
 Translational            0.889              2.981             35.068
 Rotational               0.592              1.987             14.214
 Vibrational              1.479              3.082              2.189
 Vibration     1          0.739              1.541              1.094
 Vibration     2          0.739              1.541              1.094

 Normal termination of Gaussian 16 at Fri Aug 22 20:48:31 2025.
