 Gaussian 16, Revision C.01,
 Gaussian 16:  ES64L-G16RevC.01  3-Jul-2019

 -----------------------------------------
 # sp b3lyp/6-311g** Force nosymm scf=(qc)
 -----------------------------------------

 -------------------
 Title Card Required
 -------------------
 Symbolic Z-matrix:
 Charge =  0 Multiplicity = 2

                          Input orientation:
 ---------------------------------------------------------------------
 Center     Atomic      Atomic             Coordinates (Angstroms)
 Number     Number       Type             X           Y           Z
 ---------------------------------------------------------------------
      1          1           0        0.000000    0.000000    0.000000
      2          1           0       -1.600000    0.000000    0.000000
      3          9           0        1.550000    0.000000    0.000000
 ---------------------------------------------------------------------

 SCF Done:  E(UB3LYP) =  -100.864349445     a.u. after   13 cycles

 Alpha  occ. eigenvalues --  -24.64919  -1.11433  -0.46269  -0.38449  -0.37112
 Alpha  occ. eigenvalues --   -0.37112
 Alpha virt. eigenvalues --   -0.08739   0.21423   0.28810   0.93872   0.93951
 Alpha virt. eigenvalues --    0.93951   1.03610   1.16725   1.16725   1.37776
 Alpha virt. eigenvalues --    1.37776   1.43293   1.81228   2.16086   2.38677

  Beta  occ. eigenvalues --  -24.63468  -1.07526  -0.40884  -0.35718  -0.35718
  Beta virt. eigenvalues --   -0.21406  -0.05527   0.24712   0.29961   0.93945
  Beta virt. eigenvalues --    0.93945   0.98297   1.06675   1.23806   1.23806
  Beta virt. eigenvalues --    1.39094   1.39094   1.49213   1.84326   2.19366

 Mulliken charges and spin densities:
               1          2
     1  H    0.240183  -0.251963
     2  H    0.070379   0.800127
     3  F   -0.310562   0.451836
 Sum of Mulliken charges =   0.00000   1.00000

 Dipole moment (field-independent basis, Debye):
    X=             -2.9040    Y=             -0.0000    Z=             -0.0000  Tot=              2.9040
 Quadrupole moment (field-independent basis, Debye-Ang):
   XX=             -8.3266   YY=             -7.2877   ZZ=             -7.2877
   XY=             -0.0000   XZ=             -0.0000   YZ=              0.0000

  Exact polarizability:      37.237      -0.000       2.256      -0.000       0.000       2.256
 Approx polarizability:      53.054      -0.000       2.190      -0.000      -0.000       2.190

 ******    2 imaginary frequencies (negative Signs) ******

                      1                      2                      3
                      A                      A                      A
 Frequencies --  -2491.3551              -502.3458              1014.0743
 Red. masses --      1.0244                 1.0891                 1.0183
 Frc consts  --      3.7462                 0.1619                 0.6170
 IR Inten    --    241.8324                 1.4077                29.8349

                      4
                      A
 Frequencies --   1014.0743
 Red. masses --      1.0183
 Frc consts  --      0.6170
 IR Inten    --     29.8349

 - Thermochemistry -
 -------------------
 Temperature   298.150 Kelvin.  Pressure   1.00000 Atm.
 Atom     1 has atomic number  1 and mass   1.00783

 Molecular mass:    21.01405 amu.
 Principal axes and moments of inertia in atomic units:
                           1         2         3
     Eigenvalues --     0.00000  40.54489  40.54489
           X            1.00000  -0.00000   0.00000
           Y            0.00000   1.00000   0.00000
           Z            0.00000   0.00000   1.00000
 This molecule is a prolate symmetric top.
 Rotational symmetry number  1.
 Rotational temperature (Kelvin)      2.13625
 Rotational constant (GHZ):          44.512170
    2 imaginary frequencies ignored.
 Zero-point vibrational energy      12131.0 (Joules/Mol)
                                    2.89938 (Kcal/Mol)
 Vibrational temperatures:   1459.03  1459.03
          (Kelvin)

 Zero-point correction=                           0.004620 (Hartree/Particle)
 Thermal correction to Energy=                    0.007051
 Thermal correction to Enthalpy=                  0.007995
 Thermal correction to Gibbs Free Energy=        -0.015013
 Sum of electronic and zero-point Energies=           -100.859729
 Sum of electronic and thermal Energies=              -100.857299
 Sum of electronic and thermal Enthalpies=            -100.856355
 Sum of electronic and thermal Free Energies=         -100.879362

                     E (Thermal)             CV                S
                      KCal/Mol        Cal/Mol-Kelvin    Cal/Mol-Kelvin
 Total                    4.424              5.692             48.423
 Electronic               0.000              0.000              1.377
 Translational            0.889              2.981             35.068
 Rotational               0.592              1.987             11.801
 Vibrational              2.943              0.724              0.177

 Normal termination of Gaussian 16 at Fri Aug 22 16:27:55 2025.
