 Gaussian 16, Revision C.01,
 Gaussian 16:  ES64L-G16RevC.01  3-Jul-2019

 -----------------------------------------
 # sp b3lyp/6-311g** Force nosymm scf=(qc)
 -----------------------------------------

 -------------------
 Title Card Required
 -------------------
 Symbolic Z-matrix:
 Charge =  0 Multiplicity = 2

                          Input orientation:
 ---------------------------------------------------------------------
 Center     Atomic      Atomic             Coordinates (Angstroms)
 Number     Number       Type             X           Y           Z
 ---------------------------------------------------------------------
      1          1           0        0.000000    0.000000    0.000000
      2          1           0       -3.100000    0.000000    0.000000
      3          9           0        3.500000    0.000000    0.000000
 ---------------------------------------------------------------------

 SCF Done:  E(UB3LYP) =  -100.759733024     a.u. after   33 cycles

 Alpha  occ. eigenvalues --  -24.75398  -1.21360  -0.54520  -0.45776  -0.45776
 Alpha  occ. eigenvalues --   -0.32418
 Alpha virt. eigenvalues --   -0.07810   0.24793   0.36210   0.87610   0.91473
 Alpha virt. eigenvalues --    0.91473   1.01813   1.25108   1.25108   1.25658
 Alpha virt. eigenvalues --    1.44119   1.44213   1.44213   2.15590   2.39881

  Beta  occ. eigenvalues --  -24.72283  -1.12411  -0.42655  -0.42655  -0.32862
  Beta virt. eigenvalues --   -0.25492  -0.07265   0.24571   0.37074   0.92963
  Beta virt. eigenvalues --    0.92963   0.96755   1.05830   1.24596   1.24596
  Beta virt. eigenvalues --    1.25111   1.44951   1.45086   1.45086   2.15876

 Mulliken charges and spin densities:
               1          2
     1  H    0.010851  -0.981638
     2  H    0.000513   0.994190
     3  F   -0.011364   0.987449
 Sum of Mulliken charges =  -0.00000   1.00000

 Dipole moment (field-independent basis, Debye):
    X=             -0.2122    Y=             -0.0000    Z=             -0.0000  Tot=              0.2122
 Quadrupole moment (field-independent basis, Debye-Ang):
   XX=             -7.3361   YY=             -7.6308   ZZ=             -7.6308
   XY=             -0.0000   XZ=             -0.0000   YZ=             -0.0000

  Exact polarizability:      25.500      -0.000       2.032      -0.000      -0.000       2.032
 Approx polarizability:      19.918      -0.000       1.932      -0.000       0.000       1.932

 ******    2 imaginary frequencies (negative Signs) ******

                      1                      2                      3
                      A                      A                      A
 Frequencies --   -326.2148              -127.0069               110.6124
 Red. masses --      1.0128                 1.1026                 1.0165
 Frc consts  --      0.0635                 0.0105                 0.0073
 IR Inten    --      8.0991                 3.5533                 0.0987

                      4
                      A
 Frequencies --    110.6124
 Red. masses --      1.0165
 Frc consts  --      0.0073
 IR Inten    --      0.0987

 - Thermochemistry -
 -------------------
 Temperature   298.150 Kelvin.  Pressure   1.00000 Atm.
 Atom     1 has atomic number  1 and mass   1.00783

 Molecular mass:    21.01405 amu.
 Principal axes and moments of inertia in atomic units:
                           1         2         3
     Eigenvalues --     0.00000 183.25304 183.25304
           X            1.00000  -0.00000   0.00000
           Y            0.00000   1.00000   0.00000
           Z            0.00000   0.00000   1.00000
 This molecule is a prolate symmetric top.
 Rotational symmetry number  1.
 Rotational temperature (Kelvin)      0.47265
 Rotational constant (GHZ):           9.848356
    2 imaginary frequencies ignored.
 Zero-point vibrational energy       1323.2 (Joules/Mol)
                                    0.31626 (Kcal/Mol)
 Warning -- explicit consideration of   2 degrees of freedom as
           vibrations may cause significant error
 Vibrational temperatures:    159.15   159.15
          (Kelvin)

 Zero-point correction=                           0.000504 (Hartree/Particle)
 Thermal correction to Energy=                    0.004293
 Thermal correction to Enthalpy=                  0.005238
 Thermal correction to Gibbs Free Energy=        -0.022206
 Sum of electronic and zero-point Energies=           -100.759229
 Sum of electronic and thermal Energies=              -100.755440
 Sum of electronic and thermal Enthalpies=            -100.754495
 Sum of electronic and thermal Free Energies=         -100.781939

                     E (Thermal)             CV                S
                      KCal/Mol        Cal/Mol-Kelvin    Cal/Mol-Kelvin
 Total                    2.694              8.849             57.760
 Electronic               0.000              0.000              1.377
 Translational            0.889              2.981             35.068
 Rotational               0.592              1.987             14.799
 Vibrational              1.213              3.881              6.516
 Vibration     1          0.606              1.941              3.258
 Vibration     2          0.606              1.941              3.258

 Normal termination of Gaussian 16 at Fri Aug 22 22:10:44 2025.
