 Gaussian 16, Revision C.01,
 Gaussian 16:  ES64L-G16RevC.01  3-Jul-2019

 -----------------------------------------
 # sp b3lyp/6-311g** Force nosymm scf=(qc)
 -----------------------------------------

 -------------------
 Title Card Required
 -------------------
 Symbolic Z-matrix:
 Charge =  0 Multiplicity = 2

                          Input orientation:
 ---------------------------------------------------------------------
 Center     Atomic      Atomic             Coordinates (Angstroms)
 Number     Number       Type             X           Y           Z
 ---------------------------------------------------------------------
      1          1           0        0.000000    0.000000    0.000000
      2          1           0       -1.600000    0.000000    0.000000
      3          9           0        3.600000    0.000000    0.000000
 ---------------------------------------------------------------------

 SCF Done:  E(UB3LYP) =  -100.806103244     a.u. after  170 cycles

 Alpha  occ. eigenvalues --  -24.76312  -1.22198  -0.55400  -0.46584  -0.46555
 Alpha  occ. eigenvalues --   -0.33262
 Alpha virt. eigenvalues --   -0.10241   0.25418   0.30552   0.85983   0.90860
 Alpha virt. eigenvalues --    0.91773   1.01120   1.06708   1.22411   1.22413
 Alpha virt. eigenvalues --    1.39510   1.39513   1.74611   2.19449   2.44036

  Beta  occ. eigenvalues --  -24.73157  -1.13125  -0.43426  -0.43391  -0.33254
  Beta virt. eigenvalues --   -0.26046  -0.10268   0.25400   0.30622   0.92361
  Beta virt. eigenvalues --    0.93231   0.95450   1.05218   1.06711   1.22403
  Beta virt. eigenvalues --    1.22407   1.39502   1.39504   1.74648   2.19621

 Mulliken charges and spin densities:
               1          2
     1  H    0.000693  -0.452046
     2  H   -0.002658   0.451973
     3  F    0.001965   1.000073
 Sum of Mulliken charges =   0.00000   1.00000

 Dipole moment (field-independent basis, Debye):
    X=              0.0408    Y=             -0.0000    Z=              0.0000  Tot=              0.0408
 Quadrupole moment (field-independent basis, Debye-Ang):
   XX=             -6.4215   YY=             -7.7708   ZZ=             -6.9065
   XY=              0.0000   XZ=              0.0001   YZ=              0.0070

  Exact polarizability:      23.626      -0.000       2.027       0.000       0.004       2.488
 Approx polarizability:      41.233       0.000       2.005       0.000       0.005       2.587

 ******    2 imaginary frequencies (negative Signs) ******

                      1                      2                      3
                      A                      A                      A
 Frequencies --  -2062.3814               -51.2783              1056.6614
 Red. masses --      1.0078                 1.1085                 1.0111
 Frc consts  --      2.5257                 0.0017                 0.6651
 IR Inten    --      0.0385                 0.1262                 0.0023

                      4
                      A
 Frequencies --   1058.9336
 Red. masses --      1.0111
 Frc consts  --      0.6680
 IR Inten    --      0.0002

 - Thermochemistry -
 -------------------
 Temperature   298.150 Kelvin.  Pressure   1.00000 Atm.
 Atom     1 has atomic number  1 and mass   1.00783

 Molecular mass:    21.01405 amu.
 Principal axes and moments of inertia in atomic units:
                           1         2         3
     Eigenvalues --     0.00000 130.59366 130.59366
           X            1.00000  -0.00000   0.00000
           Y            0.00000   1.00000   0.00000
           Z            0.00000   0.00000   1.00000
 This molecule is a prolate symmetric top.
 Rotational symmetry number  1.
 Rotational temperature (Kelvin)      0.66323
 Rotational constant (GHZ):          13.819516
    2 imaginary frequencies ignored.
 Zero-point vibrational energy      12654.1 (Joules/Mol)
                                    3.02439 (Kcal/Mol)
 Vibrational temperatures:   1520.30  1523.57
          (Kelvin)

 Zero-point correction=                           0.004820 (Hartree/Particle)
 Thermal correction to Energy=                    0.007239
 Thermal correction to Enthalpy=                  0.008183
 Thermal correction to Gibbs Free Energy=        -0.015915
 Sum of electronic and zero-point Energies=           -100.801284
 Sum of electronic and thermal Energies=              -100.798864
 Sum of electronic and thermal Enthalpies=            -100.797920
 Sum of electronic and thermal Free Energies=         -100.822018

                     E (Thermal)             CV                S
                      KCal/Mol        Cal/Mol-Kelvin    Cal/Mol-Kelvin
 Total                    4.543              5.604             50.719
 Electronic               0.000              0.000              1.377
 Translational            0.889              2.981             35.068
 Rotational               0.592              1.987             14.125
 Vibrational              3.061              0.636              0.148

 Normal termination of Gaussian 16 at Fri Aug 22 23:03:09 2025.
