 Gaussian 16, Revision C.01,
 Gaussian 16:  ES64L-G16RevC.01  3-Jul-2019

 -----------------------------------------
 # sp b3lyp/6-311g** Force nosymm scf=(qc)
 -----------------------------------------

 -------------------
 Title Card Required
 -------------------
 Symbolic Z-matrix:
 Charge =  0 Multiplicity = 2

                          Input orientation:
 ---------------------------------------------------------------------
 Center     Atomic      Atomic             Coordinates (Angstroms)
 Number     Number       Type             X           Y           Z
 ---------------------------------------------------------------------
      1          1           0        0.000000    0.000000    0.000000
      2          1           0       -3.000000    0.000000    0.000000
      3          9           0        2.850000    0.000000    0.000000
 ---------------------------------------------------------------------

 SCF Done:  E(UB3LYP) =  -100.763137531     a.u. after   20 cycles

 Alpha  occ. eigenvalues --  -24.73517  -1.19616  -0.52633  -0.44197  -0.44197
 Alpha  occ. eigenvalues --   -0.32838
 Alpha virt. eigenvalues --   -0.09502   0.24530   0.34917   0.89888   0.92615
 Alpha virt. eigenvalues --    0.92615   1.04845   1.24702   1.24702   1.25544
 Alpha virt. eigenvalues --    1.41929   1.41929   1.42712   2.15379   2.38121

  Beta  occ. eigenvalues --  -24.70531  -1.11071  -0.41211  -0.41211  -0.34157
  Beta virt. eigenvalues --   -0.24450  -0.07697   0.24716   0.36683   0.94062
  Beta virt. eigenvalues --    0.94062   0.98333   1.08473   1.23200   1.23200
  Beta virt. eigenvalues --    1.24756   1.44593   1.44616   1.44616   2.15550

 Mulliken charges and spin densities:
               1          2
     1  H    0.047055  -0.938324
     2  H    0.002022   0.992632
     3  F   -0.049077   0.945692
 Sum of Mulliken charges =  -0.00000   1.00000

 Dipole moment (field-independent basis, Debye):
    X=             -0.7464    Y=             -0.0000    Z=              0.0000  Tot=              0.7464
 Quadrupole moment (field-independent basis, Debye-Ang):
   XX=             -8.4937   YY=             -7.6140   ZZ=             -7.6140
   XY=              0.0000   XZ=             -0.0000   YZ=             -0.0000

  Exact polarizability:      35.632       0.000       2.020      -0.000       0.000       2.020
 Approx polarizability:      37.317       0.000       1.922      -0.000      -0.000       1.922

 ******    2 imaginary frequencies (negative Signs) ******

                      1                      2                      3
                      A                      A                      A
 Frequencies --   -490.7906              -198.1889               183.2091
 Red. masses --      1.0321                 1.0806                 1.0186
 Frc consts  --      0.1465                 0.0250                 0.0201
 IR Inten    --     46.2904                 4.9888                 1.9912

                      4
                      A
 Frequencies --    183.2091
 Red. masses --      1.0186
 Frc consts  --      0.0201
 IR Inten    --      1.9912

 - Thermochemistry -
 -------------------
 Temperature   298.150 Kelvin.  Pressure   1.00000 Atm.
 Atom     1 has atomic number  1 and mass   1.00783

 Molecular mass:    21.01405 amu.
 Principal axes and moments of inertia in atomic units:
                           1         2         3
     Eigenvalues --     0.00000 139.33540 139.33540
           X            1.00000  -0.00000   0.00000
           Y            0.00000   1.00000   0.00000
           Z            0.00000   0.00000   1.00000
 This molecule is a prolate symmetric top.
 Rotational symmetry number  1.
 Rotational temperature (Kelvin)      0.62162
 Rotational constant (GHZ):          12.952496
    2 imaginary frequencies ignored.
 Zero-point vibrational energy       2191.7 (Joules/Mol)
                                    0.52382 (Kcal/Mol)
 Warning -- explicit consideration of   2 degrees of freedom as
           vibrations may cause significant error
 Vibrational temperatures:    263.60   263.60
          (Kelvin)

 Zero-point correction=                           0.000835 (Hartree/Particle)
 Thermal correction to Energy=                    0.004370
 Thermal correction to Enthalpy=                  0.005314
 Thermal correction to Gibbs Free Energy=        -0.020956
 Sum of electronic and zero-point Energies=           -100.762303
 Sum of electronic and thermal Energies=              -100.758767
 Sum of electronic and thermal Enthalpies=            -100.757823
 Sum of electronic and thermal Free Energies=         -100.784093

                     E (Thermal)             CV                S
                      KCal/Mol        Cal/Mol-Kelvin    Cal/Mol-Kelvin
 Total                    2.742              8.693             55.291
 Electronic               0.000              0.000              1.377
 Translational            0.889              2.981             35.068
 Rotational               0.592              1.987             14.254
 Vibrational              1.261              3.725              4.591
 Vibration     1          0.631              1.863              2.295
 Vibration     2          0.631              1.863              2.295

 Normal termination of Gaussian 16 at Fri Aug 22 18:54:25 2025.
