 Gaussian 16, Revision C.01,
 Gaussian 16:  ES64L-G16RevC.01  3-Jul-2019

 -----------------------------------------
 # sp b3lyp/6-311g** Force nosymm scf=(qc)
 -----------------------------------------

 -------------------
 Title Card Required
 -------------------
 Symbolic Z-matrix:
 Charge =  0 Multiplicity = 2

                          Input orientation:
 ---------------------------------------------------------------------
 Center     Atomic      Atomic             Coordinates (Angstroms)
 Number     Number       Type             X           Y           Z
 ---------------------------------------------------------------------
      1          1           0        0.000000    0.000000    0.000000
      2          1           0       -2.500000    0.000000    0.000000
      3          9           0        3.950000    0.000000    0.000000
 ---------------------------------------------------------------------

 SCF Done:  E(UB3LYP) =  -100.762517557     a.u. after   48 cycles

 Alpha  occ. eigenvalues --  -24.75889  -1.21816  -0.55014  -0.46193  -0.46193
 Alpha  occ. eigenvalues --   -0.32530
 Alpha virt. eigenvalues --   -0.09183   0.25798   0.34810   0.86605   0.91160
 Alpha virt. eigenvalues --    0.91160   1.01091   1.25122   1.25122   1.26639
 Alpha virt. eigenvalues --    1.41812   1.41812   1.43415   2.15887   2.36773

  Beta  occ. eigenvalues --  -24.72744  -1.12773  -0.43040  -0.43040  -0.32664
  Beta virt. eigenvalues --   -0.25747  -0.08982   0.25646   0.35076   0.92659
  Beta virt. eigenvalues --    0.92659   0.95983   1.05219   1.24976   1.24976
  Beta virt. eigenvalues --    1.26476   1.42099   1.42099   1.43694   2.15984

 Mulliken charges and spin densities:
               1          2
     1  H    0.001595  -0.966655
     2  H    0.000942   0.969555
     3  F   -0.002537   0.997101
 Sum of Mulliken charges =   0.00000   1.00000

 Dipole moment (field-independent basis, Debye):
    X=             -0.0628    Y=              0.0000    Z=             -0.0000  Tot=              0.0628
 Quadrupole moment (field-independent basis, Debye-Ang):
   XX=             -6.6988   YY=             -7.6673   ZZ=             -7.6673
   XY=              0.0000   XZ=             -0.0000   YZ=              0.0000

  Exact polarizability:      20.097       0.000       2.021      -0.000      -0.000       2.021
 Approx polarizability:      15.443       0.000       1.931      -0.000      -0.000       1.931

 ******    2 imaginary frequencies (negative Signs) ******

                      1                      2                      3
                      A                      A                      A
 Frequencies --   -659.9412               -76.8664               244.9945
 Red. masses --      1.0078                 1.1085                 1.0134
 Frc consts  --      0.2586                 0.0039                 0.0358
 IR Inten    --      0.6501                 0.7824                 0.0015

                      4
                      A
 Frequencies --    244.9945
 Red. masses --      1.0134
 Frc consts  --      0.0358
 IR Inten    --      0.0015

 - Thermochemistry -
 -------------------
 Temperature   298.150 Kelvin.  Pressure   1.00000 Atm.
 Atom     1 has atomic number  1 and mass   1.00783

 Molecular mass:    21.01405 amu.
 Principal axes and moments of inertia in atomic units:
                           1         2         3
     Eigenvalues --     0.00000 187.21212 187.21212
           X            1.00000  -0.00000   0.00000
           Y            0.00000   1.00000   0.00000
           Z            0.00000   0.00000   1.00000
 This molecule is a prolate symmetric top.
 Rotational symmetry number  1.
 Rotational temperature (Kelvin)      0.46265
 Rotational constant (GHZ):           9.640087
    2 imaginary frequencies ignored.
 Zero-point vibrational energy       2930.8 (Joules/Mol)
                                    0.70047 (Kcal/Mol)
 Warning -- explicit consideration of   2 degrees of freedom as
           vibrations may cause significant error
 Vibrational temperatures:    352.49   352.49
          (Kelvin)

 Zero-point correction=                           0.001116 (Hartree/Particle)
 Thermal correction to Energy=                    0.004464
 Thermal correction to Enthalpy=                  0.005408
 Thermal correction to Gibbs Free Energy=        -0.020638
 Sum of electronic and zero-point Energies=           -100.761401
 Sum of electronic and thermal Energies=              -100.758054
 Sum of electronic and thermal Enthalpies=            -100.757110
 Sum of electronic and thermal Free Energies=         -100.783156

                     E (Thermal)             CV                S
                      KCal/Mol        Cal/Mol-Kelvin    Cal/Mol-Kelvin
 Total                    2.801              8.510             54.819
 Electronic               0.000              0.000              1.377
 Translational            0.889              2.981             35.068
 Rotational               0.592              1.987             14.841
 Vibrational              1.320              3.542              3.533
 Vibration     1          0.660              1.771              1.766
 Vibration     2          0.660              1.771              1.766

 Normal termination of Gaussian 16 at Sat Aug 23 01:39:34 2025.
