 Gaussian 16, Revision C.01,
 Gaussian 16:  ES64L-G16RevC.01  3-Jul-2019

 -----------------------------------------
 # sp b3lyp/6-311g** Force nosymm scf=(qc)
 -----------------------------------------

 -------------------
 Title Card Required
 -------------------
 Symbolic Z-matrix:
 Charge =  0 Multiplicity = 2

                          Input orientation:
 ---------------------------------------------------------------------
 Center     Atomic      Atomic             Coordinates (Angstroms)
 Number     Number       Type             X           Y           Z
 ---------------------------------------------------------------------
      1          1           0        0.000000    0.000000    0.000000
      2          1           0       -2.550000    0.000000    0.000000
      3          9           0        2.700000    0.000000    0.000000
 ---------------------------------------------------------------------

 SCF Done:  E(UB3LYP) =  -100.767252912     a.u. after   19 cycles

 Alpha  occ. eigenvalues --  -24.72852  -1.18993  -0.51962  -0.43636  -0.43636
 Alpha  occ. eigenvalues --   -0.33398
 Alpha virt. eigenvalues --   -0.11137   0.25013   0.33483   0.90249   0.93009
 Alpha virt. eigenvalues --    0.93009   1.05795   1.24235   1.24235   1.26551
 Alpha virt. eigenvalues --    1.39080   1.39080   1.41603   2.15152   2.35398

  Beta  occ. eigenvalues --  -24.69917  -1.10609  -0.40704  -0.40704  -0.34613
  Beta virt. eigenvalues --   -0.24066  -0.09248   0.25640   0.34947   0.94433
  Beta virt. eigenvalues --    0.94433   0.98323   1.09308   1.22870   1.22870
  Beta virt. eigenvalues --    1.26503   1.42090   1.42090   1.43504   2.15473

 Mulliken charges and spin densities:
               1          2
     1  H    0.055771  -0.903437
     2  H    0.007628   0.974649
     3  F   -0.063399   0.928787
 Sum of Mulliken charges =   0.00000   1.00000

 Dipole moment (field-independent basis, Debye):
    X=             -0.9684    Y=              0.0000    Z=             -0.0000  Tot=              0.9684
 Quadrupole moment (field-independent basis, Debye-Ang):
   XX=             -8.5296   YY=             -7.6282   ZZ=             -7.6282
   XY=              0.0000   XZ=             -0.0000   YZ=             -0.0000

  Exact polarizability:      43.365       0.000       2.014       0.000      -0.000       2.014
 Approx polarizability:      44.347       0.000       1.918       0.000      -0.000       1.918

 ******    2 imaginary frequencies (negative Signs) ******

                      1                      2                      3
                      A                      A                      A
 Frequencies --   -719.5730              -293.1893               277.0964
 Red. masses --      1.0162                 1.0985                 1.0173
 Frc consts  --      0.3100                 0.0556                 0.0460
 IR Inten    --     41.7131                21.8670                 2.5505

                      4
                      A
 Frequencies --    277.0964
 Red. masses --      1.0173
 Frc consts  --      0.0460
 IR Inten    --      2.5505

 - Thermochemistry -
 -------------------
 Temperature   298.150 Kelvin.  Pressure   1.00000 Atm.
 Atom     1 has atomic number  1 and mass   1.00783

 Molecular mass:    21.01405 amu.
 Principal axes and moments of inertia in atomic units:
                           1         2         3
     Eigenvalues --     0.00000 114.52526 114.52526
           X            1.00000  -0.00000   0.00000
           Y            0.00000   1.00000   0.00000
           Z            0.00000   0.00000   1.00000
 This molecule is a prolate symmetric top.
 Rotational symmetry number  1.
 Rotational temperature (Kelvin)      0.75629
 Rotational constant (GHZ):          15.758456
    2 imaginary frequencies ignored.
 Zero-point vibrational energy       3314.8 (Joules/Mol)
                                    0.79226 (Kcal/Mol)
 Warning -- explicit consideration of   2 degrees of freedom as
           vibrations may cause significant error
 Vibrational temperatures:    398.68   398.68
          (Kelvin)

 Zero-point correction=                           0.001263 (Hartree/Particle)
 Thermal correction to Energy=                    0.004522
 Thermal correction to Enthalpy=                  0.005466
 Thermal correction to Gibbs Free Energy=        -0.019912
 Sum of electronic and zero-point Energies=           -100.765990
 Sum of electronic and thermal Energies=              -100.762731
 Sum of electronic and thermal Enthalpies=            -100.761787
 Sum of electronic and thermal Free Energies=         -100.787165

                     E (Thermal)             CV                S
                      KCal/Mol        Cal/Mol-Kelvin    Cal/Mol-Kelvin
 Total                    2.838              8.400             53.413
 Electronic               0.000              0.000              1.377
 Translational            0.889              2.981             35.068
 Rotational               0.592              1.987             13.865
 Vibrational              1.356              3.432              3.103
 Vibration     1          0.678              1.716              1.552
 Vibration     2          0.678              1.716              1.552

 Normal termination of Gaussian 16 at Fri Aug 22 18:25:57 2025.
