 Gaussian 16, Revision C.01,
 Gaussian 16:  ES64L-G16RevC.01  3-Jul-2019

 -----------------------------------------
 # sp b3lyp/6-311g** Force nosymm scf=(qc)
 -----------------------------------------

 -------------------
 Title Card Required
 -------------------
 Symbolic Z-matrix:
 Charge =  0 Multiplicity = 2

                          Input orientation:
 ---------------------------------------------------------------------
 Center     Atomic      Atomic             Coordinates (Angstroms)
 Number     Number       Type             X           Y           Z
 ---------------------------------------------------------------------
      1          1           0        0.000000    0.000000    0.000000
      2          1           0       -2.200000    0.000000    0.000000
      3          9           0        0.550000    0.000000    0.000000
 ---------------------------------------------------------------------

 SCF Done:  E(UB3LYP) =  -100.519046347     a.u. after    6 cycles

 Alpha  occ. eigenvalues --  -24.62657  -1.38397  -0.62281  -0.43590  -0.43590
 Alpha  occ. eigenvalues --   -0.34670
 Alpha virt. eigenvalues --    0.10389   0.25069   0.57702   0.91259   0.91259
 Alpha virt. eigenvalues --    0.91562   1.18224   1.22875   1.22875   1.54036
 Alpha virt. eigenvalues --    1.54165   1.54165   1.96844   2.18549   3.65824

  Beta  occ. eigenvalues --  -24.62642  -1.38351  -0.62236  -0.43583  -0.43583
  Beta virt. eigenvalues --   -0.08811   0.11791   0.37185   0.57890   0.91241
  Beta virt. eigenvalues --    0.91241   0.91690   1.29991   1.44198   1.44198
  Beta virt. eigenvalues --    1.54149   1.54149   1.63459   2.00076   2.45566

 Mulliken charges and spin densities:
               1          2
     1  H    0.186277   0.007018
     2  H    0.007079   0.990638
     3  F   -0.193355   0.002344
 Sum of Mulliken charges =   0.00000   1.00000

 Dipole moment (field-independent basis, Debye):
    X=             -1.4247    Y=             -0.0000    Z=             -0.0000  Tot=              1.4247
 Quadrupole moment (field-independent basis, Debye-Ang):
   XX=             -6.6124   YY=             -6.4785   ZZ=             -6.4785
   XY=             -0.0000   XZ=             -0.0000   YZ=              0.0000

  Exact polarizability:       5.114       0.000       2.460      -0.000      -0.000       2.460
 Approx polarizability:       4.995       0.000       2.448      -0.000      -0.000       2.448

 ******    2 imaginary frequencies (negative Signs) ******

                      1                      2                      3
                      A                      A                      A
 Frequencies --  -7433.0202             -7433.0202               267.6895
 Red. masses --      1.0389                 1.0389                 1.0533
 Frc consts  --     33.8194                33.8194                 0.0445
 IR Inten    --    230.4006               230.4006                 0.0639

                      4
                      A
 Frequencies --  15777.6349
 Red. masses --      1.0583
 Frc consts  --    155.2180
 IR Inten    --    101.2266

 - Thermochemistry -
 -------------------
 Temperature   298.150 Kelvin.  Pressure   1.00000 Atm.
 Atom     1 has atomic number  1 and mass   1.00783

 Molecular mass:    21.01405 amu.
 Principal axes and moments of inertia in atomic units:
                           1         2         3
     Eigenvalues --     0.00000  26.42651  26.42651
           X            1.00000  -0.00000   0.00000
           Y            0.00000   1.00000   0.00000
           Z            0.00000   0.00000   1.00000
 This molecule is a prolate symmetric top.
 Rotational symmetry number  1.
 Rotational temperature (Kelvin)      3.27754
 Rotational constant (GHZ):          68.292824
    2 imaginary frequencies ignored.
 Zero-point vibrational energy      95972.4 (Joules/Mol)
                                   22.93794 (Kcal/Mol)
 Warning -- explicit consideration of   1 degrees of freedom as
           vibrations may cause significant error
 Vibrational temperatures:    385.15 22700.50
          (Kelvin)

 Zero-point correction=                           0.036554 (Hartree/Particle)
 Thermal correction to Energy=                    0.039377
 Thermal correction to Enthalpy=                  0.040321
 Thermal correction to Gibbs Free Energy=         0.017036
 Sum of electronic and zero-point Energies=           -100.482492
 Sum of electronic and thermal Energies=              -100.479670
 Sum of electronic and thermal Enthalpies=            -100.478726
 Sum of electronic and thermal Free Energies=         -100.502010

                     E (Thermal)             CV                S
                      KCal/Mol        Cal/Mol-Kelvin    Cal/Mol-Kelvin
 Total                   24.709              6.700             49.007
 Electronic               0.000              0.000              1.377
 Translational            0.889              2.981             35.068
 Rotational               0.592              1.987             10.950
 Vibrational             23.228              1.732              1.611
 Vibration     1          0.673              1.732              1.611

 Normal termination of Gaussian 16 at Fri Aug 22 15:39:28 2025.
