 Gaussian 16, Revision C.01,
 Gaussian 16:  ES64L-G16RevC.01  3-Jul-2019

 -----------------------------------------
 # sp b3lyp/6-311g** Force nosymm scf=(qc)
 -----------------------------------------

 -------------------
 Title Card Required
 -------------------
 Symbolic Z-matrix:
 Charge =  0 Multiplicity = 2

                          Input orientation:
 ---------------------------------------------------------------------
 Center     Atomic      Atomic             Coordinates (Angstroms)
 Number     Number       Type             X           Y           Z
 ---------------------------------------------------------------------
      1          1           0        0.000000    0.000000    0.000000
      2          1           0       -1.950000    0.000000    0.000000
      3          9           0        3.850000    0.000000    0.000000
 ---------------------------------------------------------------------

 SCF Done:  E(UB3LYP) =  -100.776638745     a.u. after  270 cycles

 Alpha  occ. eigenvalues --  -24.76151  -1.22054  -0.55259  -0.46428  -0.46416
 Alpha  occ. eigenvalues --   -0.32755
 Alpha virt. eigenvalues --   -0.10545   0.26119   0.32552   0.86102   0.90980
 Alpha virt. eigenvalues --    0.91402   1.00956   1.15616   1.25228   1.25229
 Alpha virt. eigenvalues --    1.38204   1.38207   1.53769   2.13655   2.37218

  Beta  occ. eigenvalues --  -24.72997  -1.12983  -0.43270  -0.43253  -0.32731
  Beta virt. eigenvalues --   -0.25911  -0.10603   0.26107   0.32572   0.92481
  Beta virt. eigenvalues --    0.92865   0.95570   1.05091   1.15598   1.25239
  Beta virt. eigenvalues --    1.25242   1.38169   1.38170   1.53768   2.13878

 Mulliken charges and spin densities:
               1          2
     1  H    0.000425  -0.829215
     2  H   -0.001261   0.829253
     3  F    0.000836   0.999962
 Sum of Mulliken charges =   0.00000   1.00000

 Dipole moment (field-independent basis, Debye):
    X=              0.0216    Y=              0.0000    Z=             -0.0000  Tot=              0.0216
 Quadrupole moment (field-independent basis, Debye-Ang):
   XX=             -6.9445   YY=             -7.7385   ZZ=             -6.8739
   XY=             -0.0000   XZ=             -0.0000   YZ=              0.0013

  Exact polarizability:      22.107      -0.000       2.011      -0.000       0.001       2.476
 Approx polarizability:      26.655      -0.000       1.944      -0.000       0.001       2.527

 ******    2 imaginary frequencies (negative Signs) ******

                      1                      2                      3
                      A                      A                      A
 Frequencies --  -1442.5798               -42.8383               604.3672
 Red. masses --      1.0078                 1.1085                 1.0118
 Frc consts  --      1.2357                 0.0012                 0.2177
 IR Inten    --      0.0018                 0.0368                 0.0008

                      4
                      A
 Frequencies --    604.7351
 Red. masses --      1.0118
 Frc consts  --      0.2180
 IR Inten    --      0.0005

 - Thermochemistry -
 -------------------
 Temperature   298.150 Kelvin.  Pressure   1.00000 Atm.
 Atom     1 has atomic number  1 and mass   1.00783

 Molecular mass:    21.01405 amu.
 Principal axes and moments of inertia in atomic units:
                           1         2         3
     Eigenvalues --     0.00000 158.34336 158.34336
           X            1.00000  -0.00000   0.00000
           Y            0.00000   1.00000   0.00000
           Z            0.00000   0.00000   1.00000
 This molecule is a prolate symmetric top.
 Rotational symmetry number  1.
 Rotational temperature (Kelvin)      0.54700
 Rotational constant (GHZ):          11.397643
    2 imaginary frequencies ignored.
 Zero-point vibrational energy       7232.0 (Joules/Mol)
                                    1.72850 (Kcal/Mol)
 Warning -- explicit consideration of   2 degrees of freedom as
           vibrations may cause significant error
 Vibrational temperatures:    869.55   870.08
          (Kelvin)

 Zero-point correction=                           0.002755 (Hartree/Particle)
 Thermal correction to Energy=                    0.005430
 Thermal correction to Enthalpy=                  0.006374
 Thermal correction to Gibbs Free Energy=        -0.018256
 Sum of electronic and zero-point Energies=           -100.773884
 Sum of electronic and thermal Energies=              -100.771209
 Sum of electronic and thermal Enthalpies=            -100.770265
 Sum of electronic and thermal Free Energies=         -100.794894

                     E (Thermal)             CV                S
                      KCal/Mol        Cal/Mol-Kelvin    Cal/Mol-Kelvin
 Total                    3.407              7.012             51.838
 Electronic               0.000              0.000              1.377
 Translational            0.889              2.981             35.068
 Rotational               0.592              1.987             14.508
 Vibrational              1.926              2.044              0.884
 Vibration     1          0.963              1.023              0.442
 Vibration     2          0.963              1.022              0.442

 Normal termination of Gaussian 16 at Sat Aug 23 01:06:09 2025.
