 Gaussian 16, Revision C.01,
 Gaussian 16:  ES64L-G16RevC.01  3-Jul-2019

 -----------------------------------------
 # sp b3lyp/6-311g** Force nosymm scf=(qc)
 -----------------------------------------

 -------------------
 Title Card Required
 -------------------
 Symbolic Z-matrix:
 Charge =  0 Multiplicity = 2

                          Input orientation:
 ---------------------------------------------------------------------
 Center     Atomic      Atomic             Coordinates (Angstroms)
 Number     Number       Type             X           Y           Z
 ---------------------------------------------------------------------
      1          1           0        0.000000    0.000000    0.000000
      2          1           0       -0.650000    0.000000    0.000000
      3          9           0        3.050000    0.000000    0.000000
 ---------------------------------------------------------------------

 SCF Done:  E(UB3LYP) =  -100.927128472     a.u. after  113 cycles

 Alpha  occ. eigenvalues --  -24.76568  -1.22375  -0.55569  -0.46882  -0.46719
 Alpha  occ. eigenvalues --   -0.45142
 Alpha virt. eigenvalues --    0.07917   0.19337   0.50378   0.85892   0.90765
 Alpha virt. eigenvalues --    0.93929   1.05913   1.09612   1.09618   1.59867
 Alpha virt. eigenvalues --    1.86224   1.89415   1.89424   2.38153   3.64684

  Beta  occ. eigenvalues --  -24.73406  -1.13288  -0.45353  -0.43549  -0.43498
  Beta virt. eigenvalues --   -0.26192   0.07966   0.19366   0.50488   0.92263
  Beta virt. eigenvalues --    0.95350   0.95755   1.09553   1.09611   1.09618
  Beta virt. eigenvalues --    1.59883   1.86264   1.89415   1.89423   2.38159

 Mulliken charges and spin densities:
               1          2
     1  H   -0.006501  -0.001332
     2  H   -0.002721   0.000112
     3  F    0.009222   1.001220
 Sum of Mulliken charges =   0.00000   1.00000

 Dipole moment (field-independent basis, Debye):
    X=              0.0874    Y=              0.0000    Z=              0.0000  Tot=              0.0874
 Quadrupole moment (field-independent basis, Debye-Ang):
   XX=             -6.0440   YY=             -6.1499   ZZ=             -6.6228
   XY=             -0.0000   XZ=              0.0000   YZ=             -0.3613

  Exact polarizability:       7.357      -0.000       2.261       0.000      -0.193       2.009
 Approx polarizability:       8.065      -0.000       2.433       0.000      -0.242       2.117

 ******    2 imaginary frequencies (negative Signs) ******

                      1                      2                      3
                      A                      A                      A
 Frequencies --  -1946.7677             -1946.0411                63.6942
 Red. masses --      1.0088                 1.0088                 1.1085
 Frc consts  --      2.2525                 2.2508                 0.0026
 IR Inten    --      0.0225                 0.0211                 0.1934

                      4
                      A
 Frequencies --   5976.1736
 Red. masses --      1.0078
 Frc consts  --     21.2071
 IR Inten    --      0.2969

 - Thermochemistry -
 -------------------
 Temperature   298.150 Kelvin.  Pressure   1.00000 Atm.
 Atom     1 has atomic number  1 and mass   1.00783

 Molecular mass:    21.01405 amu.
 Principal axes and moments of inertia in atomic units:
                           1         2         3
     Eigenvalues --     0.00000  74.88580  74.88580
           X            1.00000  -0.00000   0.00000
           Y            0.00000   1.00000   0.00000
           Z            0.00000   0.00000   1.00000
 This molecule is a prolate symmetric top.
 Rotational symmetry number  1.
 Rotational temperature (Kelvin)      1.15661
 Rotational constant (GHZ):          24.099912
    2 imaginary frequencies ignored.
 Zero-point vibrational energy      36126.4 (Joules/Mol)
                                    8.63442 (Kcal/Mol)
 Warning -- explicit consideration of   1 degrees of freedom as
           vibrations may cause significant error
 Vibrational temperatures:     91.64  8598.38
          (Kelvin)

 Zero-point correction=                           0.013760 (Hartree/Particle)
 Thermal correction to Energy=                    0.016927
 Thermal correction to Enthalpy=                  0.017871
 Thermal correction to Gibbs Free Energy=        -0.007694
 Sum of electronic and zero-point Energies=           -100.913369
 Sum of electronic and thermal Energies=              -100.910202
 Sum of electronic and thermal Enthalpies=            -100.909257
 Sum of electronic and thermal Free Energies=         -100.934822

                     E (Thermal)             CV                S
                      KCal/Mol        Cal/Mol-Kelvin    Cal/Mol-Kelvin
 Total                   10.622              6.940             53.805
 Electronic               0.000              0.000              1.377
 Translational            0.889              2.981             35.068
 Rotational               0.592              1.987             13.020
 Vibrational              9.141              1.972              4.339
 Vibration     1          0.597              1.972              4.339

 Normal termination of Gaussian 16 at Fri Aug 22 19:36:24 2025.
