 Gaussian 16, Revision C.01,
 Gaussian 16:  ES64L-G16RevC.01  3-Jul-2019

 -----------------------------------------
 # sp b3lyp/6-311g** Force nosymm scf=(qc)
 -----------------------------------------

 -------------------
 Title Card Required
 -------------------
 Symbolic Z-matrix:
 Charge =  0 Multiplicity = 2

                          Input orientation:
 ---------------------------------------------------------------------
 Center     Atomic      Atomic             Coordinates (Angstroms)
 Number     Number       Type             X           Y           Z
 ---------------------------------------------------------------------
      1          1           0        0.000000    0.000000    0.000000
      2          1           0       -3.700000    0.000000    0.000000
      3          9           0        0.550000    0.000000    0.000000
 ---------------------------------------------------------------------

 SCF Done:  E(UB3LYP) =  -100.519210805     a.u. after    6 cycles

 Alpha  occ. eigenvalues --  -24.62695  -1.38438  -0.62259  -0.43638  -0.43638
 Alpha  occ. eigenvalues --   -0.33177
 Alpha virt. eigenvalues --    0.07730   0.24812   0.60265   0.91191   0.91210
 Alpha virt. eigenvalues --    0.91210   1.24189   1.24329   1.24329   1.35004
 Alpha virt. eigenvalues --    1.54129   1.54129   1.96753   2.14586   3.65592

  Beta  occ. eigenvalues --  -24.62695  -1.38437  -0.62259  -0.43637  -0.43637
  Beta virt. eigenvalues --   -0.05185   0.08015   0.38891   0.60255   0.91188
  Beta virt. eigenvalues --    0.91209   0.91209   1.34604   1.48821   1.49364
  Beta virt. eigenvalues --    1.49364   1.54130   1.54130   1.96703   2.45705

 Mulliken charges and spin densities:
               1          2
     1  H    0.200438   0.000353
     2  H    0.000499   0.999433
     3  F   -0.200937   0.000214
 Sum of Mulliken charges =   0.00000   1.00000

 Dipole moment (field-independent basis, Debye):
    X=             -1.3650    Y=             -0.0000    Z=             -0.0000  Tot=              1.3650
 Quadrupole moment (field-independent basis, Debye-Ang):
   XX=             -6.8252   YY=             -6.4956   ZZ=             -6.4956
   XY=             -0.0000   XZ=             -0.0000   YZ=              0.0000

  Exact polarizability:       3.089      -0.000       2.426       0.000      -0.000       2.426
 Approx polarizability:       3.292       0.000       2.403       0.000      -0.000       2.403

 ******    3 imaginary frequencies (negative Signs) ******

                      1                      2                      3
                      A                      A                      A
 Frequencies --  -7515.6949             -7515.6949               -30.4038
 Red. masses --      1.0455                 1.0455                 1.0532
 Frc consts  --     34.7942                34.7942                 0.0006
 IR Inten    --    260.2242               260.2242                 0.0137

                      4
                      A
 Frequencies --  15777.8502
 Red. masses --      1.0583
 Frc consts  --    155.2240
 IR Inten    --     88.0099

 - Thermochemistry -
 -------------------
 Temperature   298.150 Kelvin.  Pressure   1.00000 Atm.
 Atom     1 has atomic number  1 and mass   1.00783

 Molecular mass:    21.01405 amu.
 Principal axes and moments of inertia in atomic units:
                           1         2         3
     Eigenvalues --     0.00000  62.11893  62.11893
           X            1.00000  -0.00000   0.00000
           Y            0.00000   1.00000   0.00000
           Z            0.00000   0.00000   1.00000
 This molecule is a prolate symmetric top.
 Rotational symmetry number  1.
 Rotational temperature (Kelvin)      1.39432
 Rotational constant (GHZ):          29.053000
    3 imaginary frequencies ignored.
 Zero-point vibrational energy      94372.5 (Joules/Mol)
                                   22.55557 (Kcal/Mol)
 Vibrational temperatures:  22700.81
          (Kelvin)

 Zero-point correction=                           0.035945 (Hartree/Particle)
 Thermal correction to Energy=                    0.038305
 Thermal correction to Enthalpy=                  0.039249
 Thermal correction to Gibbs Free Energy=         0.015923
 Sum of electronic and zero-point Energies=           -100.483266
 Sum of electronic and thermal Energies=              -100.480906
 Sum of electronic and thermal Enthalpies=            -100.479962
 Sum of electronic and thermal Free Energies=         -100.503288

                     E (Thermal)             CV                S
                      KCal/Mol        Cal/Mol-Kelvin    Cal/Mol-Kelvin
 Total                   24.037              4.968             49.094
 Electronic               0.000              0.000              1.377
 Translational            0.889              2.981             35.068
 Rotational               0.592              1.987             12.649
 Vibrational             22.556              0.000              0.000

 Normal termination of Gaussian 16 at Fri Aug 22 15:40:25 2025.
