 Gaussian 16, Revision C.01,
 Gaussian 16:  ES64L-G16RevC.01  3-Jul-2019

 -----------------------------------------
 # sp b3lyp/6-311g** Force nosymm scf=(qc)
 -----------------------------------------

 -------------------
 Title Card Required
 -------------------
 Symbolic Z-matrix:
 Charge =  0 Multiplicity = 2

                          Input orientation:
 ---------------------------------------------------------------------
 Center     Atomic      Atomic             Coordinates (Angstroms)
 Number     Number       Type             X           Y           Z
 ---------------------------------------------------------------------
      1          1           0        0.000000    0.000000    0.000000
      2          1           0       -2.200000    0.000000    0.000000
      3          9           0        3.450000    0.000000    0.000000
 ---------------------------------------------------------------------

 SCF Done:  E(UB3LYP) =  -100.768057215     a.u. after   29 cycles

 Alpha  occ. eigenvalues --  -24.75431  -1.21390  -0.54553  -0.45806  -0.45806
 Alpha  occ. eigenvalues --   -0.32947
 Alpha virt. eigenvalues --   -0.10573   0.25852   0.33172   0.87773   0.91446
 Alpha virt. eigenvalues --    0.91446   1.01888   1.23436   1.24896   1.24896
 Alpha virt. eigenvalues --    1.39121   1.39121   1.45238   2.13993   2.35548

  Beta  occ. eigenvalues --  -24.72318  -1.12444  -0.42685  -0.42685  -0.33131
  Beta virt. eigenvalues --   -0.25537  -0.10174   0.25730   0.33774   0.92935
  Beta virt. eigenvalues --    0.92935   0.96917   1.05924   1.23235   1.24662
  Beta virt. eigenvalues --    1.24662   1.39718   1.39718   1.45744   2.14663

 Mulliken charges and spin densities:
               1          2
     1  H    0.006474  -0.912391
     2  H    0.004796   0.925219
     3  F   -0.011269   0.987172
 Sum of Mulliken charges =   0.00000   1.00000

 Dipole moment (field-independent basis, Debye):
    X=             -0.2496    Y=              0.0000    Z=             -0.0000  Tot=              0.2496
 Quadrupole moment (field-independent basis, Debye-Ang):
   XX=             -6.9164   YY=             -7.6973   ZZ=             -7.6973
   XY=              0.0000   XZ=             -0.0000   YZ=             -0.0000

  Exact polarizability:      41.600       0.000       2.019      -0.000      -0.000       2.019
 Approx polarizability:      32.716       0.000       1.930      -0.000       0.000       1.930

 ******    2 imaginary frequencies (negative Signs) ******

                      1                      2                      3
                      A                      A                      A
 Frequencies --  -1026.1023              -145.2420               395.8131
 Red. masses --      1.0079                 1.1084                 1.0134
 Frc consts  --      0.6252                 0.0138                 0.0935
 IR Inten    --      8.4175                 8.1486                 0.0163

                      4
                      A
 Frequencies --    395.8131
 Red. masses --      1.0134
 Frc consts  --      0.0935
 IR Inten    --      0.0163

 - Thermochemistry -
 -------------------
 Temperature   298.150 Kelvin.  Pressure   1.00000 Atm.
 Atom     1 has atomic number  1 and mass   1.00783

 Molecular mass:    21.01405 amu.
 Principal axes and moments of inertia in atomic units:
                           1         2         3
     Eigenvalues --     0.00000 143.43297 143.43297
           X            1.00000  -0.00000   0.00000
           Y            0.00000   1.00000   0.00000
           Z            0.00000   0.00000   1.00000
 This molecule is a prolate symmetric top.
 Rotational symmetry number  1.
 Rotational temperature (Kelvin)      0.60386
 Rotational constant (GHZ):          12.582471
    2 imaginary frequencies ignored.
 Zero-point vibrational energy       4735.0 (Joules/Mol)
                                    1.13169 (Kcal/Mol)
 Warning -- explicit consideration of   2 degrees of freedom as
           vibrations may cause significant error
 Vibrational temperatures:    569.49   569.49
          (Kelvin)

 Zero-point correction=                           0.001803 (Hartree/Particle)
 Thermal correction to Energy=                    0.004791
 Thermal correction to Enthalpy=                  0.005735
 Thermal correction to Gibbs Free Energy=        -0.019311
 Sum of electronic and zero-point Energies=           -100.766254
 Sum of electronic and thermal Energies=              -100.763266
 Sum of electronic and thermal Enthalpies=            -100.762322
 Sum of electronic and thermal Free Energies=         -100.787368

                     E (Thermal)             CV                S
                      KCal/Mol        Cal/Mol-Kelvin    Cal/Mol-Kelvin
 Total                    3.006              7.926             52.714
 Electronic               0.000              0.000              1.377
 Translational            0.889              2.981             35.068
 Rotational               0.592              1.987             14.312
 Vibrational              1.525              2.958              1.956
 Vibration     1          0.763              1.479              0.978
 Vibration     2          0.763              1.479              0.978

 Normal termination of Gaussian 16 at Fri Aug 22 21:41:21 2025.
