 Gaussian 16, Revision C.01,
 Gaussian 16:  ES64L-G16RevC.01  3-Jul-2019

 -----------------------------------------
 # sp b3lyp/6-311g** Force nosymm scf=(qc)
 -----------------------------------------

 -------------------
 Title Card Required
 -------------------
 Symbolic Z-matrix:
 Charge =  0 Multiplicity = 2

                          Input orientation:
 ---------------------------------------------------------------------
 Center     Atomic      Atomic             Coordinates (Angstroms)
 Number     Number       Type             X           Y           Z
 ---------------------------------------------------------------------
      1          1           0        0.000000    0.000000    0.000000
      2          1           0       -3.700000    0.000000    0.000000
      3          9           0        2.400000    0.000000    0.000000
 ---------------------------------------------------------------------

 SCF Done:  E(UB3LYP) =  -100.769379174     a.u. after   19 cycles

 Alpha  occ. eigenvalues --  -24.68297  -1.09440  -0.39390  -0.39390  -0.35805
 Alpha  occ. eigenvalues --   -0.32832
 Alpha virt. eigenvalues --   -0.22900   0.21008   0.27857   0.94436   0.95259
 Alpha virt. eigenvalues --    0.95259   1.08382   1.21815   1.21815   1.24621
 Alpha virt. eigenvalues --    1.24621   1.24640   1.33075   2.10683   2.16151

  Beta  occ. eigenvalues --  -24.71076  -1.17330  -0.50168  -0.42157  -0.42157
  Beta virt. eigenvalues --   -0.11161  -0.04382   0.32423   0.40389   0.89243
  Beta virt. eigenvalues --    0.93955   0.93955   1.06289   1.39563   1.39563
  Beta virt. eigenvalues --    1.46100   1.48301   1.48301   1.48443   2.35139

 Mulliken charges and spin densities:
               1          2
     1  H    0.106613   0.877814
     2  H    0.000555   0.999454
     3  F   -0.107168  -0.877269
 Sum of Mulliken charges =  -0.00000   1.00000

 Dipole moment (field-independent basis, Debye):
    X=             -1.3123    Y=              0.0000    Z=              0.0000  Tot=              1.3123
 Quadrupole moment (field-independent basis, Debye-Ang):
   XX=             -9.5598   YY=             -7.5477   ZZ=             -7.5477
   XY=              0.0000   XZ=              0.0000   YZ=             -0.0000

  Exact polarizability:      29.928       0.000       2.030       0.000      -0.000       2.030
 Approx polarizability:      39.610       0.000       1.923       0.000       0.000       1.923

 ******    1 imaginary frequencies (negative Signs) ******

                      1                      2                      3
                      A                      A                      A
 Frequencies --   -672.4378                64.6692               270.5465
 Red. masses --      1.0595                 1.0520                 1.0239
 Frc consts  --      0.2823                 0.0026                 0.0442
 IR Inten    --     85.4581                 0.0418                10.9651

                      4
                      A
 Frequencies --    270.5465
 Red. masses --      1.0239
 Frc consts  --      0.0442
 IR Inten    --     10.9651

 - Thermochemistry -
 -------------------
 Temperature   298.150 Kelvin.  Pressure   1.00000 Atm.
 Atom     1 has atomic number  1 and mass   1.00783

 Molecular mass:    21.01405 amu.
 Principal axes and moments of inertia in atomic units:
                           1         2         3
     Eigenvalues --     0.00000 142.17855 142.17855
           X            1.00000  -0.00000   0.00000
           Y            0.00000   1.00000   0.00000
           Z            0.00000   0.00000   1.00000
 This molecule is a prolate symmetric top.
 Rotational symmetry number  1.
 Rotational temperature (Kelvin)      0.60919
 Rotational constant (GHZ):          12.693485
    1 imaginary frequencies ignored.
 Zero-point vibrational energy       3623.3 (Joules/Mol)
                                    0.86598 (Kcal/Mol)
 Warning -- explicit consideration of   3 degrees of freedom as
           vibrations may cause significant error
 Vibrational temperatures:     93.04   389.26   389.26
          (Kelvin)

 Zero-point correction=                           0.001380 (Hartree/Particle)
 Thermal correction to Energy=                    0.005462
 Thermal correction to Enthalpy=                  0.006406
 Thermal correction to Gibbs Free Energy=        -0.021263
 Sum of electronic and zero-point Energies=           -100.767999
 Sum of electronic and thermal Energies=              -100.763918
 Sum of electronic and thermal Enthalpies=            -100.762973
 Sum of electronic and thermal Free Energies=         -100.790643

                     E (Thermal)             CV                S
                      KCal/Mol        Cal/Mol-Kelvin    Cal/Mol-Kelvin
 Total                    3.427             10.394             58.235
 Electronic               0.000              0.000              1.377
 Translational            0.889              2.981             35.068
 Rotational               0.592              1.987             14.294
 Vibrational              1.946              5.426              7.495
 Vibration     1          0.597              1.971              4.309
 Vibration     2          0.674              1.727              1.593
 Vibration     3          0.674              1.727              1.593

 Normal termination of Gaussian 16 at Fri Aug 22 17:33:44 2025.
