 Gaussian 16, Revision C.01,
 Gaussian 16:  ES64L-G16RevC.01  3-Jul-2019

 -----------------------------------------
 # sp b3lyp/6-311g** Force nosymm scf=(qc)
 -----------------------------------------

 -------------------
 Title Card Required
 -------------------
 Symbolic Z-matrix:
 Charge =  0 Multiplicity = 2

                          Input orientation:
 ---------------------------------------------------------------------
 Center     Atomic      Atomic             Coordinates (Angstroms)
 Number     Number       Type             X           Y           Z
 ---------------------------------------------------------------------
      1          1           0        0.000000    0.000000    0.000000
      2          1           0       -1.700000    0.000000    0.000000
      3          9           0        1.100000    0.000000    0.000000
 ---------------------------------------------------------------------

 SCF Done:  E(UB3LYP) =  -100.951050416     a.u. after    6 cycles

 Alpha  occ. eigenvalues --  -24.63524  -1.13411  -0.50193  -0.37504  -0.37504
 Alpha  occ. eigenvalues --   -0.37113
 Alpha virt. eigenvalues --    0.02602   0.22203   0.30746   0.94048   0.94048
 Alpha virt. eigenvalues --    0.99998   1.10502   1.18510   1.18510   1.37709
 Alpha virt. eigenvalues --    1.37709   1.52114   1.84015   2.24822   2.35108

  Beta  occ. eigenvalues --  -24.63286  -1.12817  -0.48737  -0.37292  -0.37292
  Beta virt. eigenvalues --   -0.15682   0.05569   0.28075   0.33830   0.94105
  Beta virt. eigenvalues --    0.94105   1.00624   1.19442   1.30895   1.30895
  Beta virt. eigenvalues --    1.42256   1.42256   1.55917   1.91435   2.33091

 Mulliken charges and spin densities:
               1          2
     1  H    0.312549  -0.007015
     2  H    0.034663   0.939798
     3  F   -0.347212   0.067217
 Sum of Mulliken charges =   0.00000   1.00000

 Dipole moment (field-independent basis, Debye):
    X=             -2.4901    Y=             -0.0000    Z=              0.0000  Tot=              2.4901
 Quadrupole moment (field-independent basis, Debye-Ang):
   XX=             -7.8740   YY=             -6.9588   ZZ=             -6.9588
   XY=             -0.0000   XZ=              0.0000   YZ=             -0.0000

  Exact polarizability:      14.664      -0.000       2.454      -0.000      -0.000       2.454
 Approx polarizability:      16.890      -0.000       2.434       0.000      -0.000       2.434

 ******    1 imaginary frequencies (negative Signs) ******

                      1                      2                      3
                      A                      A                      A
 Frequencies --   -364.0765              1108.2074              1108.2074
 Red. masses --      1.0383                 1.0240                 1.0240
 Frc consts  --      0.0811                 0.7409                 0.7409
 IR Inten    --     14.7818               101.1900               101.1900

                      4
                      A
 Frequencies --   1679.1269
 Red. masses --      1.0738
 Frc consts  --      1.7839
 IR Inten    --    212.5959

 - Thermochemistry -
 -------------------
 Temperature   298.150 Kelvin.  Pressure   1.00000 Atm.
 Atom     1 has atomic number  1 and mass   1.00783

 Molecular mass:    21.01405 amu.
 Principal axes and moments of inertia in atomic units:
                           1         2         3
     Eigenvalues --     0.00000  29.94568  29.94568
           X            1.00000  -0.00000   0.00000
           Y            0.00000   1.00000   0.00000
           Z            0.00000   0.00000   1.00000
 This molecule is a prolate symmetric top.
 Rotational symmetry number  1.
 Rotational temperature (Kelvin)      2.89237
 Rotational constant (GHZ):          60.267172
    1 imaginary frequencies ignored.
 Zero-point vibrational energy      23300.5 (Joules/Mol)
                                    5.56896 (Kcal/Mol)
 Vibrational temperatures:   1594.46  1594.46  2415.89
          (Kelvin)

 Zero-point correction=                           0.008875 (Hartree/Particle)
 Thermal correction to Energy=                    0.011286
 Thermal correction to Enthalpy=                  0.012230
 Thermal correction to Gibbs Free Energy=        -0.010467
 Sum of electronic and zero-point Energies=           -100.942176
 Sum of electronic and thermal Energies=              -100.939765
 Sum of electronic and thermal Enthalpies=            -100.938820
 Sum of electronic and thermal Free Energies=         -100.961518

                     E (Thermal)             CV                S
                      KCal/Mol        Cal/Mol-Kelvin    Cal/Mol-Kelvin
 Total                    7.082              5.554             47.770
 Electronic               0.000              0.000              1.377
 Translational            0.889              2.981             35.068
 Rotational               0.592              1.987             11.199
 Vibrational              5.601              0.586              0.126

 Normal termination of Gaussian 16 at Fri Aug 22 16:05:07 2025.
