 Gaussian 16, Revision C.01,
 Gaussian 16:  ES64L-G16RevC.01  3-Jul-2019

 -----------------------------------------
 # sp b3lyp/6-311g** Force nosymm scf=(qc)
 -----------------------------------------

 -------------------
 Title Card Required
 -------------------
 Symbolic Z-matrix:
 Charge =  0 Multiplicity = 2

                          Input orientation:
 ---------------------------------------------------------------------
 Center     Atomic      Atomic             Coordinates (Angstroms)
 Number     Number       Type             X           Y           Z
 ---------------------------------------------------------------------
      1          1           0        0.000000    0.000000    0.000000
      2          1           0       -1.300000    0.000000    0.000000
      3          9           0        2.850000    0.000000    0.000000
 ---------------------------------------------------------------------

 SCF Done:  E(UB3LYP) =  -100.854447793     a.u. after   61 cycles

 Alpha  occ. eigenvalues --  -24.76834  -1.22641  -0.55823  -0.47109  -0.46972
 Alpha  occ. eigenvalues --   -0.35073
 Alpha virt. eigenvalues --   -0.05854   0.23824   0.33272   0.85653   0.90524
 Alpha virt. eigenvalues --    0.93253   1.04925   1.15543   1.15551   1.16009
 Alpha virt. eigenvalues --    1.49643   1.49651   1.99500   2.29371   2.54079

  Beta  occ. eigenvalues --  -24.73671  -1.13552  -0.43953  -0.43802  -0.35054
  Beta virt. eigenvalues --   -0.26443  -0.05833   0.23847   0.33359   0.92022
  Beta virt. eigenvalues --    0.94988   0.95108   1.08725   1.15542   1.15550
  Beta virt. eigenvalues --    1.16022   1.49641   1.49649   1.99507   2.29371

 Mulliken charges and spin densities:
               1          2
     1  H   -0.001098   0.000407
     2  H   -0.008522  -0.001748
     3  F    0.009619   1.001341
 Sum of Mulliken charges =   0.00000   1.00000

 Dipole moment (field-independent basis, Debye):
    X=              0.1368    Y=             -0.0000    Z=             -0.0000  Tot=              0.1368
 Quadrupole moment (field-independent basis, Debye-Ang):
   XX=             -6.1252   YY=             -7.1685   ZZ=             -7.1720
   XY=             -0.0000   XZ=             -0.0000   YZ=              0.4317

  Exact polarizability:      18.903       0.000       2.310       0.000       0.230       2.308
 Approx polarizability:      30.128      -0.000       2.386      -0.000       0.289       2.384

 ******    1 imaginary frequencies (negative Signs) ******

                      1                      2                      3
                      A                      A                      A
 Frequencies --   -970.5872                51.6358              1390.2160
 Red. masses --      1.0078                 1.1085                 1.0112
 Frc consts  --      0.5594                 0.0017                 1.1515
 IR Inten    --      2.0984                 0.9989                 0.0092

                      4
                      A
 Frequencies --   1391.3796
 Red. masses --      1.0112
 Frc consts  --      1.1534
 IR Inten    --      0.0072

 - Thermochemistry -
 -------------------
 Temperature   298.150 Kelvin.  Pressure   1.00000 Atm.
 Atom     1 has atomic number  1 and mass   1.00783

 Molecular mass:    21.01405 amu.
 Principal axes and moments of inertia in atomic units:
                           1         2         3
     Eigenvalues --     0.00000  82.75913  82.75913
           X            1.00000  -0.00000   0.00000
           Y            0.00000   1.00000   0.00000
           Z            0.00000   0.00000   1.00000
 This molecule is a prolate symmetric top.
 Rotational symmetry number  1.
 Rotational temperature (Kelvin)      1.04658
 Rotational constant (GHZ):          21.807155
    1 imaginary frequencies ignored.
 Zero-point vibrational energy      16946.5 (Joules/Mol)
                                    4.05031 (Kcal/Mol)
 Warning -- explicit consideration of   1 degrees of freedom as
           vibrations may cause significant error
 Vibrational temperatures:     74.29  2000.21  2001.88
          (Kelvin)

 Zero-point correction=                           0.006455 (Hartree/Particle)
 Thermal correction to Energy=                    0.009662
 Thermal correction to Enthalpy=                  0.010606
 Thermal correction to Gibbs Free Energy=        -0.015267
 Sum of electronic and zero-point Energies=           -100.847993
 Sum of electronic and thermal Energies=              -100.844786
 Sum of electronic and thermal Enthalpies=            -100.843842
 Sum of electronic and thermal Free Energies=         -100.869715

                     E (Thermal)             CV                S
                      KCal/Mol        Cal/Mol-Kelvin    Cal/Mol-Kelvin
 Total                    6.063              7.163             54.456
 Electronic               0.000              0.000              1.377
 Translational            0.889              2.981             35.068
 Rotational               0.592              1.987             13.219
 Vibrational              4.582              2.195              4.791
 Vibration     1          0.596              1.977              4.754

 Normal termination of Gaussian 16 at Fri Aug 22 18:49:32 2025.
