 Gaussian 16, Revision C.01,
 Gaussian 16:  ES64L-G16RevC.01  3-Jul-2019

 -----------------------------------------
 # sp b3lyp/6-311g** Force nosymm scf=(qc)
 -----------------------------------------

 -------------------
 Title Card Required
 -------------------
 Symbolic Z-matrix:
 Charge =  0 Multiplicity = 2

                          Input orientation:
 ---------------------------------------------------------------------
 Center     Atomic      Atomic             Coordinates (Angstroms)
 Number     Number       Type             X           Y           Z
 ---------------------------------------------------------------------
      1          1           0        0.000000    0.000000    0.000000
      2          1           0       -0.650000    0.000000    0.000000
      3          9           0        0.700000    0.000000    0.000000
 ---------------------------------------------------------------------

 SCF Done:  E(UB3LYP) =  -100.725798012     a.u. after    7 cycles

 Alpha  occ. eigenvalues --  -24.68053  -1.36742  -0.70521  -0.46427  -0.46427
 Alpha  occ. eigenvalues --   -0.29191
 Alpha virt. eigenvalues --    0.16997   0.17900   0.80639   0.85310   0.85310
 Alpha virt. eigenvalues --    0.92571   1.10475   1.10475   1.42120   1.64792
 Alpha virt. eigenvalues --    1.90195   1.90195   2.04364   3.01386   3.74519

  Beta  occ. eigenvalues --  -24.67090  -1.33840  -0.66154  -0.45603  -0.45603
  Beta virt. eigenvalues --   -0.10800   0.17570   0.22838   0.84231   0.87149
  Beta virt. eigenvalues --    0.87149   0.95779   1.15661   1.15661   1.44472
  Beta virt. eigenvalues --    1.70340   1.95665   1.95665   2.10616   3.08304

 Mulliken charges and spin densities:
               1          2
     1  H    0.273992  -0.059207
     2  H   -0.117408   0.906315
     3  F   -0.156584   0.152892
 Sum of Mulliken charges =   0.00000   1.00000

 Dipole moment (field-independent basis, Debye):
    X=             -0.6575    Y=             -0.0000    Z=              0.0000  Tot=              0.6575
 Quadrupole moment (field-independent basis, Debye-Ang):
   XX=             -7.5262   YY=             -6.4387   ZZ=             -6.4387
   XY=             -0.0000   XZ=              0.0000   YZ=              0.0000

  Exact polarizability:       8.731       0.000       2.482      -0.000       0.000       2.482
 Approx polarizability:       8.813      -0.000       2.577      -0.000       0.000       2.577

 ******    2 imaginary frequencies (negative Signs) ******

                      1                      2                      3
                      A                      A                      A
 Frequencies --  -4633.1038             -4633.1038              4328.1257
 Red. masses --      1.0171                 1.0171                 1.0739
 Frc consts  --     12.8631                12.8631                11.8528
 IR Inten    --    114.3025               114.3025               282.4840

                      4
                      A
 Frequencies --   9636.6991
 Red. masses --      1.0382
 Frc consts  --     56.8068
 IR Inten    --     32.2414

 - Thermochemistry -
 -------------------
 Temperature   298.150 Kelvin.  Pressure   1.00000 Atm.
 Atom     1 has atomic number  1 and mass   1.00783

 Molecular mass:    21.01405 amu.
 Principal axes and moments of inertia in atomic units:
                           1         2         3
     Eigenvalues --     0.00000   7.59733   7.59733
           X            1.00000  -0.00000   0.00000
           Y            0.00000   1.00000   0.00000
           Z            0.00000   0.00000   1.00000
 This molecule is a prolate symmetric top.
 Rotational symmetry number  1.
 Rotational temperature (Kelvin)     11.40058
 Rotational constant (GHZ):         237.549506
    2 imaginary frequencies ignored.
 Zero-point vibrational energy      83528.2 (Joules/Mol)
                                   19.96372 (Kcal/Mol)
 Vibrational temperatures:   6227.21 13865.06
          (Kelvin)

 Zero-point correction=                           0.031814 (Hartree/Particle)
 Thermal correction to Energy=                    0.034175
 Thermal correction to Enthalpy=                  0.035119
 Thermal correction to Gibbs Free Energy=         0.013777
 Sum of electronic and zero-point Energies=           -100.693984
 Sum of electronic and thermal Energies=              -100.691623
 Sum of electronic and thermal Enthalpies=            -100.690679
 Sum of electronic and thermal Free Energies=         -100.712021

                     E (Thermal)             CV                S
                      KCal/Mol        Cal/Mol-Kelvin    Cal/Mol-Kelvin
 Total                   21.445              4.968             44.919
 Electronic               0.000              0.000              1.377
 Translational            0.889              2.981             35.068
 Rotational               0.592              1.987              8.473
 Vibrational             19.964              0.000              0.000

 Normal termination of Gaussian 16 at Fri Aug 22 15:45:29 2025.
