 Gaussian 16, Revision C.01,
 Gaussian 16:  ES64L-G16RevC.01  3-Jul-2019

 -----------------------------------------
 # sp b3lyp/6-311g** Force nosymm scf=(qc)
 -----------------------------------------

 -------------------
 Title Card Required
 -------------------
 Symbolic Z-matrix:
 Charge =  0 Multiplicity = 2

                          Input orientation:
 ---------------------------------------------------------------------
 Center     Atomic      Atomic             Coordinates (Angstroms)
 Number     Number       Type             X           Y           Z
 ---------------------------------------------------------------------
      1          1           0        0.000000    0.000000    0.000000
      2          1           0       -0.650000    0.000000    0.000000
      3          9           0        0.800000    0.000000    0.000000
 ---------------------------------------------------------------------

 SCF Done:  E(UB3LYP) =  -100.828899745     a.u. after    6 cycles

 Alpha  occ. eigenvalues --  -24.67424  -1.29478  -0.68533  -0.44298  -0.44298
 Alpha  occ. eigenvalues --   -0.31093
 Alpha virt. eigenvalues --    0.16230   0.17651   0.74151   0.86093   0.86093
 Alpha virt. eigenvalues --    0.92879   1.10570   1.10570   1.43484   1.70792
 Alpha virt. eigenvalues --    1.85409   1.85409   1.98090   2.78393   3.76645

  Beta  occ. eigenvalues --  -24.66239  -1.26227  -0.62797  -0.43261  -0.43261
  Beta virt. eigenvalues --   -0.13025   0.17680   0.20722   0.78915   0.88121
  Beta virt. eigenvalues --    0.88121   0.95450   1.15289   1.15289   1.45673
  Beta virt. eigenvalues --    1.77547   1.90518   1.90518   2.02336   2.85151

 Mulliken charges and spin densities:
               1          2
     1  H    0.272394  -0.037699
     2  H   -0.090844   0.801052
     3  F   -0.181550   0.236646
 Sum of Mulliken charges =   0.00000   1.00000

 Dipole moment (field-independent basis, Debye):
    X=             -0.9858    Y=             -0.0000    Z=             -0.0000  Tot=              0.9858
 Quadrupole moment (field-independent basis, Debye-Ang):
   XX=             -7.4845   YY=             -6.4392   ZZ=             -6.4392
   XY=             -0.0000   XZ=             -0.0000   YZ=             -0.0000

  Exact polarizability:       9.909      -0.000       2.511       0.000       0.000       2.511
 Approx polarizability:      10.547      -0.000       2.596      -0.000       0.000       2.596

 ******    2 imaginary frequencies (negative Signs) ******

                      1                      2                      3
                      A                      A                      A
 Frequencies --  -3700.3714             -3700.3714              3833.6914
 Red. masses --      1.0156                 1.0156                 1.0915
 Frc consts  --      8.1936                 8.1936                 9.4519
 IR Inten    --     76.5446                76.5446               208.5096

                      4
                      A
 Frequencies --   7236.1306
 Red. masses --      1.0223
 Frc consts  --     31.5381
 IR Inten    --      5.9267

 - Thermochemistry -
 -------------------
 Temperature   298.150 Kelvin.  Pressure   1.00000 Atm.
 Atom     1 has atomic number  1 and mass   1.00783

 Molecular mass:    21.01405 amu.
 Principal axes and moments of inertia in atomic units:
                           1         2         3
     Eigenvalues --     0.00000   8.99646   8.99646
           X            1.00000  -0.00000   0.00000
           Y            0.00000   1.00000   0.00000
           Z            0.00000   0.00000   1.00000
 This molecule is a prolate symmetric top.
 Rotational symmetry number  1.
 Rotational temperature (Kelvin)      9.62756
 Rotational constant (GHZ):         200.605741
    2 imaginary frequencies ignored.
 Zero-point vibrational energy      66212.2 (Joules/Mol)
                                   15.82510 (Kcal/Mol)
 Vibrational temperatures:   5515.83 10411.18
          (Kelvin)

 Zero-point correction=                           0.025219 (Hartree/Particle)
 Thermal correction to Energy=                    0.027579
 Thermal correction to Enthalpy=                  0.028524
 Thermal correction to Gibbs Free Energy=         0.007022
 Sum of electronic and zero-point Energies=           -100.803681
 Sum of electronic and thermal Energies=              -100.801320
 Sum of electronic and thermal Enthalpies=            -100.800376
 Sum of electronic and thermal Free Energies=         -100.821878

                     E (Thermal)             CV                S
                      KCal/Mol        Cal/Mol-Kelvin    Cal/Mol-Kelvin
 Total                   17.306              4.968             45.255
 Electronic               0.000              0.000              1.377
 Translational            0.889              2.981             35.068
 Rotational               0.592              1.987              8.809
 Vibrational             15.825              0.000              0.000

 Normal termination of Gaussian 16 at Fri Aug 22 15:50:09 2025.
