 Gaussian 16, Revision C.01,
 Gaussian 16:  ES64L-G16RevC.01  3-Jul-2019

 -----------------------------------------
 # sp b3lyp/6-311g** Force nosymm scf=(qc)
 -----------------------------------------

 -------------------
 Title Card Required
 -------------------
 Symbolic Z-matrix:
 Charge =  0 Multiplicity = 2

                          Input orientation:
 ---------------------------------------------------------------------
 Center     Atomic      Atomic             Coordinates (Angstroms)
 Number     Number       Type             X           Y           Z
 ---------------------------------------------------------------------
      1          1           0        0.000000    0.000000    0.000000
      2          1           0       -2.350000    0.000000    0.000000
      3          9           0        1.050000    0.000000    0.000000
 ---------------------------------------------------------------------

 SCF Done:  E(UB3LYP) =  -100.958929458     a.u. after    6 cycles

 Alpha  occ. eigenvalues --  -24.64033  -1.14712  -0.50561  -0.38254  -0.38254
 Alpha  occ. eigenvalues --   -0.35402
 Alpha virt. eigenvalues --    0.00634   0.24889   0.32334   0.93979   0.93979
 Alpha virt. eigenvalues --    0.99026   1.18473   1.22135   1.22135   1.35726
 Alpha virt. eigenvalues --    1.35726   1.40013   1.85034   2.13088   2.33882

  Beta  occ. eigenvalues --  -24.63994  -1.14614  -0.50378  -0.38219  -0.38219
  Beta virt. eigenvalues --   -0.11055   0.02744   0.32230   0.36487   0.93982
  Beta virt. eigenvalues --    0.93982   0.99183   1.27624   1.35633   1.35633
  Beta virt. eigenvalues --    1.43066   1.43066   1.51028   1.85052   2.32593

 Mulliken charges and spin densities:
               1          2
     1  H    0.323328   0.002774
     2  H    0.010318   0.985651
     3  F   -0.333646   0.011574
 Sum of Mulliken charges =   0.00000   1.00000

 Dipole moment (field-independent basis, Debye):
    X=             -2.2222    Y=             -0.0000    Z=             -0.0000  Tot=              2.2222
 Quadrupole moment (field-independent basis, Debye-Ang):
   XX=             -8.0566   YY=             -6.9935   ZZ=             -6.9935
   XY=             -0.0000   XZ=             -0.0000   YZ=              0.0000

  Exact polarizability:      10.255      -0.000       2.417      -0.000      -0.000       2.417
 Approx polarizability:      11.847      -0.000       2.391      -0.000      -0.000       2.391

 ******    1 imaginary frequencies (negative Signs) ******

                      1                      2                      3
                      A                      A                      A
 Frequencies --   -117.8630              1094.2017              1094.2017
 Red. masses --      1.0522                 1.0299                 1.0299
 Frc consts  --      0.0086                 0.7265                 0.7265
 IR Inten    --      2.1668               143.5048               143.5048

                      4
                      A
 Frequencies --   2423.7725
 Red. masses --      1.0594
 Frc consts  --      3.6668
 IR Inten    --    139.8125

 - Thermochemistry -
 -------------------
 Temperature   298.150 Kelvin.  Pressure   1.00000 Atm.
 Atom     1 has atomic number  1 and mass   1.00783

 Molecular mass:    21.01405 amu.
 Principal axes and moments of inertia in atomic units:
                           1         2         3
     Eigenvalues --     0.00000  42.15440  42.15440
           X            1.00000  -0.00000   0.00000
           Y            0.00000   1.00000   0.00000
           Z            0.00000   0.00000   1.00000
 This molecule is a prolate symmetric top.
 Rotational symmetry number  1.
 Rotational temperature (Kelvin)      2.05468
 Rotational constant (GHZ):          42.812644
    1 imaginary frequencies ignored.
 Zero-point vibrational energy      27586.9 (Joules/Mol)
                                    6.59344 (Kcal/Mol)
 Vibrational temperatures:   1574.31  1574.31  3487.27
          (Kelvin)

 Zero-point correction=                           0.010507 (Hartree/Particle)
 Thermal correction to Energy=                    0.012919
 Thermal correction to Enthalpy=                  0.013863
 Thermal correction to Gibbs Free Energy=        -0.009158
 Sum of electronic and zero-point Energies=           -100.948422
 Sum of electronic and thermal Energies=              -100.946011
 Sum of electronic and thermal Enthalpies=            -100.945066
 Sum of electronic and thermal Free Energies=         -100.968087

                     E (Thermal)             CV                S
                      KCal/Mol        Cal/Mol-Kelvin    Cal/Mol-Kelvin
 Total                    8.107              5.540             48.452
 Electronic               0.000              0.000              1.377
 Translational            0.889              2.981             35.068
 Rotational               0.592              1.987             11.878
 Vibrational              6.626              0.572              0.128

 Normal termination of Gaussian 16 at Fri Aug 22 16:03:10 2025.
