 Gaussian 16, Revision C.01,
 Gaussian 16:  ES64L-G16RevC.01  3-Jul-2019

 -----------------------------------------
 # sp b3lyp/6-311g** Force nosymm scf=(qc)
 -----------------------------------------

 -------------------
 Title Card Required
 -------------------
 Symbolic Z-matrix:
 Charge =  0 Multiplicity = 2

                          Input orientation:
 ---------------------------------------------------------------------
 Center     Atomic      Atomic             Coordinates (Angstroms)
 Number     Number       Type             X           Y           Z
 ---------------------------------------------------------------------
      1          1           0        0.000000    0.000000    0.000000
      2          1           0       -1.100000    0.000000    0.000000
      3          9           0        1.050000    0.000000    0.000000
 ---------------------------------------------------------------------

 SCF Done:  E(UB3LYP) =  -100.959772616     a.u. after    7 cycles

 Alpha  occ. eigenvalues --  -24.64493  -1.15946  -0.55871  -0.38848  -0.38848
 Alpha  occ. eigenvalues --   -0.37017
 Alpha virt. eigenvalues --    0.10538   0.19060   0.38864   0.91093   0.91093
 Alpha virt. eigenvalues --    0.98307   1.08634   1.08634   1.35515   1.56395
 Alpha virt. eigenvalues --    1.56395   1.59630   2.19734   2.29843   2.72535

  Beta  occ. eigenvalues --  -24.63616  -1.13739  -0.50672  -0.38059  -0.38059
  Beta virt. eigenvalues --   -0.19059   0.12782   0.22125   0.43787   0.92298
  Beta virt. eigenvalues --    0.92298   1.00162   1.14915   1.14915   1.40192
  Beta virt. eigenvalues --    1.61041   1.61041   1.65082   2.24677   2.38584

 Mulliken charges and spin densities:
               1          2
     1  H    0.283159  -0.028573
     2  H    0.031950   0.792799
     3  F   -0.315109   0.235774
 Sum of Mulliken charges =   0.00000   1.00000

 Dipole moment (field-independent basis, Debye):
    X=             -2.1615    Y=             -0.0000    Z=              0.0000  Tot=              2.1615
 Quadrupole moment (field-independent basis, Debye-Ang):
   XX=             -7.6901   YY=             -6.7604   ZZ=             -6.7604
   XY=             -0.0000   XZ=              0.0000   YZ=             -0.0000

  Exact polarizability:      16.303       0.000       2.559       0.000       0.000       2.559
 Approx polarizability:      19.595       0.000       2.572      -0.000      -0.000       2.572

 ******    1 imaginary frequencies (negative Signs) ******

                      1                      2                      3
                      A                      A                      A
 Frequencies --   -449.2627               726.0904               726.0904
 Red. masses --      1.0090                 1.0185                 1.0185
 Frc consts  --      0.1200                 0.3164                 0.3164
 IR Inten    --     29.7420                56.7937                56.7937

                      4
                      A
 Frequencies --   1655.4002
 Red. masses --      1.1071
 Frc consts  --      1.7875
 IR Inten    --     40.9951

 - Thermochemistry -
 -------------------
 Temperature   298.150 Kelvin.  Pressure   1.00000 Atm.
 Atom     1 has atomic number  1 and mass   1.00783

 Molecular mass:    21.01405 amu.
 Principal axes and moments of inertia in atomic units:
                           1         2         3
     Eigenvalues --     0.00000  18.83683  18.83683
           X            1.00000  -0.00000   0.00000
           Y            0.00000   1.00000   0.00000
           Z            0.00000   0.00000   1.00000
 This molecule is a prolate symmetric top.
 Rotational symmetry number  1.
 Rotational temperature (Kelvin)      4.59812
 Rotational constant (GHZ):          95.809183
    1 imaginary frequencies ignored.
 Zero-point vibrational energy      18587.5 (Joules/Mol)
                                    4.44251 (Kcal/Mol)
 Vibrational temperatures:   1044.68  1044.68  2381.75
          (Kelvin)

 Zero-point correction=                           0.007080 (Hartree/Particle)
 Thermal correction to Energy=                    0.009648
 Thermal correction to Enthalpy=                  0.010592
 Thermal correction to Gibbs Free Energy=        -0.011873
 Sum of electronic and zero-point Energies=           -100.952693
 Sum of electronic and thermal Energies=              -100.950125
 Sum of electronic and thermal Enthalpies=            -100.949181
 Sum of electronic and thermal Free Energies=         -100.971646

                     E (Thermal)             CV                S
                      KCal/Mol        Cal/Mol-Kelvin    Cal/Mol-Kelvin
 Total                    6.054              6.571             47.282
 Electronic               0.000              0.000              1.377
 Translational            0.889              2.981             35.068
 Rotational               0.592              1.987             10.278
 Vibrational              4.573              1.603              0.559

 Normal termination of Gaussian 16 at Fri Aug 22 16:02:18 2025.
