 Gaussian 16, Revision C.01,
 Gaussian 16:  ES64L-G16RevC.01  3-Jul-2019

 -----------------------------------------
 # sp b3lyp/6-311g** Force nosymm scf=(qc)
 -----------------------------------------

 -------------------
 Title Card Required
 -------------------
 Symbolic Z-matrix:
 Charge =  0 Multiplicity = 2

                          Input orientation:
 ---------------------------------------------------------------------
 Center     Atomic      Atomic             Coordinates (Angstroms)
 Number     Number       Type             X           Y           Z
 ---------------------------------------------------------------------
      1          1           0        0.000000    0.000000    0.000000
      2          1           0       -2.000000    0.000000    0.000000
      3          9           0        2.150000    0.000000    0.000000
 ---------------------------------------------------------------------

 SCF Done:  E(UB3LYP) =  -100.792537530     a.u. after   15 cycles

 Alpha  occ. eigenvalues --  -24.69389  -1.15699  -0.48478  -0.40716  -0.40716
 Alpha  occ. eigenvalues --   -0.35908
 Alpha virt. eigenvalues --   -0.13369   0.24204   0.31469   0.87996   0.94670
 Alpha virt. eigenvalues --    0.94670   1.05047   1.22005   1.22005   1.26573
 Alpha virt. eigenvalues --    1.34184   1.34184   1.54667   2.10914   2.32499

  Beta  occ. eigenvalues --  -24.66803  -1.08413  -0.38155  -0.38155  -0.36602
  Beta virt. eigenvalues --   -0.22138  -0.11708   0.26390   0.31805   0.91777
  Beta virt. eigenvalues --    0.95722   0.95722   1.08342   1.22570   1.22570
  Beta virt. eigenvalues --    1.35059   1.36462   1.36462   1.52516   2.11579

 Mulliken charges and spin densities:
               1          2
     1  H    0.109118  -0.692497
     2  H    0.040082   0.878483
     3  F   -0.149201   0.814015
 Sum of Mulliken charges =  -0.00000   1.00000

 Dipole moment (field-independent basis, Debye):
    X=             -1.9923    Y=             -0.0000    Z=              0.0000  Tot=              1.9923
 Quadrupole moment (field-independent basis, Debye-Ang):
   XX=             -8.5924   YY=             -7.5914   ZZ=             -7.5914
   XY=              0.0000   XZ=             -0.0000   YZ=             -0.0000

  Exact polarizability:      53.131       0.000       2.037      -0.000       0.000       2.037
 Approx polarizability:      61.877      -0.000       1.948       0.000      -0.000       1.948

 ******    2 imaginary frequencies (negative Signs) ******

                      1                      2                      3
                      A                      A                      A
 Frequencies --  -1477.6305              -522.4046               608.2837
 Red. masses --      1.0143                 1.1008                 1.0171
 Frc consts  --      1.3048                 0.1770                 0.2217
 IR Inten    --    105.3125                45.3031                 7.1747

                      4
                      A
 Frequencies --    608.2837
 Red. masses --      1.0171
 Frc consts  --      0.2217
 IR Inten    --      7.1747

 - Thermochemistry -
 -------------------
 Temperature   298.150 Kelvin.  Pressure   1.00000 Atm.
 Atom     1 has atomic number  1 and mass   1.00783

 Molecular mass:    21.01405 amu.
 Principal axes and moments of inertia in atomic units:
                           1         2         3
     Eigenvalues --     0.00000  71.76957  71.76957
           X            1.00000  -0.00000   0.00000
           Y            0.00000   1.00000   0.00000
           Z            0.00000   0.00000   1.00000
 This molecule is a prolate symmetric top.
 Rotational symmetry number  1.
 Rotational temperature (Kelvin)      1.20683
 Rotational constant (GHZ):          25.146328
    2 imaginary frequencies ignored.
 Zero-point vibrational energy       7276.7 (Joules/Mol)
                                    1.73917 (Kcal/Mol)
 Warning -- explicit consideration of   2 degrees of freedom as
           vibrations may cause significant error
 Vibrational temperatures:    875.18   875.18
          (Kelvin)

 Zero-point correction=                           0.002772 (Hartree/Particle)
 Thermal correction to Energy=                    0.005443
 Thermal correction to Enthalpy=                  0.006387
 Thermal correction to Gibbs Free Energy=        -0.017490
 Sum of electronic and zero-point Energies=           -100.789766
 Sum of electronic and thermal Energies=              -100.787095
 Sum of electronic and thermal Enthalpies=            -100.786150
 Sum of electronic and thermal Free Energies=         -100.810027

                     E (Thermal)             CV                S
                      KCal/Mol        Cal/Mol-Kelvin    Cal/Mol-Kelvin
 Total                    3.415              6.997             50.253
 Electronic               0.000              0.000              1.377
 Translational            0.889              2.981             35.068
 Rotational               0.592              1.987             12.936
 Vibrational              1.934              2.029              0.871
 Vibration     1          0.967              1.014              0.436
 Vibration     2          0.967              1.014              0.436

 Normal termination of Gaussian 16 at Fri Aug 22 17:07:39 2025.
