 Gaussian 16, Revision C.01,
 Gaussian 16:  ES64L-G16RevC.01  3-Jul-2019

 -----------------------------------------
 # sp b3lyp/6-311g** Force nosymm scf=(qc)
 -----------------------------------------

 -------------------
 Title Card Required
 -------------------
 Symbolic Z-matrix:
 Charge =  0 Multiplicity = 2

                          Input orientation:
 ---------------------------------------------------------------------
 Center     Atomic      Atomic             Coordinates (Angstroms)
 Number     Number       Type             X           Y           Z
 ---------------------------------------------------------------------
      1          1           0        0.000000    0.000000    0.000000
      2          1           0       -3.250000    0.000000    0.000000
      3          9           0        3.950000    0.000000    0.000000
 ---------------------------------------------------------------------

 SCF Done:  E(UB3LYP) =  -100.758970404     a.u. after   36 cycles

 Alpha  occ. eigenvalues --  -24.75859  -1.21788  -0.54984  -0.46166  -0.46166
 Alpha  occ. eigenvalues --   -0.32295
 Alpha virt. eigenvalues --   -0.07119   0.24676   0.37218   0.86622   0.91183
 Alpha virt. eigenvalues --    0.91183   1.01115   1.25220   1.25220   1.25564
 Alpha virt. eigenvalues --    1.45019   1.45230   1.45230   2.15460   2.40442

  Beta  occ. eigenvalues --  -24.72715  -1.12747  -0.43013  -0.43013  -0.32493
  Beta virt. eigenvalues --   -0.25722  -0.06896   0.24520   0.37515   0.92682
  Beta virt. eigenvalues --    0.92682   0.95988   1.05237   1.25006   1.25006
  Beta virt. eigenvalues --    1.25334   1.45357   1.45562   1.45562   2.15467

 Mulliken charges and spin densities:
               1          2
     1  H    0.002687  -0.992820
     2  H    0.000142   0.995977
     3  F   -0.002829   0.996843
 Sum of Mulliken charges =   0.00000   1.00000

 Dipole moment (field-independent basis, Debye):
    X=             -0.0601    Y=             -0.0000    Z=             -0.0000  Tot=              0.0601
 Quadrupole moment (field-independent basis, Debye-Ang):
   XX=             -6.9029   YY=             -7.6287   ZZ=             -7.6287
   XY=             -0.0000   XZ=             -0.0000   YZ=              0.0000

  Exact polarizability:      12.743      -0.000       2.032       0.000       0.000       2.032
 Approx polarizability:       9.532      -0.000       1.936      -0.000       0.000       1.936

 ******    2 imaginary frequencies (negative Signs) ******

                      1                      2                      3
                      A                      A                      A
 Frequencies --   -250.5396               -75.0198                86.6106
 Red. masses --      1.0089                 1.1073                 1.0158
 Frc consts  --      0.0373                 0.0037                 0.0045
 IR Inten    --      0.8656                 0.6391                 0.0066

                      4
                      A
 Frequencies --     86.6106
 Red. masses --      1.0158
 Frc consts  --      0.0045
 IR Inten    --      0.0066

 - Thermochemistry -
 -------------------
 Temperature   298.150 Kelvin.  Pressure   1.00000 Atm.
 Atom     1 has atomic number  1 and mass   1.00783

 Molecular mass:    21.01405 amu.
 Principal axes and moments of inertia in atomic units:
                           1         2         3
     Eigenvalues --     0.00000 221.26721 221.26721
           X            1.00000  -0.00000   0.00000
           Y            0.00000   1.00000   0.00000
           Z            0.00000   0.00000   1.00000
 This molecule is a prolate symmetric top.
 Rotational symmetry number  1.
 Rotational temperature (Kelvin)      0.39144
 Rotational constant (GHZ):           8.156388
    2 imaginary frequencies ignored.
 Zero-point vibrational energy       1036.1 (Joules/Mol)
                                    0.24763 (Kcal/Mol)
 Warning -- explicit consideration of   2 degrees of freedom as
           vibrations may cause significant error
 Vibrational temperatures:    124.61   124.61
          (Kelvin)

 Zero-point correction=                           0.000395 (Hartree/Particle)
 Thermal correction to Energy=                    0.004276
 Thermal correction to Enthalpy=                  0.005220
 Thermal correction to Gibbs Free Energy=        -0.022855
 Sum of electronic and zero-point Energies=           -100.758576
 Sum of electronic and thermal Energies=              -100.754694
 Sum of electronic and thermal Enthalpies=            -100.753750
 Sum of electronic and thermal Free Energies=         -100.781825

                     E (Thermal)             CV                S
                      KCal/Mol        Cal/Mol-Kelvin    Cal/Mol-Kelvin
 Total                    2.683              8.885             59.089
 Electronic               0.000              0.000              1.377
 Translational            0.889              2.981             35.068
 Rotational               0.592              1.987             15.173
 Vibrational              1.202              3.917              7.470
 Vibration     1          0.601              1.959              3.735
 Vibration     2          0.601              1.959              3.735

 Normal termination of Gaussian 16 at Sat Aug 23 01:41:21 2025.
