 Gaussian 16, Revision C.01,
 Gaussian 16:  ES64L-G16RevC.01  3-Jul-2019

 -----------------------------------------
 # sp b3lyp/6-311g** Force nosymm scf=(qc)
 -----------------------------------------

 -------------------
 Title Card Required
 -------------------
 Symbolic Z-matrix:
 Charge =  0 Multiplicity = 2

                          Input orientation:
 ---------------------------------------------------------------------
 Center     Atomic      Atomic             Coordinates (Angstroms)
 Number     Number       Type             X           Y           Z
 ---------------------------------------------------------------------
      1          1           0        0.000000    0.000000    0.000000
      2          1           0       -1.950000    0.000000    0.000000
      3          9           0        3.500000    0.000000    0.000000
 ---------------------------------------------------------------------

 SCF Done:  E(UB3LYP) =  -100.776939631     a.u. after   34 cycles

 Alpha  occ. eigenvalues --  -24.75614  -1.21561  -0.54738  -0.45964  -0.45964
 Alpha  occ. eigenvalues --   -0.33159
 Alpha virt. eigenvalues --   -0.11096   0.25844   0.31928   0.87591   0.91322
 Alpha virt. eigenvalues --    0.91322   1.01706   1.15147   1.24811   1.24811
 Alpha virt. eigenvalues --    1.37575   1.37575   1.53270   2.13223   2.37092

  Beta  occ. eigenvalues --  -24.72492  -1.12586  -0.42834  -0.42834  -0.33213
  Beta virt. eigenvalues --   -0.25658  -0.10877   0.25754   0.32341   0.92814
  Beta virt. eigenvalues --    0.92814   0.96767   1.05759   1.15151   1.24740
  Beta virt. eigenvalues --    1.24740   1.37868   1.37868   1.53489   2.13765

 Mulliken charges and spin densities:
               1          2
     1  H    0.002143  -0.822452
     2  H    0.006336   0.832389
     3  F   -0.008479   0.990063
 Sum of Mulliken charges =   0.00000   1.00000

 Dipole moment (field-independent basis, Debye):
    X=             -0.2104    Y=              0.0000    Z=             -0.0000  Tot=              0.2104
 Quadrupole moment (field-independent basis, Debye-Ang):
   XX=             -6.5230   YY=             -7.7336   ZZ=             -7.7336
   XY=              0.0000   XZ=             -0.0000   YZ=             -0.0000

  Exact polarizability:      43.674      -0.000       2.002       0.000      -0.000       2.002
 Approx polarizability:      39.824       0.000       1.941      -0.000       0.000       1.941

 ******    2 imaginary frequencies (negative Signs) ******

                      1                      2                      3
                      A                      A                      A
 Frequencies --  -1448.1100              -131.8237               599.9033
 Red. masses --      1.0078                 1.1085                 1.0124
 Frc consts  --      1.2452                 0.0113                 0.2147
 IR Inten    --     10.8371                 6.5123                 0.0001

                      4
                      A
 Frequencies --    599.9033
 Red. masses --      1.0124
 Frc consts  --      0.2147
 IR Inten    --      0.0001

 - Thermochemistry -
 -------------------
 Temperature   298.150 Kelvin.  Pressure   1.00000 Atm.
 Atom     1 has atomic number  1 and mass   1.00783

 Molecular mass:    21.01405 amu.
 Principal axes and moments of inertia in atomic units:
                           1         2         3
     Eigenvalues --     0.00000 137.16116 137.16116
           X            1.00000  -0.00000   0.00000
           Y            0.00000   1.00000   0.00000
           Z            0.00000   0.00000   1.00000
 This molecule is a prolate symmetric top.
 Rotational symmetry number  1.
 Rotational temperature (Kelvin)      0.63148
 Rotational constant (GHZ):          13.157815
    2 imaginary frequencies ignored.
 Zero-point vibrational energy       7176.4 (Joules/Mol)
                                    1.71521 (Kcal/Mol)
 Warning -- explicit consideration of   2 degrees of freedom as
           vibrations may cause significant error
 Vibrational temperatures:    863.13   863.13
          (Kelvin)

 Zero-point correction=                           0.002733 (Hartree/Particle)
 Thermal correction to Energy=                    0.005414
 Thermal correction to Enthalpy=                  0.006358
 Thermal correction to Gibbs Free Energy=        -0.018144
 Sum of electronic and zero-point Energies=           -100.774206
 Sum of electronic and thermal Energies=              -100.771526
 Sum of electronic and thermal Enthalpies=            -100.770582
 Sum of electronic and thermal Free Energies=         -100.795083

                     E (Thermal)             CV                S
                      KCal/Mol        Cal/Mol-Kelvin    Cal/Mol-Kelvin
 Total                    3.397              7.032             51.568
 Electronic               0.000              0.000              1.377
 Translational            0.889              2.981             35.068
 Rotational               0.592              1.987             14.223
 Vibrational              1.916              2.064              0.900
 Vibration     1          0.958              1.032              0.450
 Vibration     2          0.958              1.032              0.450

 Normal termination of Gaussian 16 at Fri Aug 22 22:08:55 2025.
