 Gaussian 16, Revision C.01,
 Gaussian 16:  ES64L-G16RevC.01  3-Jul-2019

 -----------------------------------------
 # sp b3lyp/6-311g** Force nosymm scf=(qc)
 -----------------------------------------

 -------------------
 Title Card Required
 -------------------
 Symbolic Z-matrix:
 Charge =  0 Multiplicity = 2

                          Input orientation:
 ---------------------------------------------------------------------
 Center     Atomic      Atomic             Coordinates (Angstroms)
 Number     Number       Type             X           Y           Z
 ---------------------------------------------------------------------
      1          1           0        0.000000    0.000000    0.000000
      2          1           0       -2.250000    0.000000    0.000000
      3          9           0        3.950000    0.000000    0.000000
 ---------------------------------------------------------------------

 SCF Done:  E(UB3LYP) =  -100.766389783     a.u. after   63 cycles

 Alpha  occ. eigenvalues --  -24.75915  -1.21841  -0.55040  -0.46216  -0.46216
 Alpha  occ. eigenvalues --   -0.32688
 Alpha virt. eigenvalues --   -0.10036   0.25992   0.33884   0.86592   0.91140
 Alpha virt. eigenvalues --    0.91140   1.01071   1.24635   1.25116   1.25116
 Alpha virt. eigenvalues --    1.40022   1.40022   1.44856   2.14591   2.35420

  Beta  occ. eigenvalues --  -24.72769  -1.12796  -0.43062  -0.43062  -0.32781
  Beta virt. eigenvalues --   -0.25769  -0.09873   0.25852   0.34115   0.92639
  Beta virt. eigenvalues --    0.92639   0.95972   1.05202   1.24553   1.25015
  Beta virt. eigenvalues --    1.25015   1.40244   1.40244   1.45041   2.14728

 Mulliken charges and spin densities:
               1          2
     1  H    0.000686  -0.932550
     2  H    0.001629   0.935246
     3  F   -0.002315   0.997304
 Sum of Mulliken charges =   0.00000   1.00000

 Dipole moment (field-independent basis, Debye):
    X=             -0.0642    Y=             -0.0000    Z=              0.0000  Tot=              0.0642
 Quadrupole moment (field-independent basis, Debye-Ang):
   XX=             -6.5352   YY=             -7.6940   ZZ=             -7.6940
   XY=             -0.0000   XZ=              0.0001   YZ=             -0.0000

  Exact polarizability:      24.822      -0.000       2.015       0.000      -0.000       2.015
 Approx polarizability:      20.564      -0.000       1.932       0.000      -0.000       1.932

 ******    2 imaginary frequencies (negative Signs) ******

                      1                      2                      3
                      A                      A                      A
 Frequencies --   -947.6516               -74.9039               365.6550
 Red. masses --      1.0078                 1.1085                 1.0126
 Frc consts  --      0.5333                 0.0037                 0.0798
 IR Inten    --      0.6824                 0.7811                 0.0000

                      4
                      A
 Frequencies --    365.6550
 Red. masses --      1.0126
 Frc consts  --      0.0798
 IR Inten    --      0.0000

 - Thermochemistry -
 -------------------
 Temperature   298.150 Kelvin.  Pressure   1.00000 Atm.
 Atom     1 has atomic number  1 and mass   1.00783

 Molecular mass:    21.01405 amu.
 Principal axes and moments of inertia in atomic units:
                           1         2         3
     Eigenvalues --     0.00000 176.71702 176.71702
           X            1.00000  -0.00000   0.00000
           Y            0.00000   1.00000   0.00000
           Z            0.00000   0.00000   1.00000
 This molecule is a prolate symmetric top.
 Rotational symmetry number  1.
 Rotational temperature (Kelvin)      0.49013
 Rotational constant (GHZ):          10.212605
    2 imaginary frequencies ignored.
 Zero-point vibrational energy       4374.2 (Joules/Mol)
                                    1.04546 (Kcal/Mol)
 Warning -- explicit consideration of   2 degrees of freedom as
           vibrations may cause significant error
 Vibrational temperatures:    526.10   526.10
          (Kelvin)

 Zero-point correction=                           0.001666 (Hartree/Particle)
 Thermal correction to Energy=                    0.004715
 Thermal correction to Enthalpy=                  0.005659
 Thermal correction to Gibbs Free Energy=        -0.019698
 Sum of electronic and zero-point Energies=           -100.764724
 Sum of electronic and thermal Energies=              -100.761675
 Sum of electronic and thermal Enthalpies=            -100.760730
 Sum of electronic and thermal Free Energies=         -100.786087

                     E (Thermal)             CV                S
                      KCal/Mol        Cal/Mol-Kelvin    Cal/Mol-Kelvin
 Total                    2.959              8.054             53.368
 Electronic               0.000              0.000              1.377
 Translational            0.889              2.981             35.068
 Rotational               0.592              1.987             14.727
 Vibrational              1.478              3.086              2.196
 Vibration     1          0.739              1.543              1.098
 Vibration     2          0.739              1.543              1.098

 Normal termination of Gaussian 16 at Sat Aug 23 01:38:50 2025.
