 Gaussian 16, Revision C.01,
 Gaussian 16:  ES64L-G16RevC.01  3-Jul-2019

 -----------------------------------------
 # sp b3lyp/6-311g** Force nosymm scf=(qc)
 -----------------------------------------

 -------------------
 Title Card Required
 -------------------
 Symbolic Z-matrix:
 Charge =  0 Multiplicity = 2

                          Input orientation:
 ---------------------------------------------------------------------
 Center     Atomic      Atomic             Coordinates (Angstroms)
 Number     Number       Type             X           Y           Z
 ---------------------------------------------------------------------
      1          1           0        0.000000    0.000000    0.000000
      2          1           0       -1.500000    0.000000    0.000000
      3          9           0        0.500000    0.000000    0.000000
 ---------------------------------------------------------------------

 SCF Done:  E(UB3LYP) =  -100.260076994     a.u. after    6 cycles

 Alpha  occ. eigenvalues --  -24.63374  -1.42997  -0.64283  -0.44705  -0.44705
 Alpha  occ. eigenvalues --   -0.35342
 Alpha virt. eigenvalues --    0.14459   0.22077   0.64800   0.88864   0.89412
 Alpha virt. eigenvalues --    0.89412   1.19022   1.19022   1.44364   1.61837
 Alpha virt. eigenvalues --    1.61837   1.70701   2.00768   2.25772   3.76292

  Beta  occ. eigenvalues --  -24.63286  -1.42702  -0.63948  -0.44653  -0.44653
  Beta virt. eigenvalues --   -0.10734   0.15528   0.31295   0.69929   0.88991
  Beta virt. eigenvalues --    0.89605   0.89605   1.35098   1.35098   1.47098
  Beta virt. eigenvalues --    1.64418   1.64418   1.83700   2.00753   2.50593

 Mulliken charges and spin densities:
               1          2
     1  H    0.094951   0.015043
     2  H    0.008429   0.983701
     3  F   -0.103380   0.001257
 Sum of Mulliken charges =   0.00000   1.00000

 Dipole moment (field-independent basis, Debye):
    X=             -1.2593    Y=              0.0000    Z=              0.0000  Tot=              1.2593
 Quadrupole moment (field-independent basis, Debye-Ang):
   XX=             -6.6185   YY=             -6.3681   ZZ=             -6.3681
   XY=              0.0000   XZ=              0.0000   YZ=              0.0000

  Exact polarizability:       5.532      -0.000       2.476       0.000      -0.000       2.476
 Approx polarizability:       5.214      -0.000       2.493      -0.000      -0.000       2.493

 ******    2 imaginary frequencies (negative Signs) ******

                      1                      2                      3
                      A                      A                      A
 Frequencies --  -9397.6093             -9397.6093               978.4198
 Red. masses --      1.0346                 1.0346                 1.0534
 Frc consts  --     53.8335                53.8335                 0.5941
 IR Inten    --    209.0023               209.0023                 8.7587

                      4
                      A
 Frequencies --  19159.5676
 Red. masses --      1.0582
 Frc consts  --    228.8668
 IR Inten    --     72.6451

 - Thermochemistry -
 -------------------
 Temperature   298.150 Kelvin.  Pressure   1.00000 Atm.
 Atom     1 has atomic number  1 and mass   1.00783

 Molecular mass:    21.01405 amu.
 Principal axes and moments of inertia in atomic units:
                           1         2         3
     Eigenvalues --     0.00000  14.21699  14.21699
           X            1.00000  -0.00000   0.00000
           Y            0.00000   1.00000   0.00000
           Z            0.00000   0.00000   1.00000
 This molecule is a prolate symmetric top.
 Rotational symmetry number  1.
 Rotational temperature (Kelvin)      6.09228
 Rotational constant (GHZ):         126.942539
    2 imaginary frequencies ignored.
 Zero-point vibrational energy     120451.9 (Joules/Mol)
                                   28.78870 (Kcal/Mol)
 Vibrational temperatures:   1407.73 27566.34
          (Kelvin)

 Zero-point correction=                           0.045878 (Hartree/Particle)
 Thermal correction to Energy=                    0.048278
 Thermal correction to Enthalpy=                  0.049222
 Thermal correction to Gibbs Free Energy=         0.027240
 Sum of electronic and zero-point Energies=           -100.214199
 Sum of electronic and thermal Energies=              -100.211799
 Sum of electronic and thermal Enthalpies=            -100.210855
 Sum of electronic and thermal Free Energies=         -100.232837

                     E (Thermal)             CV                S
                      KCal/Mol        Cal/Mol-Kelvin    Cal/Mol-Kelvin
 Total                   30.295              5.369             46.266
 Electronic               0.000              0.000              1.377
 Translational            0.889              2.981             35.068
 Rotational               0.592              1.987              9.719
 Vibrational             28.814              0.401              0.102

 Normal termination of Gaussian 16 at Fri Aug 22 15:36:34 2025.
