 Gaussian 16, Revision C.01,
 Gaussian 16:  ES64L-G16RevC.01  3-Jul-2019

 -----------------------------------------
 # sp b3lyp/6-311g** Force nosymm scf=(qc)
 -----------------------------------------

 -------------------
 Title Card Required
 -------------------
 Symbolic Z-matrix:
 Charge =  0 Multiplicity = 2

                          Input orientation:
 ---------------------------------------------------------------------
 Center     Atomic      Atomic             Coordinates (Angstroms)
 Number     Number       Type             X           Y           Z
 ---------------------------------------------------------------------
      1          1           0        0.000000    0.000000    0.000000
      2          1           0       -1.750000    0.000000    0.000000
      3          9           0        2.650000    0.000000    0.000000
 ---------------------------------------------------------------------

 SCF Done:  E(UB3LYP) =  -100.794474315     a.u. after   23 cycles

 Alpha  occ. eigenvalues --  -24.73174  -1.19293  -0.52303  -0.43910  -0.43910
 Alpha  occ. eigenvalues --   -0.34903
 Alpha virt. eigenvalues --   -0.12163   0.24663   0.30963   0.89996   0.92795
 Alpha virt. eigenvalues --    0.92795   1.04140   1.11694   1.22349   1.22349
 Alpha virt. eigenvalues --    1.35830   1.35830   1.62469   2.13887   2.40032

  Beta  occ. eigenvalues --  -24.70227  -1.10870  -0.40965  -0.40965  -0.34721
  Beta virt. eigenvalues --   -0.24488  -0.11587   0.26105   0.30708   0.94218
  Beta virt. eigenvalues --    0.94218   0.97365   1.06549   1.14615   1.22643
  Beta virt. eigenvalues --    1.22643   1.36502   1.36502   1.63097   2.14923

 Mulliken charges and spin densities:
               1          2
     1  H    0.026749  -0.634449
     2  H    0.031166   0.701867
     3  F   -0.057915   0.932582
 Sum of Mulliken charges =   0.00000   1.00000

 Dipole moment (field-independent basis, Debye):
    X=             -1.0439    Y=             -0.0000    Z=             -0.0000  Tot=              1.0439
 Quadrupole moment (field-independent basis, Debye-Ang):
   XX=             -7.3920   YY=             -7.7061   ZZ=             -7.7061
   XY=             -0.0000   XZ=             -0.0000   YZ=             -0.0000

  Exact polarizability:      63.520      -0.000       2.014      -0.000      -0.000       2.014
 Approx polarizability:      74.308      -0.000       1.960      -0.000      -0.000       1.960

 ******    2 imaginary frequencies (negative Signs) ******

                      1                      2                      3
                      A                      A                      A
 Frequencies --  -1833.9218              -322.2357               815.9541
 Red. masses --      1.0082                 1.1081                 1.0137
 Frc consts  --      1.9978                 0.0678                 0.3976
 IR Inten    --    169.0736                44.1643                 0.1499

                      4
                      A
 Frequencies --    815.9541
 Red. masses --      1.0137
 Frc consts  --      0.3976
 IR Inten    --      0.1499

 - Thermochemistry -
 -------------------
 Temperature   298.150 Kelvin.  Pressure   1.00000 Atm.
 Atom     1 has atomic number  1 and mass   1.00783

 Molecular mass:    21.01405 amu.
 Principal axes and moments of inertia in atomic units:
                           1         2         3
     Eigenvalues --     0.00000  86.37185  86.37185
           X            1.00000  -0.00000   0.00000
           Y            0.00000   1.00000   0.00000
           Z            0.00000   0.00000   1.00000
 This molecule is a prolate symmetric top.
 Rotational symmetry number  1.
 Rotational temperature (Kelvin)      1.00280
 Rotational constant (GHZ):          20.895017
    2 imaginary frequencies ignored.
 Zero-point vibrational energy       9761.0 (Joules/Mol)
                                    2.33293 (Kcal/Mol)
 Vibrational temperatures:   1173.98  1173.98
          (Kelvin)

 Zero-point correction=                           0.003718 (Hartree/Particle)
 Thermal correction to Energy=                    0.006226
 Thermal correction to Enthalpy=                  0.007170
 Thermal correction to Gibbs Free Energy=        -0.016652
 Sum of electronic and zero-point Energies=           -100.790757
 Sum of electronic and thermal Energies=              -100.788248
 Sum of electronic and thermal Enthalpies=            -100.787304
 Sum of electronic and thermal Free Energies=         -100.811127

                     E (Thermal)             CV                S
                      KCal/Mol        Cal/Mol-Kelvin    Cal/Mol-Kelvin
 Total                    3.907              6.218             50.139
 Electronic               0.000              0.000              1.377
 Translational            0.889              2.981             35.068
 Rotational               0.592              1.987             13.304
 Vibrational              2.426              1.250              0.389

 Normal termination of Gaussian 16 at Fri Aug 22 18:14:02 2025.
