 Gaussian 16, Revision C.01,
 Gaussian 16:  ES64L-G16RevC.01  3-Jul-2019

 -----------------------------------------
 # sp b3lyp/6-311g** Force nosymm scf=(qc)
 -----------------------------------------

 -------------------
 Title Card Required
 -------------------
 Symbolic Z-matrix:
 Charge =  0 Multiplicity = 2

                          Input orientation:
 ---------------------------------------------------------------------
 Center     Atomic      Atomic             Coordinates (Angstroms)
 Number     Number       Type             X           Y           Z
 ---------------------------------------------------------------------
      1          1           0        0.000000    0.000000    0.000000
      2          1           0       -2.700000    0.000000    0.000000
      3          9           0        0.800000    0.000000    0.000000
 ---------------------------------------------------------------------

 SCF Done:  E(UB3LYP) =  -100.950491028     a.u. after    6 cycles

 Alpha  occ. eigenvalues --  -24.63631  -1.22996  -0.56168  -0.40606  -0.40606
 Alpha  occ. eigenvalues --   -0.34345
 Alpha virt. eigenvalues --    0.05937   0.25457   0.45829   0.94247   0.94247
 Alpha virt. eigenvalues --    0.96957   1.20348   1.23197   1.23197   1.37180
 Alpha virt. eigenvalues --    1.39863   1.39863   2.03114   2.14314   2.53153

  Beta  occ. eigenvalues --  -24.63624  -1.22977  -0.56143  -0.40601  -0.40601
  Beta virt. eigenvalues --   -0.07868   0.07292   0.38136   0.46125   0.94247
  Beta virt. eigenvalues --    0.94247   0.96991   1.29820   1.39858   1.39858
  Beta virt. eigenvalues --    1.47436   1.47436   1.52373   2.03024   2.42809

 Mulliken charges and spin densities:
               1          2
     1  H    0.271939   0.002486
     2  H    0.003613   0.994828
     3  F   -0.275553   0.002686
 Sum of Mulliken charges =   0.00000   1.00000

 Dipole moment (field-independent basis, Debye):
    X=             -1.7829    Y=             -0.0000    Z=              0.0000  Tot=              1.7829
 Quadrupole moment (field-independent basis, Debye-Ang):
   XX=             -7.4561   YY=             -6.7656   ZZ=             -6.7656
   XY=             -0.0000   XZ=              0.0000   YZ=              0.0000

  Exact polarizability:       5.899       0.000       2.463      -0.000      -0.000       2.463
 Approx polarizability:       6.290       0.000       2.446      -0.000      -0.000       2.446

 ******    2 imaginary frequencies (negative Signs) ******

                      1                      2                      3
                      A                      A                      A
 Frequencies --  -1965.3161             -1965.3161                17.0756
 Red. masses --      1.0364                 1.0364                 1.0532
 Frc consts  --      2.3586                 2.3586                 0.0002
 IR Inten    --    186.2713               186.2713                 0.2593

                      4
                      A
 Frequencies --   6348.0135
 Red. masses --      1.0583
 Frc consts  --     25.1275
 IR Inten    --    120.2162

 - Thermochemistry -
 -------------------
 Temperature   298.150 Kelvin.  Pressure   1.00000 Atm.
 Atom     1 has atomic number  1 and mass   1.00783

 Molecular mass:    21.01405 amu.
 Principal axes and moments of inertia in atomic units:
                           1         2         3
     Eigenvalues --     0.00000  43.19972  43.19972
           X            1.00000  -0.00000   0.00000
           Y            0.00000   1.00000   0.00000
           Z            0.00000   0.00000   1.00000
 This molecule is a prolate symmetric top.
 Rotational symmetry number  1.
 Rotational temperature (Kelvin)      2.00496
 Rotational constant (GHZ):          41.776689
    2 imaginary frequencies ignored.
 Zero-point vibrational energy      38071.7 (Joules/Mol)
                                    9.09935 (Kcal/Mol)
 Warning -- explicit consideration of   1 degrees of freedom as
           vibrations may cause significant error
 Vibrational temperatures:     24.57  9133.38
          (Kelvin)

 Zero-point correction=                           0.014501 (Hartree/Particle)
 Thermal correction to Energy=                    0.017767
 Thermal correction to Enthalpy=                  0.018711
 Thermal correction to Gibbs Free Energy=        -0.007573
 Sum of electronic and zero-point Energies=           -100.935990
 Sum of electronic and thermal Energies=              -100.932724
 Sum of electronic and thermal Enthalpies=            -100.931780
 Sum of electronic and thermal Free Energies=         -100.958064

                     E (Thermal)             CV                S
                      KCal/Mol        Cal/Mol-Kelvin    Cal/Mol-Kelvin
 Total                   11.149              6.954             55.321
 Electronic               0.000              0.000              1.377
 Translational            0.889              2.981             35.068
 Rotational               0.592              1.987             11.927
 Vibrational              9.668              1.986              6.948
 Vibration     1          0.593              1.986              6.948

 Normal termination of Gaussian 16 at Fri Aug 22 15:51:34 2025.
