 Gaussian 16, Revision C.01,
 Gaussian 16:  ES64L-G16RevC.01  3-Jul-2019

 -----------------------------------------
 # sp b3lyp/6-311g** Force nosymm scf=(qc)
 -----------------------------------------

 -------------------
 Title Card Required
 -------------------
 Symbolic Z-matrix:
 Charge =  0 Multiplicity = 2

                          Input orientation:
 ---------------------------------------------------------------------
 Center     Atomic      Atomic             Coordinates (Angstroms)
 Number     Number       Type             X           Y           Z
 ---------------------------------------------------------------------
      1          1           0        0.000000    0.000000    0.000000
      2          1           0       -2.250000    0.000000    0.000000
      3          9           0        0.750000    0.000000    0.000000
 ---------------------------------------------------------------------

 SCF Done:  E(UB3LYP) =  -100.922119775     a.u. after    6 cycles

 Alpha  occ. eigenvalues --  -24.63351  -1.25383  -0.57377  -0.41096  -0.41096
 Alpha  occ. eigenvalues --   -0.34982
 Alpha virt. eigenvalues --    0.08211   0.25104   0.48408   0.94012   0.94012
 Alpha virt. eigenvalues --    0.96394   1.15756   1.22558   1.22558   1.41806
 Alpha virt. eigenvalues --    1.41806   1.48218   1.98837   2.16002   2.67759

  Beta  occ. eigenvalues --  -24.63331  -1.25328  -0.57289  -0.41082  -0.41082
  Beta virt. eigenvalues --   -0.09648   0.09800   0.36983   0.48201   0.94011
  Beta virt. eigenvalues --    0.94011   0.96661   1.26235   1.41611   1.41611
  Beta virt. eigenvalues --    1.43740   1.43740   1.59607   2.00142   2.42557

 Mulliken charges and spin densities:
               1          2
     1  H    0.259373   0.005800
     2  H    0.007353   0.988817
     3  F   -0.266726   0.005383
 Sum of Mulliken charges =   0.00000   1.00000

 Dipole moment (field-independent basis, Debye):
    X=             -1.7412    Y=              0.0000    Z=              0.0000  Tot=              1.7412
 Quadrupole moment (field-independent basis, Debye-Ang):
   XX=             -7.2046   YY=             -6.7001   ZZ=             -6.7001
   XY=             -0.0000   XZ=              0.0000   YZ=              0.0000

  Exact polarizability:       6.441       0.000       2.486      -0.000      -0.000       2.486
 Approx polarizability:       6.560       0.000       2.474      -0.000      -0.000       2.474

 ******    2 imaginary frequencies (negative Signs) ******

                      1                      2                      3
                      A                      A                      A
 Frequencies --  -2670.4517             -2670.4517               185.7166
 Red. masses --      1.0346                 1.0346                 1.0532
 Frc consts  --      4.3470                 4.3470                 0.0214
 IR Inten    --    181.9249               181.9249                 0.3720

                      4
                      A
 Frequencies --   7582.9997
 Red. masses --      1.0583
 Frc consts  --     35.8549
 IR Inten    --    135.9553

 - Thermochemistry -
 -------------------
 Temperature   298.150 Kelvin.  Pressure   1.00000 Atm.
 Atom     1 has atomic number  1 and mass   1.00783

 Molecular mass:    21.01405 amu.
 Principal axes and moments of inertia in atomic units:
                           1         2         3
     Eigenvalues --     0.00000  31.98823  31.98823
           X            1.00000  -0.00000   0.00000
           Y            0.00000   1.00000   0.00000
           Z            0.00000   0.00000   1.00000
 This molecule is a prolate symmetric top.
 Rotational symmetry number  1.
 Rotational temperature (Kelvin)      2.70768
 Rotational constant (GHZ):          56.418906
    2 imaginary frequencies ignored.
 Zero-point vibrational energy      46467.2 (Joules/Mol)
                                   11.10594 (Kcal/Mol)
 Warning -- explicit consideration of   1 degrees of freedom as
           vibrations may cause significant error
 Vibrational temperatures:    267.20 10910.25
          (Kelvin)

 Zero-point correction=                           0.017698 (Hartree/Particle)
 Thermal correction to Energy=                    0.020642
 Thermal correction to Enthalpy=                  0.021587
 Thermal correction to Gibbs Free Energy=        -0.002192
 Sum of electronic and zero-point Energies=           -100.904421
 Sum of electronic and thermal Energies=              -100.901477
 Sum of electronic and thermal Enthalpies=            -100.900533
 Sum of electronic and thermal Free Energies=         -100.924312

                     E (Thermal)             CV                S
                      KCal/Mol        Cal/Mol-Kelvin    Cal/Mol-Kelvin
 Total                   12.953              6.827             50.046
 Electronic               0.000              0.000              1.377
 Translational            0.889              2.981             35.068
 Rotational               0.592              1.987             11.330
 Vibrational             11.472              1.859              2.270
 Vibration     1          0.632              1.859              2.270

 Normal termination of Gaussian 16 at Fri Aug 22 15:48:55 2025.
