 Gaussian 16, Revision C.01,
 Gaussian 16:  ES64L-G16RevC.01  3-Jul-2019

 -----------------------------------------
 # sp b3lyp/6-311g** Force nosymm scf=(qc)
 -----------------------------------------

 -------------------
 Title Card Required
 -------------------
 Symbolic Z-matrix:
 Charge =  0 Multiplicity = 2

                          Input orientation:
 ---------------------------------------------------------------------
 Center     Atomic      Atomic             Coordinates (Angstroms)
 Number     Number       Type             X           Y           Z
 ---------------------------------------------------------------------
      1          1           0        0.000000    0.000000    0.000000
      2          1           0       -3.450000    0.000000    0.000000
      3          9           0        3.350000    0.000000    0.000000
 ---------------------------------------------------------------------

 SCF Done:  E(UB3LYP) =  -100.759532406     a.u. after   26 cycles

 Alpha  occ. eigenvalues --  -24.75095  -1.21079  -0.54216  -0.45521  -0.45521
 Alpha  occ. eigenvalues --   -0.32395
 Alpha virt. eigenvalues --   -0.07331   0.24276   0.36652   0.88107   0.91661
 Alpha virt. eigenvalues --    0.91661   1.02272   1.25111   1.25111   1.25295
 Alpha virt. eigenvalues --    1.44849   1.44849   1.44918   2.15042   2.40981

  Beta  occ. eigenvalues --  -24.71999  -1.12191  -0.42420  -0.42420  -0.33037
  Beta virt. eigenvalues --   -0.25330  -0.06583   0.24051   0.37837   0.93145
  Beta virt. eigenvalues --    0.93145   0.97139   1.06218   1.24369   1.24369
  Beta virt. eigenvalues --    1.24541   1.45768   1.46012   1.46012   2.15335

 Mulliken charges and spin densities:
               1          2
     1  H    0.016782  -0.978899
     2  H    0.000278   0.997625
     3  F   -0.017059   0.981274
 Sum of Mulliken charges =  -0.00000   1.00000

 Dipole moment (field-independent basis, Debye):
    X=             -0.2984    Y=             -0.0000    Z=             -0.0000  Tot=              0.2984
 Quadrupole moment (field-independent basis, Debye-Ang):
   XX=             -7.6306   YY=             -7.6205   ZZ=             -7.6205
   XY=              0.0000   XZ=              0.0000   YZ=             -0.0000

  Exact polarizability:      27.387       0.000       2.031       0.000      -0.000       2.031
 Approx polarizability:      23.141       0.000       1.931       0.000       0.000       1.931

 ******    2 imaginary frequencies (negative Signs) ******

                      1                      2                      3
                      A                      A                      A
 Frequencies --   -282.0050              -114.4346                91.8386
 Red. masses --      1.0322                 1.0804                 1.0183
 Frc consts  --      0.0484                 0.0083                 0.0051
 IR Inten    --     17.0632                 1.4025                 0.2542

                      4
                      A
 Frequencies --     91.8387
 Red. masses --      1.0183
 Frc consts  --      0.0051
 IR Inten    --      0.2542

 - Thermochemistry -
 -------------------
 Temperature   298.150 Kelvin.  Pressure   1.00000 Atm.
 Atom     1 has atomic number  1 and mass   1.00783

 Molecular mass:    21.01405 amu.
 Principal axes and moments of inertia in atomic units:
                           1         2         3
     Eigenvalues --     0.00000 189.02563 189.02563
           X            1.00000  -0.00000   0.00000
           Y            0.00000   1.00000   0.00000
           Z            0.00000   0.00000   1.00000
 This molecule is a prolate symmetric top.
 Rotational symmetry number  1.
 Rotational temperature (Kelvin)      0.45821
 Rotational constant (GHZ):           9.547600
    2 imaginary frequencies ignored.
 Zero-point vibrational energy       1098.6 (Joules/Mol)
                                    0.26258 (Kcal/Mol)
 Warning -- explicit consideration of   2 degrees of freedom as
           vibrations may cause significant error
 Vibrational temperatures:    132.14   132.14
          (Kelvin)

 Zero-point correction=                           0.000418 (Hartree/Particle)
 Thermal correction to Energy=                    0.004280
 Thermal correction to Enthalpy=                  0.005224
 Thermal correction to Gibbs Free Energy=        -0.022594
 Sum of electronic and zero-point Energies=           -100.759114
 Sum of electronic and thermal Energies=              -100.755253
 Sum of electronic and thermal Enthalpies=            -100.754309
 Sum of electronic and thermal Free Energies=         -100.782126

                     E (Thermal)             CV                S
                      KCal/Mol        Cal/Mol-Kelvin    Cal/Mol-Kelvin
 Total                    2.686              8.878             58.547
 Electronic               0.000              0.000              1.377
 Translational            0.889              2.981             35.068
 Rotational               0.592              1.987             14.860
 Vibrational              1.204              3.910              7.241
 Vibration     1          0.602              1.955              3.621
 Vibration     2          0.602              1.955              3.621

 Normal termination of Gaussian 16 at Fri Aug 22 21:03:09 2025.
