 Gaussian 16, Revision C.01,
 Gaussian 16:  ES64L-G16RevC.01  3-Jul-2019

 -----------------------------------------
 # sp b3lyp/6-311g** Force nosymm scf=(qc)
 -----------------------------------------

 -------------------
 Title Card Required
 -------------------
 Symbolic Z-matrix:
 Charge =  0 Multiplicity = 2

                          Input orientation:
 ---------------------------------------------------------------------
 Center     Atomic      Atomic             Coordinates (Angstroms)
 Number     Number       Type             X           Y           Z
 ---------------------------------------------------------------------
      1          1           0        0.000000    0.000000    0.000000
      2          1           0       -2.850000    0.000000    0.000000
      3          9           0        3.500000    0.000000    0.000000
 ---------------------------------------------------------------------

 SCF Done:  E(UB3LYP) =  -100.760529423     a.u. after   34 cycles

 Alpha  occ. eigenvalues --  -24.75413  -1.21373  -0.54535  -0.45789  -0.45789
 Alpha  occ. eigenvalues --   -0.32498
 Alpha virt. eigenvalues --   -0.08457   0.25199   0.35439   0.87611   0.91463
 Alpha virt. eigenvalues --    0.91463   1.01804   1.25059   1.25059   1.26093
 Alpha virt. eigenvalues --    1.43223   1.43223   1.43450   2.15886   2.38904

  Beta  occ. eigenvalues --  -24.72298  -1.12423  -0.42667  -0.42667  -0.32898
  Beta virt. eigenvalues --   -0.25503  -0.07917   0.24982   0.36256   0.92953
  Beta virt. eigenvalues --    0.92953   0.96766   1.05830   1.24593   1.24593
  Beta virt. eigenvalues --    1.25573   1.44076   1.44076   1.44291   2.16253

 Mulliken charges and spin densities:
               1          2
     1  H    0.010173  -0.976387
     2  H    0.000971   0.988754
     3  F   -0.011144   0.987633
 Sum of Mulliken charges =   0.00000   1.00000

 Dipole moment (field-independent basis, Debye):
    X=             -0.2137    Y=             -0.0000    Z=              0.0000  Tot=              0.2137
 Quadrupole moment (field-independent basis, Debye-Ang):
   XX=             -7.2694   YY=             -7.6410   ZZ=             -7.6410
   XY=              0.0000   XZ=             -0.0000   YZ=             -0.0000

  Exact polarizability:      27.705       0.000       2.029      -0.000      -0.000       2.029
 Approx polarizability:      21.313       0.000       1.931      -0.000       0.000       1.931

 ******    2 imaginary frequencies (negative Signs) ******

                      1                      2                      3
                      A                      A                      A
 Frequencies --   -425.9137              -134.9416               149.7474
 Red. masses --      1.0093                 1.1067                 1.0156
 Frc consts  --      0.1079                 0.0119                 0.0134
 IR Inten    --      6.8670                 4.8678                 0.0820

                      4
                      A
 Frequencies --    149.7475
 Red. masses --      1.0156
 Frc consts  --      0.0134
 IR Inten    --      0.0820

 - Thermochemistry -
 -------------------
 Temperature   298.150 Kelvin.  Pressure   1.00000 Atm.
 Atom     1 has atomic number  1 and mass   1.00783

 Molecular mass:    21.01405 amu.
 Principal axes and moments of inertia in atomic units:
                           1         2         3
     Eigenvalues --     0.00000 172.46212 172.46212
           X            1.00000  -0.00000   0.00000
           Y            0.00000   1.00000   0.00000
           Z            0.00000   0.00000   1.00000
 This molecule is a prolate symmetric top.
 Rotational symmetry number  1.
 Rotational temperature (Kelvin)      0.50222
 Rotational constant (GHZ):          10.464566
    2 imaginary frequencies ignored.
 Zero-point vibrational energy       1791.4 (Joules/Mol)
                                    0.42815 (Kcal/Mol)
 Warning -- explicit consideration of   2 degrees of freedom as
           vibrations may cause significant error
 Vibrational temperatures:    215.45   215.45
          (Kelvin)

 Zero-point correction=                           0.000682 (Hartree/Particle)
 Thermal correction to Energy=                    0.004330
 Thermal correction to Enthalpy=                  0.005274
 Thermal correction to Gibbs Free Energy=        -0.021558
 Sum of electronic and zero-point Energies=           -100.759847
 Sum of electronic and thermal Energies=              -100.756199
 Sum of electronic and thermal Enthalpies=            -100.755255
 Sum of electronic and thermal Free Energies=         -100.782088

                     E (Thermal)             CV                S
                      KCal/Mol        Cal/Mol-Kelvin    Cal/Mol-Kelvin
 Total                    2.717              8.774             56.474
 Electronic               0.000              0.000              1.377
 Translational            0.889              2.981             35.068
 Rotational               0.592              1.987             14.678
 Vibrational              1.236              3.806              5.351
 Vibration     1          0.618              1.903              2.675
 Vibration     2          0.618              1.903              2.675

 Normal termination of Gaussian 16 at Fri Aug 22 22:10:20 2025.
