 Gaussian 16, Revision C.01,
 Gaussian 16:  ES64L-G16RevC.01  3-Jul-2019

 -----------------------------------------
 # sp b3lyp/6-311g** Force nosymm scf=(qc)
 -----------------------------------------

 -------------------
 Title Card Required
 -------------------
 Symbolic Z-matrix:
 Charge =  0 Multiplicity = 2

                          Input orientation:
 ---------------------------------------------------------------------
 Center     Atomic      Atomic             Coordinates (Angstroms)
 Number     Number       Type             X           Y           Z
 ---------------------------------------------------------------------
      1          1           0        0.000000    0.000000    0.000000
      2          1           0       -2.600000    0.000000    0.000000
      3          9           0        4.000000    0.000000    0.000000
 ---------------------------------------------------------------------

 SCF Done:  E(UB3LYP) =  -100.761552127     a.u. after   41 cycles

 Alpha  occ. eigenvalues --  -24.75905  -1.21831  -0.55030  -0.46206  -0.46206
 Alpha  occ. eigenvalues --   -0.32472
 Alpha virt. eigenvalues --   -0.08828   0.25687   0.35187   0.86548   0.91151
 Alpha virt. eigenvalues --    0.91151   1.01062   1.25142   1.25142   1.26638
 Alpha virt. eigenvalues --    1.42474   1.42474   1.43499   2.16063   2.37493

  Beta  occ. eigenvalues --  -24.72759  -1.12784  -0.43052  -0.43052  -0.32609
  Beta virt. eigenvalues --   -0.25752  -0.08637   0.25541   0.35430   0.92650
  Beta virt. eigenvalues --    0.92650   0.95937   1.05195   1.24995   1.24995
  Beta virt. eigenvalues --    1.26474   1.42748   1.42748   1.43771   2.16119

 Mulliken charges and spin densities:
               1          2
     1  H    0.001510  -0.974677
     2  H    0.000676   0.977166
     3  F   -0.002186   0.997510
 Sum of Mulliken charges =   0.00000   1.00000

 Dipole moment (field-independent basis, Debye):
    X=             -0.0535    Y=              0.0000    Z=             -0.0000  Tot=              0.0535
 Quadrupole moment (field-independent basis, Debye-Ang):
   XX=             -6.7192   YY=             -7.6590   ZZ=             -7.6590
   XY=              0.0000   XZ=             -0.0000   YZ=             -0.0000

  Exact polarizability:      17.461      -0.000       2.023      -0.000      -0.000       2.023
 Approx polarizability:      13.400       0.000       1.932      -0.000       0.000       1.932

 ******    2 imaginary frequencies (negative Signs) ******

                      1                      2                      3
                      A                      A                      A
 Frequencies --   -572.2261               -74.6172               210.2788
 Red. masses --      1.0079                 1.1085                 1.0136
 Frc consts  --      0.1944                 0.0036                 0.0264
 IR Inten    --      0.4915                 0.5868                 0.0015

                      4
                      A
 Frequencies --    210.2788
 Red. masses --      1.0136
 Frc consts  --      0.0264
 IR Inten    --      0.0015

 - Thermochemistry -
 -------------------
 Temperature   298.150 Kelvin.  Pressure   1.00000 Atm.
 Atom     1 has atomic number  1 and mass   1.00783

 Molecular mass:    21.01405 amu.
 Principal axes and moments of inertia in atomic units:
                           1         2         3
     Eigenvalues --     0.00000 194.96284 194.96284
           X            1.00000  -0.00000   0.00000
           Y            0.00000   1.00000   0.00000
           Z            0.00000   0.00000   1.00000
 This molecule is a prolate symmetric top.
 Rotational symmetry number  1.
 Rotational temperature (Kelvin)      0.44426
 Rotational constant (GHZ):           9.256847
    2 imaginary frequencies ignored.
 Zero-point vibrational energy       2515.5 (Joules/Mol)
                                    0.60122 (Kcal/Mol)
 Warning -- explicit consideration of   2 degrees of freedom as
           vibrations may cause significant error
 Vibrational temperatures:    302.54   302.54
          (Kelvin)

 Zero-point correction=                           0.000958 (Hartree/Particle)
 Thermal correction to Energy=                    0.004408
 Thermal correction to Enthalpy=                  0.005352
 Thermal correction to Gibbs Free Energy=        -0.020994
 Sum of electronic and zero-point Energies=           -100.760594
 Sum of electronic and thermal Energies=              -100.757144
 Sum of electronic and thermal Enthalpies=            -100.756200
 Sum of electronic and thermal Free Energies=         -100.782546

                     E (Thermal)             CV                S
                      KCal/Mol        Cal/Mol-Kelvin    Cal/Mol-Kelvin
 Total                    2.766              8.618             55.450
 Electronic               0.000              0.000              1.377
 Translational            0.889              2.981             35.068
 Rotational               0.592              1.987             14.922
 Vibrational              1.285              3.650              4.083
 Vibration     1          0.642              1.825              2.041
 Vibration     2          0.642              1.825              2.041

 Normal termination of Gaussian 16 at Sat Aug 23 01:55:44 2025.
