 Gaussian 16, Revision C.01,
 Gaussian 16:  ES64L-G16RevC.01  3-Jul-2019

 -----------------------------------------
 # sp b3lyp/6-311g** Force nosymm scf=(qc)
 -----------------------------------------

 -------------------
 Title Card Required
 -------------------
 Symbolic Z-matrix:
 Charge =  0 Multiplicity = 2

                          Input orientation:
 ---------------------------------------------------------------------
 Center     Atomic      Atomic             Coordinates (Angstroms)
 Number     Number       Type             X           Y           Z
 ---------------------------------------------------------------------
      1          1           0        0.000000    0.000000    0.000000
      2          1           0       -0.500000    0.000000    0.000000
      3          9           0        0.600000    0.000000    0.000000
 ---------------------------------------------------------------------

 SCF Done:  E(UB3LYP) =  -100.365021249     a.u. after    6 cycles

 Alpha  occ. eigenvalues --  -24.72568  -1.53105  -0.77604  -0.52161  -0.52161
 Alpha  occ. eigenvalues --   -0.22847
 Alpha virt. eigenvalues --    0.16417   0.19541   0.81872   0.82158   0.82158
 Alpha virt. eigenvalues --    0.94952   1.12184   1.12184   1.44961   1.52689
 Alpha virt. eigenvalues --    2.08269   2.08269   2.20258   3.68921   3.68921

  Beta  occ. eigenvalues --  -24.71586  -1.49786  -0.74602  -0.51327  -0.51327
  Beta virt. eigenvalues --   -0.05968   0.17113   0.25410   0.83346   0.83601
  Beta virt. eigenvalues --    0.83601   1.00868   1.17093   1.17093   1.46316
  Beta virt. eigenvalues --    1.56562   2.13687   2.13687   2.28287   3.69435

 Mulliken charges and spin densities:
               1          2
     1  H    0.263217  -0.152380
     2  H   -0.278242   1.074180
     3  F    0.015024   0.078200
 Sum of Mulliken charges =   0.00000   1.00000

 Dipole moment (field-independent basis, Debye):
    X=              0.2249    Y=              0.0000    Z=              0.0000  Tot=              0.2249
 Quadrupole moment (field-independent basis, Debye-Ang):
   XX=             -7.7359   YY=             -6.5486   ZZ=             -6.5486
   XY=              0.0000   XZ=              0.0000   YZ=              0.0000

  Exact polarizability:       8.756      -0.000       2.394      -0.000      -0.000       2.394
 Approx polarizability:       8.394      -0.000       2.518      -0.000      -0.000       2.518

 ******    2 imaginary frequencies (negative Signs) ******

                      1                      2                      3
                      A                      A                      A
 Frequencies --  -7698.7388             -7698.7388              6557.7065
 Red. masses --      1.0159                 1.0159                 1.0806
 Frc consts  --     35.4759                35.4759                27.3790
 IR Inten    --    196.9798               196.9798               782.0431

                      4
                      A
 Frequencies --  14859.6094
 Red. masses --      1.0321
 Frc consts  --    134.2681
 IR Inten    --      0.5130

 - Thermochemistry -
 -------------------
 Temperature   298.150 Kelvin.  Pressure   1.00000 Atm.
 Atom     1 has atomic number  1 and mass   1.00783

 Molecular mass:    21.01405 amu.
 Principal axes and moments of inertia in atomic units:
                           1         2         3
     Eigenvalues --     0.00000   5.15161   5.15161
           X            1.00000  -0.00000   0.00000
           Y            0.00000   1.00000   0.00000
           Z            0.00000   0.00000   1.00000
 This molecule is a prolate symmetric top.
 Rotational symmetry number  1.
 Rotational temperature (Kelvin)     16.81298
 Rotational constant (GHZ):         350.325705
    2 imaginary frequencies ignored.
 Zero-point vibrational energy     128104.0 (Joules/Mol)
                                   30.61759 (Kcal/Mol)
 Vibrational temperatures:   9435.08 21379.66
          (Kelvin)

 Zero-point correction=                           0.048792 (Hartree/Particle)
 Thermal correction to Energy=                    0.051153
 Thermal correction to Enthalpy=                  0.052097
 Thermal correction to Gibbs Free Energy=         0.031121
 Sum of electronic and zero-point Energies=           -100.316229
 Sum of electronic and thermal Energies=              -100.313869
 Sum of electronic and thermal Enthalpies=            -100.312924
 Sum of electronic and thermal Free Energies=         -100.333900

                     E (Thermal)             CV                S
                      KCal/Mol        Cal/Mol-Kelvin    Cal/Mol-Kelvin
 Total                   32.099              4.968             44.147
 Electronic               0.000              0.000              1.377
 Translational            0.889              2.981             35.068
 Rotational               0.592              1.987              7.701
 Vibrational             30.618              0.000              0.000

 Normal termination of Gaussian 16 at Fri Aug 22 15:40:38 2025.
