 Gaussian 16, Revision C.01,
 Gaussian 16:  ES64L-G16RevC.01  3-Jul-2019

 -----------------------------------------
 # sp b3lyp/6-311g** Force nosymm scf=(qc)
 -----------------------------------------

 -------------------
 Title Card Required
 -------------------
 Symbolic Z-matrix:
 Charge =  0 Multiplicity = 2

                          Input orientation:
 ---------------------------------------------------------------------
 Center     Atomic      Atomic             Coordinates (Angstroms)
 Number     Number       Type             X           Y           Z
 ---------------------------------------------------------------------
      1          1           0        0.000000    0.000000    0.000000
      2          1           0       -2.750000    0.000000    0.000000
      3          9           0        1.700000    0.000000    0.000000
 ---------------------------------------------------------------------

 SCF Done:  E(UB3LYP) =  -100.815499310     a.u. after   11 cycles

 Alpha  occ. eigenvalues --  -24.63829  -1.08420  -0.40760  -0.35656  -0.35656
 Alpha  occ. eigenvalues --   -0.35233
 Alpha virt. eigenvalues --   -0.18472   0.21296   0.26791   0.95098   0.95098
 Alpha virt. eigenvalues --    0.97264   1.07893   1.22179   1.22179   1.23449
 Alpha virt. eigenvalues --    1.27533   1.27533   1.70766   2.13106   2.16210

  Beta  occ. eigenvalues --  -24.63927  -1.08686  -0.40769  -0.35751  -0.35751
  Beta virt. eigenvalues --   -0.18862  -0.08482   0.24486   0.36138   0.95158
  Beta virt. eigenvalues --    0.95158   0.97463   1.07974   1.28339   1.28339
  Beta virt. eigenvalues --    1.43276   1.43276   1.43455   1.71401   2.17308

 Mulliken charges and spin densities:
               1          2
     1  H    0.315487   0.048023
     2  H    0.015937   0.983208
     3  F   -0.331424  -0.031231
 Sum of Mulliken charges =  -0.00000   1.00000

 Dipole moment (field-independent basis, Debye):
    X=             -2.9843    Y=             -0.0000    Z=             -0.0000  Tot=              2.9843
 Quadrupole moment (field-independent basis, Debye-Ang):
   XX=            -10.1737   YY=             -7.4227   ZZ=             -7.4227
   XY=             -0.0000   XZ=             -0.0000   YZ=              0.0000

  Exact polarizability:      27.250      -0.000       2.107      -0.000       0.000       2.107
 Approx polarizability:      54.105      -0.000       2.022      -0.000       0.000       2.022

 ******    2 imaginary frequencies (negative Signs) ******

                      1                      2                      3
                      A                      A                      A
 Frequencies --  -1226.4423              -202.6708               853.8026
 Red. masses --      1.0524                 1.0592                 1.0247
 Frc consts  --      0.9326                 0.0256                 0.4401
 IR Inten    --    123.7326                 5.4911                88.5850

                      4
                      A
 Frequencies --    853.8026
 Red. masses --      1.0247
 Frc consts  --      0.4401
 IR Inten    --     88.5850

 - Thermochemistry -
 -------------------
 Temperature   298.150 Kelvin.  Pressure   1.00000 Atm.
 Atom     1 has atomic number  1 and mass   1.00783

 Molecular mass:    21.01405 amu.
 Principal axes and moments of inertia in atomic units:
                           1         2         3
     Eigenvalues --     0.00000  75.14208  75.14208
           X            1.00000  -0.00000   0.00000
           Y            0.00000   1.00000   0.00000
           Z            0.00000   0.00000   1.00000
 This molecule is a prolate symmetric top.
 Rotational symmetry number  1.
 Rotational temperature (Kelvin)      1.15267
 Rotational constant (GHZ):          24.017718
    2 imaginary frequencies ignored.
 Zero-point vibrational energy      10213.7 (Joules/Mol)
                                    2.44114 (Kcal/Mol)
 Vibrational temperatures:   1228.43  1228.43
          (Kelvin)

 Zero-point correction=                           0.003890 (Hartree/Particle)
 Thermal correction to Energy=                    0.006379
 Thermal correction to Enthalpy=                  0.007323
 Thermal correction to Gibbs Free Energy=        -0.016342
 Sum of electronic and zero-point Energies=           -100.811609
 Sum of electronic and thermal Energies=              -100.809120
 Sum of electronic and thermal Enthalpies=            -100.808176
 Sum of electronic and thermal Free Energies=         -100.831841

                     E (Thermal)             CV                S
                      KCal/Mol        Cal/Mol-Kelvin    Cal/Mol-Kelvin
 Total                    4.003              6.100             49.808
 Electronic               0.000              0.000              1.377
 Translational            0.889              2.981             35.068
 Rotational               0.592              1.987             13.027
 Vibrational              2.522              1.132              0.335

 Normal termination of Gaussian 16 at Fri Aug 22 16:38:07 2025.
