 Gaussian 16, Revision C.01,
 Gaussian 16:  ES64L-G16RevC.01  3-Jul-2019

 -----------------------------------------
 # sp b3lyp/6-311g** Force nosymm scf=(qc)
 -----------------------------------------

 -------------------
 Title Card Required
 -------------------
 Symbolic Z-matrix:
 Charge =  0 Multiplicity = 2

                          Input orientation:
 ---------------------------------------------------------------------
 Center     Atomic      Atomic             Coordinates (Angstroms)
 Number     Number       Type             X           Y           Z
 ---------------------------------------------------------------------
      1          1           0        0.000000    0.000000    0.000000
      2          1           0       -3.650000    0.000000    0.000000
      3          9           0        3.300000    0.000000    0.000000
 ---------------------------------------------------------------------

 SCF Done:  E(UB3LYP) =  -100.759521730     a.u. after   24 cycles

 Alpha  occ. eigenvalues --  -24.74974  -1.20968  -0.54096  -0.45420  -0.45420
 Alpha  occ. eigenvalues --   -0.32381
 Alpha virt. eigenvalues --   -0.07128   0.24107   0.36740   0.88278   0.91736
 Alpha virt. eigenvalues --    0.91736   1.02452   1.25120   1.25120   1.25207
 Alpha virt. eigenvalues --    1.45147   1.45147   1.45405   2.14765   2.41413

  Beta  occ. eigenvalues --  -24.71887  -1.12104  -0.42327  -0.42327  -0.33108
  Beta virt. eigenvalues --   -0.25266  -0.06274   0.23876   0.38053   0.93216
  Beta virt. eigenvalues --    0.93216   0.97268   1.06369   1.24281   1.24281
  Beta virt. eigenvalues --    1.24374   1.46155   1.46368   1.46368   2.15034

 Mulliken charges and spin densities:
               1          2
     1  H    0.019178  -0.977340
     2  H    0.000181   0.998554
     3  F   -0.019360   0.978786
 Sum of Mulliken charges =  -0.00000   1.00000

 Dipole moment (field-independent basis, Debye):
    X=             -0.3315    Y=             -0.0000    Z=             -0.0000  Tot=              0.3315
 Quadrupole moment (field-independent basis, Debye-Ang):
   XX=             -7.7398   YY=             -7.6168   ZZ=             -7.6168
   XY=             -0.0000   XZ=             -0.0000   YZ=             -0.0000

  Exact polarizability:      27.825      -0.000       2.031      -0.000      -0.000       2.031
 Approx polarizability:      24.238      -0.000       1.931      -0.000       0.000       1.931

 ******    2 imaginary frequencies (negative Signs) ******

                      1                      2                      3
                      A                      A                      A
 Frequencies --   -279.8309               -97.4882                88.9682
 Red. masses --      1.0424                 1.0695                 1.0192
 Frc consts  --      0.0481                 0.0060                 0.0048
 IR Inten    --     20.5555                 0.5639                 0.3391

                      4
                      A
 Frequencies --     88.9682
 Red. masses --      1.0192
 Frc consts  --      0.0048
 IR Inten    --      0.3391

 - Thermochemistry -
 -------------------
 Temperature   298.150 Kelvin.  Pressure   1.00000 Atm.
 Atom     1 has atomic number  1 and mass   1.00783

 Molecular mass:    21.01405 amu.
 Principal axes and moments of inertia in atomic units:
                           1         2         3
     Eigenvalues --     0.00000 194.89980 194.89980
           X            1.00000  -0.00000   0.00000
           Y            0.00000   1.00000   0.00000
           Z            0.00000   0.00000   1.00000
 This molecule is a prolate symmetric top.
 Rotational symmetry number  1.
 Rotational temperature (Kelvin)      0.44440
 Rotational constant (GHZ):           9.259841
    2 imaginary frequencies ignored.
 Zero-point vibrational energy       1064.3 (Joules/Mol)
                                    0.25437 (Kcal/Mol)
 Warning -- explicit consideration of   2 degrees of freedom as
           vibrations may cause significant error
 Vibrational temperatures:    128.01   128.01
          (Kelvin)

 Zero-point correction=                           0.000405 (Hartree/Particle)
 Thermal correction to Energy=                    0.004278
 Thermal correction to Enthalpy=                  0.005222
 Thermal correction to Gibbs Free Energy=        -0.022683
 Sum of electronic and zero-point Energies=           -100.759116
 Sum of electronic and thermal Energies=              -100.755244
 Sum of electronic and thermal Enthalpies=            -100.754300
 Sum of electronic and thermal Free Energies=         -100.782205

                     E (Thermal)             CV                S
                      KCal/Mol        Cal/Mol-Kelvin    Cal/Mol-Kelvin
 Total                    2.684              8.882             58.732
 Electronic               0.000              0.000              1.377
 Translational            0.889              2.981             35.068
 Rotational               0.592              1.987             14.921
 Vibrational              1.203              3.914              7.365
 Vibration     1          0.602              1.957              3.683
 Vibration     2          0.602              1.957              3.683

 Normal termination of Gaussian 16 at Fri Aug 22 20:50:14 2025.
