 Gaussian 16, Revision C.01,
 Gaussian 16:  ES64L-G16RevC.01  3-Jul-2019

 -----------------------------------------
 # sp b3lyp/6-311g** Force nosymm scf=(qc)
 -----------------------------------------

 -------------------
 Title Card Required
 -------------------
 Symbolic Z-matrix:
 Charge =  0 Multiplicity = 2

                          Input orientation:
 ---------------------------------------------------------------------
 Center     Atomic      Atomic             Coordinates (Angstroms)
 Number     Number       Type             X           Y           Z
 ---------------------------------------------------------------------
      1          1           0        0.000000    0.000000    0.000000
      2          1           0       -2.950000    0.000000    0.000000
      3          9           0        2.050000    0.000000    0.000000
 ---------------------------------------------------------------------

 SCF Done:  E(UB3LYP) =  -100.783361286     a.u. after   25 cycles

 Alpha  occ. eigenvalues --  -24.65892  -1.07867  -0.37798  -0.37443  -0.37443
 Alpha  occ. eigenvalues --   -0.33575
 Alpha virt. eigenvalues --   -0.20891   0.21154   0.27465   0.90852   0.95753
 Alpha virt. eigenvalues --    0.95753   1.08482   1.21764   1.21764   1.23664
 Alpha virt. eigenvalues --    1.23664   1.24341   1.50640   2.12617   2.14492

  Beta  occ. eigenvalues --  -24.68316  -1.14657  -0.47310  -0.39835  -0.39835
  Beta virt. eigenvalues --   -0.14049  -0.05059   0.30648   0.39066   0.89197
  Beta virt. eigenvalues --    0.94998   0.94998   1.06358   1.35952   1.35952
  Beta virt. eigenvalues --    1.46877   1.46877   1.47374   1.58525   2.30874

 Mulliken charges and spin densities:
               1          2
     1  H    0.180210   0.767615
     2  H    0.005443   0.994713
     3  F   -0.185654  -0.762328
 Sum of Mulliken charges =   0.00000   1.00000

 Dipole moment (field-independent basis, Debye):
    X=             -1.9652    Y=              0.0000    Z=              0.0000  Tot=              1.9652
 Quadrupole moment (field-independent basis, Debye-Ang):
   XX=            -10.0000   YY=             -7.4850   ZZ=             -7.4850
   XY=              0.0000   XZ=              0.0000   YZ=              0.0000

  Exact polarizability:      31.788      -0.000       2.055      -0.000      -0.000       2.055
 Approx polarizability:      44.350      -0.000       1.944       0.000      -0.000       1.944

 ******    1 imaginary frequencies (negative Signs) ******

                      1                      2                      3
                      A                      A                      A
 Frequencies --  -1032.5144               131.0162               436.4074
 Red. masses --      1.0612                 1.0504                 1.0229
 Frc consts  --      0.6665                 0.0106                 0.1148
 IR Inten    --     86.0704                 3.1505                29.1626

                      4
                      A
 Frequencies --    436.4074
 Red. masses --      1.0229
 Frc consts  --      0.1148
 IR Inten    --     29.1626

 - Thermochemistry -
 -------------------
 Temperature   298.150 Kelvin.  Pressure   1.00000 Atm.
 Atom     1 has atomic number  1 and mass   1.00783

 Molecular mass:    21.01405 amu.
 Principal axes and moments of inertia in atomic units:
                           1         2         3
     Eigenvalues --     0.00000  96.52105  96.52105
           X            1.00000  -0.00000   0.00000
           Y            0.00000   1.00000   0.00000
           Z            0.00000   0.00000   1.00000
 This molecule is a prolate symmetric top.
 Rotational symmetry number  1.
 Rotational temperature (Kelvin)      0.89736
 Rotational constant (GHZ):          18.697902
    1 imaginary frequencies ignored.
 Zero-point vibrational energy       6004.2 (Joules/Mol)
                                    1.43505 (Kcal/Mol)
 Warning -- explicit consideration of   3 degrees of freedom as
           vibrations may cause significant error
 Vibrational temperatures:    188.50   627.89   627.89
          (Kelvin)

 Zero-point correction=                           0.002287 (Hartree/Particle)
 Thermal correction to Energy=                    0.005875
 Thermal correction to Enthalpy=                  0.006820
 Thermal correction to Gibbs Free Energy=        -0.019112
 Sum of electronic and zero-point Energies=           -100.781074
 Sum of electronic and thermal Energies=              -100.777486
 Sum of electronic and thermal Enthalpies=            -100.776542
 Sum of electronic and thermal Free Energies=         -100.802473

                     E (Thermal)             CV                S
                      KCal/Mol        Cal/Mol-Kelvin    Cal/Mol-Kelvin
 Total                    3.687              9.672             54.577
 Electronic               0.000              0.000              1.377
 Translational            0.889              2.981             35.068
 Rotational               0.592              1.987             13.525
 Vibrational              2.206              4.704              4.607
 Vibration     1          0.612              1.922              2.931
 Vibration     2          0.797              1.391              0.838
 Vibration     3          0.797              1.391              0.838

 Normal termination of Gaussian 16 at Fri Aug 22 17:01:07 2025.
