 Gaussian 16, Revision C.01,
 Gaussian 16:  ES64L-G16RevC.01  3-Jul-2019

 -----------------------------------------
 # sp b3lyp/6-311g** Force nosymm scf=(qc)
 -----------------------------------------

 -------------------
 Title Card Required
 -------------------
 Symbolic Z-matrix:
 Charge =  0 Multiplicity = 2

                          Input orientation:
 ---------------------------------------------------------------------
 Center     Atomic      Atomic             Coordinates (Angstroms)
 Number     Number       Type             X           Y           Z
 ---------------------------------------------------------------------
      1          1           0        0.000000    0.000000    0.000000
      2          1           0       -1.500000    0.000000    0.000000
      3          9           0        2.850000    0.000000    0.000000
 ---------------------------------------------------------------------

 SCF Done:  E(UB3LYP) =  -100.821185300     a.u. after   25 cycles

 Alpha  occ. eigenvalues --  -24.74951  -1.20952  -0.54096  -0.45419  -0.45419
 Alpha  occ. eigenvalues --   -0.34839
 Alpha virt. eigenvalues --   -0.10390   0.24259   0.30390   0.89802   0.91688
 Alpha virt. eigenvalues --    0.91688   1.04764   1.07294   1.19158   1.19158
 Alpha virt. eigenvalues --    1.40588   1.40588   1.81211   2.21300   2.46922

  Beta  occ. eigenvalues --  -24.71888  -1.12166  -0.42353  -0.42353  -0.34580
  Beta virt. eigenvalues --   -0.25566  -0.10021   0.24738   0.30701   0.93152
  Beta virt. eigenvalues --    0.93152   0.98225   1.06659   1.10015   1.19442
  Beta virt. eigenvalues --    1.19442   1.40835   1.40835   1.81621   2.21955

 Mulliken charges and spin densities:
               1          2
     1  H    0.001380  -0.257292
     2  H    0.022708   0.287224
     3  F   -0.024087   0.970068
 Sum of Mulliken charges =   0.00000   1.00000

 Dipole moment (field-independent basis, Debye):
    X=             -0.5108    Y=              0.0000    Z=             -0.0000  Tot=              0.5108
 Quadrupole moment (field-independent basis, Debye-Ang):
   XX=             -6.2721   YY=             -7.7169   ZZ=             -7.7169
   XY=              0.0000   XZ=             -0.0000   YZ=             -0.0000

  Exact polarizability:      53.226      -0.000       1.672       0.000       0.000       1.672
 Approx polarizability:      69.867       0.000       2.031      -0.000      -0.000       2.031

 ******    2 imaginary frequencies (negative Signs) ******

                      1                      2                      3
                      A                      A                      A
 Frequencies --  -2029.0506              -206.0871              1224.5907
 Red. masses --      1.0080                 1.1083                 1.0120
 Frc consts  --      2.4451                 0.0277                 0.8942
 IR Inten    --    402.1744                18.8940                 2.1284

                      4
                      A
 Frequencies --   1224.5917
 Red. masses --      1.0120
 Frc consts  --      0.8942
 IR Inten    --      2.1284

 - Thermochemistry -
 -------------------
 Temperature   298.150 Kelvin.  Pressure   1.00000 Atm.
 Atom     1 has atomic number  1 and mass   1.00783

 Molecular mass:    21.01405 amu.
 Principal axes and moments of inertia in atomic units:
                           1         2         3
     Eigenvalues --     0.00000  88.38724  88.38724
           X            1.00000  -0.00000   0.00000
           Y            0.00000   1.00000   0.00000
           Z            0.00000   0.00000   1.00000
 This molecule is a prolate symmetric top.
 Rotational symmetry number  1.
 Rotational temperature (Kelvin)      0.97994
 Rotational constant (GHZ):          20.418571
    2 imaginary frequencies ignored.
 Zero-point vibrational energy      14649.4 (Joules/Mol)
                                    3.50128 (Kcal/Mol)
 Vibrational temperatures:   1761.91  1761.91
          (Kelvin)

 Zero-point correction=                           0.005580 (Hartree/Particle)
 Thermal correction to Energy=                    0.007970
 Thermal correction to Enthalpy=                  0.008915
 Thermal correction to Gibbs Free Energy=        -0.014780
 Sum of electronic and zero-point Energies=           -100.815606
 Sum of electronic and thermal Energies=              -100.813215
 Sum of electronic and thermal Enthalpies=            -100.812271
 Sum of electronic and thermal Free Energies=         -100.835965

                     E (Thermal)             CV                S
                      KCal/Mol        Cal/Mol-Kelvin    Cal/Mol-Kelvin
 Total                    5.002              5.347             49.870
 Electronic               0.000              0.000              1.377
 Translational            0.889              2.981             35.068
 Rotational               0.592              1.987             13.350
 Vibrational              3.520              0.379              0.075

 Normal termination of Gaussian 16 at Fri Aug 22 18:52:22 2025.
