 Gaussian 16, Revision C.01,
 Gaussian 16:  ES64L-G16RevC.01  3-Jul-2019

 -----------------------------------------
 # sp b3lyp/6-311g** Force nosymm scf=(qc)
 -----------------------------------------

 -------------------
 Title Card Required
 -------------------
 Symbolic Z-matrix:
 Charge =  0 Multiplicity = 2

                          Input orientation:
 ---------------------------------------------------------------------
 Center     Atomic      Atomic             Coordinates (Angstroms)
 Number     Number       Type             X           Y           Z
 ---------------------------------------------------------------------
      1          1           0        0.000000    0.000000    0.000000
      2          1           0       -2.450000    0.000000    0.000000
      3          9           0        2.500000    0.000000    0.000000
 ---------------------------------------------------------------------

 SCF Done:  E(UB3LYP) =  -100.771675131     a.u. after   18 cycles

 Alpha  occ. eigenvalues --  -24.71749  -1.17956  -0.50847  -0.42708  -0.42708
 Alpha  occ. eigenvalues --   -0.33879
 Alpha virt. eigenvalues --   -0.12049   0.24852   0.33039   0.90096   0.93627
 Alpha virt. eigenvalues --    0.93627   1.06583   1.23795   1.23795   1.26835
 Alpha virt. eigenvalues --    1.37615   1.37615   1.42906   2.14457   2.33276

  Beta  occ. eigenvalues --  -24.68906  -1.09865  -0.39874  -0.39874  -0.35295
  Beta virt. eigenvalues --   -0.23389  -0.09802   0.25906   0.34458   0.94992
  Beta virt. eigenvalues --    0.94992   0.97034   1.09460   1.22367   1.22367
  Beta virt. eigenvalues --    1.30265   1.41184   1.41184   1.43260   2.14251

 Mulliken charges and spin densities:
               1          2
     1  H    0.076553  -0.864287
     2  H    0.012310   0.966121
     3  F   -0.088864   0.898165
 Sum of Mulliken charges =  -0.00000   1.00000

 Dipole moment (field-independent basis, Debye):
    X=             -1.2743    Y=              0.0000    Z=              0.0000  Tot=              1.2743
 Quadrupole moment (field-independent basis, Debye-Ang):
   XX=             -8.7770   YY=             -7.6152   ZZ=             -7.6152
   XY=              0.0000   XZ=              0.0000   YZ=             -0.0000

  Exact polarizability:      45.035      -0.000       2.015       0.000      -0.000       2.015
 Approx polarizability:      48.043       0.000       1.918       0.000       0.000       1.918

 ******    2 imaginary frequencies (negative Signs) ******

                      1                      2                      3
                      A                      A                      A
 Frequencies --   -850.6253              -350.1679               336.8007
 Red. masses --      1.0184                 1.0960                 1.0177
 Frc consts  --      0.4342                 0.0792                 0.0680
 IR Inten    --     51.4367                28.1428                 4.6907

                      4
                      A
 Frequencies --    336.8007
 Red. masses --      1.0177
 Frc consts  --      0.0680
 IR Inten    --      4.6907

 - Thermochemistry -
 -------------------
 Temperature   298.150 Kelvin.  Pressure   1.00000 Atm.
 Atom     1 has atomic number  1 and mass   1.00783

 Molecular mass:    21.01405 amu.
 Principal axes and moments of inertia in atomic units:
                           1         2         3
     Eigenvalues --     0.00000 101.09839 101.09839
           X            1.00000  -0.00000   0.00000
           Y            0.00000   1.00000   0.00000
           Z            0.00000   0.00000   1.00000
 This molecule is a prolate symmetric top.
 Rotational symmetry number  1.
 Rotational temperature (Kelvin)      0.85673
 Rotational constant (GHZ):          17.851334
    2 imaginary frequencies ignored.
 Zero-point vibrational energy       4029.0 (Joules/Mol)
                                    0.96296 (Kcal/Mol)
 Warning -- explicit consideration of   2 degrees of freedom as
           vibrations may cause significant error
 Vibrational temperatures:    484.58   484.58
          (Kelvin)

 Zero-point correction=                           0.001535 (Hartree/Particle)
 Thermal correction to Energy=                    0.004647
 Thermal correction to Enthalpy=                  0.005591
 Thermal correction to Gibbs Free Energy=        -0.019361
 Sum of electronic and zero-point Energies=           -100.770141
 Sum of electronic and thermal Energies=              -100.767028
 Sum of electronic and thermal Enthalpies=            -100.766084
 Sum of electronic and thermal Free Energies=         -100.791036

                     E (Thermal)             CV                S
                      KCal/Mol        Cal/Mol-Kelvin    Cal/Mol-Kelvin
 Total                    2.916              8.172             52.517
 Electronic               0.000              0.000              1.377
 Translational            0.889              2.981             35.068
 Rotational               0.592              1.987             13.617
 Vibrational              1.435              3.204              2.455
 Vibration     1          0.718              1.602              1.227
 Vibration     2          0.718              1.602              1.227

 Normal termination of Gaussian 16 at Fri Aug 22 17:45:13 2025.
