 Gaussian 16, Revision C.01,
 Gaussian 16:  ES64L-G16RevC.01  3-Jul-2019

 -----------------------------------------
 # sp b3lyp/6-311g** Force nosymm scf=(qc)
 -----------------------------------------

 -------------------
 Title Card Required
 -------------------
 Symbolic Z-matrix:
 Charge =  0 Multiplicity = 2

                          Input orientation:
 ---------------------------------------------------------------------
 Center     Atomic      Atomic             Coordinates (Angstroms)
 Number     Number       Type             X           Y           Z
 ---------------------------------------------------------------------
      1          1           0        0.000000    0.000000    0.000000
      2          1           0       -3.800000    0.000000    0.000000
      3          9           0        3.650000    0.000000    0.000000
 ---------------------------------------------------------------------

 SCF Done:  E(UB3LYP) =  -100.758709501     a.u. after   28 cycles

 Alpha  occ. eigenvalues --  -24.75596  -1.21544  -0.54720  -0.45943  -0.45943
 Alpha  occ. eigenvalues --   -0.32275
 Alpha virt. eigenvalues --   -0.06354   0.24169   0.37463   0.87174   0.91350
 Alpha virt. eigenvalues --    0.91350   1.01489   1.25221   1.25221   1.25269
 Alpha virt. eigenvalues --    1.46049   1.46049   1.46301   2.14703   2.42086

  Beta  occ. eigenvalues --  -24.72469  -1.12554  -0.42808  -0.42808  -0.32654
  Beta virt. eigenvalues --   -0.25589  -0.06029   0.23935   0.38172   0.92843
  Beta virt. eigenvalues --    0.92843   0.96403   1.05546   1.24795   1.24795
  Beta virt. eigenvalues --    1.24825   1.46442   1.46597   1.46597   2.14793

 Mulliken charges and spin densities:
               1          2
     1  H    0.007522  -0.990633
     2  H    0.000060   0.998982
     3  F   -0.007582   0.991652
 Sum of Mulliken charges =  -0.00000   1.00000

 Dipole moment (field-independent basis, Debye):
    X=             -0.1436    Y=              0.0000    Z=              0.0000  Tot=              0.1436
 Quadrupole moment (field-independent basis, Debye-Ang):
   XX=             -7.2205   YY=             -7.6194   ZZ=             -7.6194
   XY=             -0.0000   XZ=             -0.0000   YZ=             -0.0000

  Exact polarizability:      18.942       0.000       1.980       0.000      -0.000       1.980
 Approx polarizability:      14.303      -0.000       1.935      -0.000       0.000       1.935

 ******    2 imaginary frequencies (negative Signs) ******

                      1                      2                      3
                      A                      A                      A
 Frequencies --   -192.6101               -77.2620                93.2922
 Red. masses --      1.0338                 1.0787                 1.0184
 Frc consts  --      0.0226                 0.0038                 0.0052
 IR Inten    --      6.1355                 0.4249                 0.1115

                      4
                      A
 Frequencies --     93.2967
 Red. masses --      1.0184
 Frc consts  --      0.0052
 IR Inten    --      0.1115

 - Thermochemistry -
 -------------------
 Temperature   298.150 Kelvin.  Pressure   1.00000 Atm.
 Atom     1 has atomic number  1 and mass   1.00783

 Molecular mass:    21.01405 amu.
 Principal axes and moments of inertia in atomic units:
                           1         2         3
     Eigenvalues --     0.00000 226.43486 226.43486
           X            1.00000  -0.00000   0.00000
           Y            0.00000   1.00000   0.00000
           Z            0.00000   0.00000   1.00000
 This molecule is a prolate symmetric top.
 Rotational symmetry number  1.
 Rotational temperature (Kelvin)      0.38251
 Rotational constant (GHZ):           7.970244
    2 imaginary frequencies ignored.
 Zero-point vibrational energy       1116.0 (Joules/Mol)
                                    0.26674 (Kcal/Mol)
 Warning -- explicit consideration of   2 degrees of freedom as
           vibrations may cause significant error
 Vibrational temperatures:    134.23   134.23
          (Kelvin)

 Zero-point correction=                           0.000425 (Hartree/Particle)
 Thermal correction to Energy=                    0.004281
 Thermal correction to Enthalpy=                  0.005225
 Thermal correction to Gibbs Free Energy=        -0.022734
 Sum of electronic and zero-point Energies=           -100.758284
 Sum of electronic and thermal Energies=              -100.754429
 Sum of electronic and thermal Enthalpies=            -100.753485
 Sum of electronic and thermal Free Energies=         -100.781443

                     E (Thermal)             CV                S
                      KCal/Mol        Cal/Mol-Kelvin    Cal/Mol-Kelvin
 Total                    2.686              8.876             58.844
 Electronic               0.000              0.000              1.377
 Translational            0.889              2.981             35.068
 Rotational               0.592              1.987             15.219
 Vibrational              1.205              3.908              7.180
 Vibration     1          0.602              1.954              3.590
 Vibration     2          0.602              1.954              3.590

 Normal termination of Gaussian 16 at Fri Aug 22 23:38:35 2025.
