 Gaussian 16, Revision C.01,
 Gaussian 16:  ES64L-G16RevC.01  3-Jul-2019

 -----------------------------------------
 # sp b3lyp/6-311g** Force nosymm scf=(qc)
 -----------------------------------------

 -------------------
 Title Card Required
 -------------------
 Symbolic Z-matrix:
 Charge =  0 Multiplicity = 2

                          Input orientation:
 ---------------------------------------------------------------------
 Center     Atomic      Atomic             Coordinates (Angstroms)
 Number     Number       Type             X           Y           Z
 ---------------------------------------------------------------------
      1          1           0        0.000000    0.000000    0.000000
      2          1           0       -3.150000    0.000000    0.000000
      3          9           0        2.450000    0.000000    0.000000
 ---------------------------------------------------------------------

 SCF Done:  E(UB3LYP) =  -100.769087891     a.u. after   16 cycles

 Alpha  occ. eigenvalues --  -24.71443  -1.17675  -0.50540  -0.42462  -0.42462
 Alpha  occ. eigenvalues --   -0.33147
 Alpha virt. eigenvalues --   -0.10880   0.23773   0.34640   0.89597   0.93770
 Alpha virt. eigenvalues --    0.93770   1.06440   1.24382   1.24382   1.24961
 Alpha virt. eigenvalues --    1.39977   1.39977   1.45104   2.14852   2.34970

  Beta  occ. eigenvalues --  -24.68629  -1.09676  -0.39659  -0.39659  -0.35568
  Beta virt. eigenvalues --   -0.23149  -0.07510   0.24355   0.37177   0.95107
  Beta virt. eigenvalues --    0.95107   0.95576   1.08711   1.21977   1.21977
  Beta virt. eigenvalues --    1.31242   1.44928   1.45043   1.45043   2.13286

 Mulliken charges and spin densities:
               1          2
     1  H    0.095421  -0.883507
     2  H    0.002316   0.994908
     3  F   -0.097737   0.888599
 Sum of Mulliken charges =  -0.00000   1.00000

 Dipole moment (field-independent basis, Debye):
    X=             -1.2508    Y=              0.0000    Z=             -0.0000  Tot=              1.2508
 Quadrupole moment (field-independent basis, Debye-Ang):
   XX=             -9.3008   YY=             -7.5724   ZZ=             -7.5724
   XY=              0.0000   XZ=             -0.0000   YZ=             -0.0000

  Exact polarizability:      32.552       0.000       2.025      -0.000       0.000       2.025
 Approx polarizability:      40.363       0.000       1.920      -0.000      -0.000       1.920

 ******    2 imaginary frequencies (negative Signs) ******

                      1                      2                      3
                      A                      A                      A
 Frequencies --   -668.7771              -181.1309               264.7301
 Red. masses --      1.0497                 1.0619                 1.0213
 Frc consts  --      0.2766                 0.0205                 0.0422
 IR Inten    --     82.5180                 1.4671                 8.4512

                      4
                      A
 Frequencies --    264.7301
 Red. masses --      1.0213
 Frc consts  --      0.0422
 IR Inten    --      8.4512

 - Thermochemistry -
 -------------------
 Temperature   298.150 Kelvin.  Pressure   1.00000 Atm.
 Atom     1 has atomic number  1 and mass   1.00783

 Molecular mass:    21.01405 amu.
 Principal axes and moments of inertia in atomic units:
                           1         2         3
     Eigenvalues --     0.00000 123.28260 123.28260
           X            1.00000  -0.00000   0.00000
           Y            0.00000   1.00000   0.00000
           Z            0.00000   0.00000   1.00000
 This molecule is a prolate symmetric top.
 Rotational symmetry number  1.
 Rotational temperature (Kelvin)      0.70256
 Rotational constant (GHZ):          14.639059
    2 imaginary frequencies ignored.
 Zero-point vibrational energy       3166.9 (Joules/Mol)
                                    0.75690 (Kcal/Mol)
 Warning -- explicit consideration of   2 degrees of freedom as
           vibrations may cause significant error
 Vibrational temperatures:    380.89   380.89
          (Kelvin)

 Zero-point correction=                           0.001206 (Hartree/Particle)
 Thermal correction to Energy=                    0.004499
 Thermal correction to Enthalpy=                  0.005443
 Thermal correction to Gibbs Free Energy=        -0.020080
 Sum of electronic and zero-point Energies=           -100.767882
 Sum of electronic and thermal Energies=              -100.764589
 Sum of electronic and thermal Enthalpies=            -100.763645
 Sum of electronic and thermal Free Energies=         -100.789168

                     E (Thermal)             CV                S
                      KCal/Mol        Cal/Mol-Kelvin    Cal/Mol-Kelvin
 Total                    2.823              8.443             53.717
 Electronic               0.000              0.000              1.377
 Translational            0.889              2.981             35.068
 Rotational               0.592              1.987             14.011
 Vibrational              1.342              3.475              3.261
 Vibration     1          0.671              1.738              1.630
 Vibration     2          0.671              1.738              1.630

 Normal termination of Gaussian 16 at Fri Aug 22 17:39:26 2025.
