 Gaussian 16, Revision C.01,
 Gaussian 16:  ES64L-G16RevC.01  3-Jul-2019

 -----------------------------------------
 # sp b3lyp/6-311g** Force nosymm scf=(qc)
 -----------------------------------------

 -------------------
 Title Card Required
 -------------------
 Symbolic Z-matrix:
 Charge =  0 Multiplicity = 2

                          Input orientation:
 ---------------------------------------------------------------------
 Center     Atomic      Atomic             Coordinates (Angstroms)
 Number     Number       Type             X           Y           Z
 ---------------------------------------------------------------------
      1          1           0        0.000000    0.000000    0.000000
      2          1           0       -3.400000    0.000000    0.000000
      3          9           0        3.050000    0.000000    0.000000
 ---------------------------------------------------------------------

 SCF Done:  E(UB3LYP) =  -100.760857988     a.u. after   22 cycles

 Alpha  occ. eigenvalues --  -24.74260  -1.20307  -0.53380  -0.44821  -0.44821
 Alpha  occ. eigenvalues --   -0.32541
 Alpha virt. eigenvalues --   -0.08141   0.24152   0.36049   0.89225   0.92170
 Alpha virt. eigenvalues --    0.92170   1.03630   1.24969   1.24969   1.25197
 Alpha virt. eigenvalues --    1.43895   1.43895   1.44158   2.14981   2.40093

  Beta  occ. eigenvalues --  -24.71221  -1.11594  -0.41779  -0.41779  -0.33619
  Beta virt. eigenvalues --   -0.24874  -0.06737   0.24069   0.37726   0.93636
  Beta virt. eigenvalues --    0.93636   0.97982   1.07408   1.23728   1.23728
  Beta virt. eigenvalues --    1.24143   1.45613   1.45872   1.45872   2.15249

 Mulliken charges and spin densities:
               1          2
     1  H    0.032997  -0.960538
     2  H    0.000537   0.997346
     3  F   -0.033534   0.963192
 Sum of Mulliken charges =  -0.00000   1.00000

 Dipole moment (field-independent basis, Debye):
    X=             -0.5341    Y=             -0.0000    Z=             -0.0000  Tot=              0.5341
 Quadrupole moment (field-independent basis, Debye-Ang):
   XX=             -8.1892   YY=             -7.6132   ZZ=             -7.6132
   XY=             -0.0000   XZ=             -0.0000   YZ=             -0.0000

  Exact polarizability:      31.931      -0.000       2.026      -0.000      -0.000       2.026
 Approx polarizability:      31.475      -0.000       1.927      -0.000       0.000       1.927

 ******    2 imaginary frequencies (negative Signs) ******

                      1                      2                      3
                      A                      A                      A
 Frequencies --   -368.7354              -129.6552               130.2005
 Red. masses --      1.0418                 1.0701                 1.0193
 Frc consts  --      0.0835                 0.0106                 0.0102
 IR Inten    --     35.3831                 1.1492                 1.0072

                      4
                      A
 Frequencies --    130.2005
 Red. masses --      1.0193
 Frc consts  --      0.0102
 IR Inten    --      1.0072

 - Thermochemistry -
 -------------------
 Temperature   298.150 Kelvin.  Pressure   1.00000 Atm.
 Atom     1 has atomic number  1 and mass   1.00783

 Molecular mass:    21.01405 amu.
 Principal axes and moments of inertia in atomic units:
                           1         2         3
     Eigenvalues --     0.00000 167.62976 167.62976
           X            1.00000  -0.00000   0.00000
           Y            0.00000   1.00000   0.00000
           Z            0.00000   0.00000   1.00000
 This molecule is a prolate symmetric top.
 Rotational symmetry number  1.
 Rotational temperature (Kelvin)      0.51670
 Rotational constant (GHZ):          10.766234
    2 imaginary frequencies ignored.
 Zero-point vibrational energy       1557.5 (Joules/Mol)
                                    0.37226 (Kcal/Mol)
 Warning -- explicit consideration of   2 degrees of freedom as
           vibrations may cause significant error
 Vibrational temperatures:    187.33   187.33
          (Kelvin)

 Zero-point correction=                           0.000593 (Hartree/Particle)
 Thermal correction to Energy=                    0.004311
 Thermal correction to Enthalpy=                  0.005255
 Thermal correction to Gibbs Free Energy=        -0.021806
 Sum of electronic and zero-point Energies=           -100.760265
 Sum of electronic and thermal Energies=              -100.756547
 Sum of electronic and thermal Enthalpies=            -100.755603
 Sum of electronic and thermal Free Energies=         -100.782664

                     E (Thermal)             CV                S
                      KCal/Mol        Cal/Mol-Kelvin    Cal/Mol-Kelvin
 Total                    2.705              8.814             56.953
 Electronic               0.000              0.000              1.377
 Translational            0.889              2.981             35.068
 Rotational               0.592              1.987             14.622
 Vibrational              1.224              3.846              5.886
 Vibration     1          0.612              1.923              2.943
 Vibration     2          0.612              1.923              2.943

 Normal termination of Gaussian 16 at Fri Aug 22 19:45:13 2025.
