 Gaussian 16, Revision C.01,
 Gaussian 16:  ES64L-G16RevC.01  3-Jul-2019

 -----------------------------------------
 # sp b3lyp/6-311g** Force nosymm scf=(qc)
 -----------------------------------------

 -------------------
 Title Card Required
 -------------------
 Symbolic Z-matrix:
 Charge =  0 Multiplicity = 2

                          Input orientation:
 ---------------------------------------------------------------------
 Center     Atomic      Atomic             Coordinates (Angstroms)
 Number     Number       Type             X           Y           Z
 ---------------------------------------------------------------------
      1          1           0        0.000000    0.000000    0.000000
      2          1           0       -3.400000    0.000000    0.000000
      3          9           0        2.900000    0.000000    0.000000
 ---------------------------------------------------------------------

 SCF Done:  E(UB3LYP) =  -100.761944382     a.u. after   20 cycles

 Alpha  occ. eigenvalues --  -24.73706  -1.19793  -0.52824  -0.44357  -0.44357
 Alpha  occ. eigenvalues --   -0.32631
 Alpha virt. eigenvalues --   -0.08637   0.24030   0.35834   0.89690   0.92502
 Alpha virt. eigenvalues --    0.92502   1.04493   1.24880   1.24880   1.25116
 Alpha virt. eigenvalues --    1.43323   1.43323   1.43751   2.14896   2.39257

  Beta  occ. eigenvalues --  -24.70705  -1.11203  -0.41355  -0.41355  -0.33999
  Beta virt. eigenvalues --   -0.24556  -0.06781   0.24088   0.37718   0.93954
  Beta virt. eigenvalues --    0.93954   0.98202   1.08109   1.23327   1.23327
  Beta virt. eigenvalues --    1.24235   1.45584   1.45848   1.45848   2.14905

 Mulliken charges and spin densities:
               1          2
     1  H    0.044386  -0.947763
     2  H    0.000677   0.997357
     3  F   -0.045063   0.950406
 Sum of Mulliken charges =  -0.00000   1.00000

 Dipole moment (field-independent basis, Debye):
    X=             -0.6817    Y=              0.0000    Z=             -0.0000  Tot=              0.6817
 Quadrupole moment (field-independent basis, Debye-Ang):
   XX=             -8.4934   YY=             -7.6062   ZZ=             -7.6062
   XY=             -0.0000   XZ=              0.0000   YZ=             -0.0000

  Exact polarizability:      32.683      -0.000       2.024       0.000       0.000       2.024
 Approx polarizability:      34.723      -0.000       1.924       0.000       0.000       1.924

 ******    2 imaginary frequencies (negative Signs) ******

                      1                      2                      3
                      A                      A                      A
 Frequencies --   -421.9093              -132.4998               152.1693
 Red. masses --      1.0461                 1.0657                 1.0200
 Frc consts  --      0.1097                 0.0110                 0.0139
 IR Inten    --     46.3720                 0.8896                 1.8417

                      4
                      A
 Frequencies --    152.1693
 Red. masses --      1.0200
 Frc consts  --      0.0139
 IR Inten    --      1.8417

 - Thermochemistry -
 -------------------
 Temperature   298.150 Kelvin.  Pressure   1.00000 Atm.
 Atom     1 has atomic number  1 and mass   1.00783

 Molecular mass:    21.01405 amu.
 Principal axes and moments of inertia in atomic units:
                           1         2         3
     Eigenvalues --     0.00000 158.50286 158.50286
           X            1.00000  -0.00000   0.00000
           Y            0.00000   1.00000   0.00000
           Z            0.00000   0.00000   1.00000
 This molecule is a prolate symmetric top.
 Rotational symmetry number  1.
 Rotational temperature (Kelvin)      0.54645
 Rotational constant (GHZ):          11.386174
    2 imaginary frequencies ignored.
 Zero-point vibrational energy       1820.3 (Joules/Mol)
                                    0.43507 (Kcal/Mol)
 Warning -- explicit consideration of   2 degrees of freedom as
           vibrations may cause significant error
 Vibrational temperatures:    218.94   218.94
          (Kelvin)

 Zero-point correction=                           0.000693 (Hartree/Particle)
 Thermal correction to Energy=                    0.004333
 Thermal correction to Enthalpy=                  0.005277
 Thermal correction to Gibbs Free Energy=        -0.021447
 Sum of electronic and zero-point Energies=           -100.761251
 Sum of electronic and thermal Energies=              -100.757611
 Sum of electronic and thermal Enthalpies=            -100.756667
 Sum of electronic and thermal Free Energies=         -100.783391

                     E (Thermal)             CV                S
                      KCal/Mol        Cal/Mol-Kelvin    Cal/Mol-Kelvin
 Total                    2.719              8.769             56.246
 Electronic               0.000              0.000              1.377
 Translational            0.889              2.981             35.068
 Rotational               0.592              1.987             14.510
 Vibrational              1.238              3.801              5.290
 Vibration     1          0.619              1.900              2.645
 Vibration     2          0.619              1.900              2.645

 Normal termination of Gaussian 16 at Fri Aug 22 19:04:41 2025.
