 Gaussian 16, Revision C.01,
 Gaussian 16:  ES64L-G16RevC.01  3-Jul-2019

 -----------------------------------------
 # sp b3lyp/6-311g** Force nosymm scf=(qc)
 -----------------------------------------

 -------------------
 Title Card Required
 -------------------
 Symbolic Z-matrix:
 Charge =  0 Multiplicity = 2

                          Input orientation:
 ---------------------------------------------------------------------
 Center     Atomic      Atomic             Coordinates (Angstroms)
 Number     Number       Type             X           Y           Z
 ---------------------------------------------------------------------
      1          1           0        0.000000    0.000000    0.000000
      2          1           0       -2.950000    0.000000    0.000000
      3          9           0        1.500000    0.000000    0.000000
 ---------------------------------------------------------------------

 SCF Done:  E(UB3LYP) =  -100.855080243     a.u. after    8 cycles

 Alpha  occ. eigenvalues --  -24.64268  -1.09694  -0.43269  -0.36363  -0.36363
 Alpha  occ. eigenvalues --   -0.34728
 Alpha virt. eigenvalues --   -0.14175   0.21401   0.27466   0.93619   0.93619
 Alpha virt. eigenvalues --    1.03494   1.10079   1.22785   1.22785   1.23432
 Alpha virt. eigenvalues --    1.31466   1.31466   1.73731   2.13595   2.19342

  Beta  occ. eigenvalues --  -24.64153  -1.09388  -0.42973  -0.36254  -0.36254
  Beta virt. eigenvalues --   -0.15159  -0.07426   0.24158   0.37101   0.93574
  Beta virt. eigenvalues --    0.93574   1.03790   1.10148   1.30931   1.30931
  Beta virt. eigenvalues --    1.44382   1.44647   1.44647   1.73636   2.18509

 Mulliken charges and spin densities:
               1          2
     1  H    0.344355  -0.028818
     2  H    0.007127   0.992219
     3  F   -0.351483   0.036599
 Sum of Mulliken charges =  -0.00000   1.00000

 Dipole moment (field-independent basis, Debye):
    X=             -2.6908    Y=             -0.0000    Z=              0.0000  Tot=              2.6908
 Quadrupole moment (field-independent basis, Debye-Ang):
   XX=             -9.6671   YY=             -7.3242   ZZ=             -7.3242
   XY=             -0.0000   XZ=             -0.0000   YZ=             -0.0000

  Exact polarizability:      18.165       0.000       2.192      -0.000       0.000       2.192
 Approx polarizability:      31.357      -0.000       2.119      -0.000       0.000       2.119

 ******    2 imaginary frequencies (negative Signs) ******

                      1                      2                      3
                      A                      A                      A
 Frequencies --  -1208.2521              -155.1687              1004.8607
 Red. masses --      1.0546                 1.0570                 1.0278
 Frc consts  --      0.9071                 0.0150                 0.6115
 IR Inten    --     67.8235                 1.2161               110.3734

                      4
                      A
 Frequencies --   1004.8607
 Red. masses --      1.0278
 Frc consts  --      0.6115
 IR Inten    --    110.3734

 - Thermochemistry -
 -------------------
 Temperature   298.150 Kelvin.  Pressure   1.00000 Atm.
 Atom     1 has atomic number  1 and mass   1.00783

 Molecular mass:    21.01405 amu.
 Principal axes and moments of inertia in atomic units:
                           1         2         3
     Eigenvalues --     0.00000  73.25642  73.25642
           X            1.00000  -0.00000   0.00000
           Y            0.00000   1.00000   0.00000
           Z            0.00000   0.00000   1.00000
 This molecule is a prolate symmetric top.
 Rotational symmetry number  1.
 Rotational temperature (Kelvin)      1.18234
 Rotational constant (GHZ):          24.635946
    2 imaginary frequencies ignored.
 Zero-point vibrational energy      12020.8 (Joules/Mol)
                                    2.87304 (Kcal/Mol)
 Vibrational temperatures:   1445.77  1445.77
          (Kelvin)

 Zero-point correction=                           0.004578 (Hartree/Particle)
 Thermal correction to Energy=                    0.007011
 Thermal correction to Enthalpy=                  0.007955
 Thermal correction to Gibbs Free Energy=        -0.015614
 Sum of electronic and zero-point Energies=           -100.850502
 Sum of electronic and thermal Energies=              -100.848069
 Sum of electronic and thermal Enthalpies=            -100.847125
 Sum of electronic and thermal Free Energies=         -100.870694

                     E (Thermal)             CV                S
                      KCal/Mol        Cal/Mol-Kelvin    Cal/Mol-Kelvin
 Total                    4.400              5.712             49.606
 Electronic               0.000              0.000              1.377
 Translational            0.889              2.981             35.068
 Rotational               0.592              1.987             12.977
 Vibrational              2.918              0.744              0.183

 Normal termination of Gaussian 16 at Fri Aug 22 16:26:14 2025.
