 Gaussian 16, Revision C.01,
 Gaussian 16:  ES64L-G16RevC.01  3-Jul-2019

 -----------------------------------------
 # sp b3lyp/6-311g** Force nosymm scf=(qc)
 -----------------------------------------

 -------------------
 Title Card Required
 -------------------
 Symbolic Z-matrix:
 Charge =  0 Multiplicity = 2

                          Input orientation:
 ---------------------------------------------------------------------
 Center     Atomic      Atomic             Coordinates (Angstroms)
 Number     Number       Type             X           Y           Z
 ---------------------------------------------------------------------
      1          1           0        0.000000    0.000000    0.000000
      2          1           0       -0.850000    0.000000    0.000000
      3          9           0        1.300000    0.000000    0.000000
 ---------------------------------------------------------------------

 SCF Done:  E(UB3LYP) =  -100.943066145     a.u. after    6 cycles

 Alpha  occ. eigenvalues --  -24.68159  -1.16410  -0.56654  -0.40723  -0.40723
 Alpha  occ. eigenvalues --   -0.39671
 Alpha virt. eigenvalues --    0.08949   0.19337   0.40998   0.88545   0.88545
 Alpha virt. eigenvalues --    0.97593   1.08089   1.08089   1.36484   1.64484
 Alpha virt. eigenvalues --    1.72724   1.72724   2.13793   2.34799   2.77072

  Beta  occ. eigenvalues --  -24.66062  -1.10856  -0.48393  -0.38737  -0.38737
  Beta virt. eigenvalues --   -0.21965   0.10923   0.20692   0.44604   0.89812
  Beta virt. eigenvalues --    0.89812   1.02269   1.11663   1.11663   1.40386
  Beta virt. eigenvalues --    1.68695   1.75180   1.75180   2.14584   2.40758

 Mulliken charges and spin densities:
               1          2
     1  H    0.215299  -0.056273
     2  H    0.020749   0.443804
     3  F   -0.236047   0.612469
 Sum of Mulliken charges =   0.00000   1.00000

 Dipole moment (field-independent basis, Debye):
    X=             -1.6932    Y=              0.0000    Z=             -0.0000  Tot=              1.6932
 Quadrupole moment (field-independent basis, Debye-Ang):
   XX=             -7.3515   YY=             -6.7827   ZZ=             -6.7827
   XY=              0.0000   XZ=             -0.0000   YZ=              0.0000

  Exact polarizability:      20.794       0.000       2.447      -0.000      -0.000       2.447
 Approx polarizability:      28.190       0.000       2.465      -0.000      -0.000       2.465

 ******    1 imaginary frequencies (negative Signs) ******

                      1                      2                      3
                      A                      A                      A
 Frequencies --  -1109.0565               565.8795               565.8795
 Red. masses --      1.0902                 1.0136                 1.0136
 Frc consts  --      0.7901                 0.1912                 0.1912
 IR Inten    --    259.1044                 8.6076                 8.6076

                      4
                      A
 Frequencies --   2294.9270
 Red. masses --      1.0235
 Frc consts  --      3.1759
 IR Inten    --    478.4620

 - Thermochemistry -
 -------------------
 Temperature   298.150 Kelvin.  Pressure   1.00000 Atm.
 Atom     1 has atomic number  1 and mass   1.00783

 Molecular mass:    21.01405 amu.
 Principal axes and moments of inertia in atomic units:
                           1         2         3
     Eigenvalues --     0.00000  20.66429  20.66429
           X            1.00000  -0.00000   0.00000
           Y            0.00000   1.00000   0.00000
           Z            0.00000   0.00000   1.00000
 This molecule is a prolate symmetric top.
 Rotational symmetry number  1.
 Rotational temperature (Kelvin)      4.19148
 Rotational constant (GHZ):          87.336241
    1 imaginary frequencies ignored.
 Zero-point vibrational energy      20496.1 (Joules/Mol)
                                    4.89869 (Kcal/Mol)
 Warning -- explicit consideration of   2 degrees of freedom as
           vibrations may cause significant error
 Vibrational temperatures:    814.17   814.17  3301.89
          (Kelvin)

 Zero-point correction=                           0.007807 (Hartree/Particle)
 Thermal correction to Energy=                    0.010527
 Thermal correction to Enthalpy=                  0.011471
 Thermal correction to Gibbs Free Energy=        -0.011303
 Sum of electronic and zero-point Energies=           -100.935260
 Sum of electronic and thermal Energies=              -100.932539
 Sum of electronic and thermal Enthalpies=            -100.931595
 Sum of electronic and thermal Free Energies=         -100.954369

                     E (Thermal)             CV                S
                      KCal/Mol        Cal/Mol-Kelvin    Cal/Mol-Kelvin
 Total                    6.606              7.182             47.932
 Electronic               0.000              0.000              1.377
 Translational            0.889              2.981             35.068
 Rotational               0.592              1.987             10.462
 Vibrational              5.124              2.214              1.025
 Vibration     1          0.922              1.105              0.512
 Vibration     2          0.922              1.105              0.512

 Normal termination of Gaussian 16 at Fri Aug 22 16:14:12 2025.
