 Gaussian 16, Revision C.01,
 Gaussian 16:  ES64L-G16RevC.01  3-Jul-2019

 -----------------------------------------
 # sp b3lyp/6-311g** Force nosymm scf=(qc)
 -----------------------------------------

 -------------------
 Title Card Required
 -------------------
 Symbolic Z-matrix:
 Charge =  0 Multiplicity = 2

                          Input orientation:
 ---------------------------------------------------------------------
 Center     Atomic      Atomic             Coordinates (Angstroms)
 Number     Number       Type             X           Y           Z
 ---------------------------------------------------------------------
      1          1           0        0.000000    0.000000    0.000000
      2          1           0       -2.100000    0.000000    0.000000
      3          9           0        1.400000    0.000000    0.000000
 ---------------------------------------------------------------------

 SCF Done:  E(UB3LYP) =  -100.880621266     a.u. after    8 cycles

 Alpha  occ. eigenvalues --  -24.63743  -1.10010  -0.44833  -0.36701  -0.36218
 Alpha  occ. eigenvalues --   -0.36218
 Alpha virt. eigenvalues --   -0.09744   0.23580   0.27096   0.93698   0.93698
 Alpha virt. eigenvalues --    1.03222   1.09625   1.20562   1.20562   1.33520
 Alpha virt. eigenvalues --    1.33788   1.33788   1.72065   2.10287   2.25904

  Beta  occ. eigenvalues --  -24.63433  -1.09202  -0.43586  -0.35927  -0.35927
  Beta virt. eigenvalues --   -0.16311  -0.05538   0.26473   0.33714   0.93632
  Beta virt. eigenvalues --    0.93632   1.04046   1.13910   1.32489   1.32489
  Beta virt. eigenvalues --    1.39511   1.39511   1.46867   1.72177   2.19408

 Mulliken charges and spin densities:
               1          2
     1  H    0.329640  -0.051774
     2  H    0.033479   0.955577
     3  F   -0.363120   0.096197
 Sum of Mulliken charges =   0.00000   1.00000

 Dipole moment (field-independent basis, Debye):
    X=             -2.8730    Y=              0.0000    Z=              0.0000  Tot=              2.8730
 Quadrupole moment (field-independent basis, Debye-Ang):
   XX=             -8.7678   YY=             -7.2422   ZZ=             -7.2422
   XY=             -0.0000   XZ=              0.0000   YZ=             -0.0000

  Exact polarizability:      21.939      -0.000       2.271       0.000       0.000       2.271
 Approx polarizability:      31.061       0.000       2.212      -0.000      -0.000       2.212

 ******    2 imaginary frequencies (negative Signs) ******

                      1                      2                      3
                      A                      A                      A
 Frequencies --  -1378.6541              -293.2608              1058.3635
 Red. masses --      1.0375                 1.0747                 1.0235
 Frc consts  --      1.1619                 0.0545                 0.6755
 IR Inten    --    181.6156                 0.1222                89.6263

                      4
                      A
 Frequencies --   1058.3635
 Red. masses --      1.0235
 Frc consts  --      0.6755
 IR Inten    --     89.6263

 - Thermochemistry -
 -------------------
 Temperature   298.150 Kelvin.  Pressure   1.00000 Atm.
 Atom     1 has atomic number  1 and mass   1.00783

 Molecular mass:    21.01405 amu.
 Principal axes and moments of inertia in atomic units:
                           1         2         3
     Eigenvalues --     0.00000  46.99762  46.99762
           X            1.00000  -0.00000   0.00000
           Y            0.00000   1.00000   0.00000
           Z            0.00000   0.00000   1.00000
 This molecule is a prolate symmetric top.
 Rotational symmetry number  1.
 Rotational temperature (Kelvin)      1.84294
 Rotational constant (GHZ):          38.400694
    2 imaginary frequencies ignored.
 Zero-point vibrational energy      12660.8 (Joules/Mol)
                                    3.02601 (Kcal/Mol)
 Vibrational temperatures:   1522.75  1522.75
          (Kelvin)

 Zero-point correction=                           0.004822 (Hartree/Particle)
 Thermal correction to Energy=                    0.007241
 Thermal correction to Enthalpy=                  0.008186
 Thermal correction to Gibbs Free Energy=        -0.014947
 Sum of electronic and zero-point Energies=           -100.875799
 Sum of electronic and thermal Energies=              -100.873380
 Sum of electronic and thermal Enthalpies=            -100.872436
 Sum of electronic and thermal Free Energies=         -100.895569

                     E (Thermal)             CV                S
                      KCal/Mol        Cal/Mol-Kelvin    Cal/Mol-Kelvin
 Total                    4.544              5.603             48.688
 Electronic               0.000              0.000              1.377
 Translational            0.889              2.981             35.068
 Rotational               0.592              1.987             12.095
 Vibrational              3.063              0.635              0.148

 Normal termination of Gaussian 16 at Fri Aug 22 16:20:15 2025.
