 Gaussian 16, Revision C.01,
 Gaussian 16:  ES64L-G16RevC.01  3-Jul-2019

 -----------------------------------------
 # sp b3lyp/6-311g** Force nosymm scf=(qc)
 -----------------------------------------

 -------------------
 Title Card Required
 -------------------
 Symbolic Z-matrix:
 Charge =  0 Multiplicity = 2

                          Input orientation:
 ---------------------------------------------------------------------
 Center     Atomic      Atomic             Coordinates (Angstroms)
 Number     Number       Type             X           Y           Z
 ---------------------------------------------------------------------
      1          1           0        0.000000    0.000000    0.000000
      2          1           0       -1.850000    0.000000    0.000000
      3          9           0        0.650000    0.000000    0.000000
 ---------------------------------------------------------------------

 SCF Done:  E(UB3LYP) =  -100.799437967     a.u. after    7 cycles

 Alpha  occ. eigenvalues --  -24.62855  -1.31288  -0.59975  -0.42288  -0.42288
 Alpha  occ. eigenvalues --   -0.35449
 Alpha virt. eigenvalues --    0.11498   0.23593   0.52393   0.92911   0.92911
 Alpha virt. eigenvalues --    0.95118   1.21624   1.21624   1.22627   1.47354
 Alpha virt. eigenvalues --    1.47354   1.57869   1.99278   2.17464   3.12348

  Beta  occ. eigenvalues --  -24.62810  -1.31156  -0.59763  -0.42257  -0.42257
  Beta virt. eigenvalues --   -0.10726   0.12915   0.33755   0.54372   0.92920
  Beta virt. eigenvalues --    0.92920   0.95243   1.31289   1.40221   1.40221
  Beta virt. eigenvalues --    1.48535   1.48535   1.65877   2.02087   2.41607

 Mulliken charges and spin densities:
               1          2
     1  H    0.236735   0.012002
     2  H    0.011162   0.981709
     3  F   -0.247897   0.006289
 Sum of Mulliken charges =   0.00000   1.00000

 Dipole moment (field-independent basis, Debye):
    X=             -1.5913    Y=              0.0000    Z=             -0.0000  Tot=              1.5913
 Quadrupole moment (field-independent basis, Debye-Ang):
   XX=             -6.8820   YY=             -6.5634   ZZ=             -6.5634
   XY=              0.0000   XZ=             -0.0000   YZ=              0.0000

  Exact polarizability:       6.342       0.000       2.501      -0.000      -0.000       2.501
 Approx polarizability:       6.172      -0.000       2.498       0.000      -0.000       2.498

 ******    2 imaginary frequencies (negative Signs) ******

                      1                      2                      3
                      A                      A                      A
 Frequencies --  -4512.9378             -4512.9378               469.4536
 Red. masses --      1.0338                 1.0338                 1.0533
 Frc consts  --     12.4047                12.4047                 0.1368
 IR Inten    --    182.7043               182.7043                 0.0235

                      4
                      A
 Frequencies --  10870.6418
 Red. masses --      1.0582
 Frc consts  --     73.6795
 IR Inten    --    133.0143

 - Thermochemistry -
 -------------------
 Temperature   298.150 Kelvin.  Pressure   1.00000 Atm.
 Atom     1 has atomic number  1 and mass   1.00783

 Molecular mass:    21.01405 amu.
 Principal axes and moments of inertia in atomic units:
                           1         2         3
     Eigenvalues --     0.00000  22.30169  22.30169
           X            1.00000  -0.00000   0.00000
           Y            0.00000   1.00000   0.00000
           Z            0.00000   0.00000   1.00000
 This molecule is a prolate symmetric top.
 Rotational symmetry number  1.
 Rotational temperature (Kelvin)      3.88374
 Rotational constant (GHZ):          80.923957
    2 imaginary frequencies ignored.
 Zero-point vibrational energy      67828.8 (Joules/Mol)
                                   16.21148 (Kcal/Mol)
 Warning -- explicit consideration of   1 degrees of freedom as
           vibrations may cause significant error
 Vibrational temperatures:    675.44 15640.43
          (Kelvin)

 Zero-point correction=                           0.025835 (Hartree/Particle)
 Thermal correction to Energy=                    0.028443
 Thermal correction to Enthalpy=                  0.029387
 Thermal correction to Gibbs Free Energy=         0.006677
 Sum of electronic and zero-point Energies=           -100.773603
 Sum of electronic and thermal Energies=              -100.770995
 Sum of electronic and thermal Enthalpies=            -100.770051
 Sum of electronic and thermal Free Energies=         -100.792761

                     E (Thermal)             CV                S
                      KCal/Mol        Cal/Mol-Kelvin    Cal/Mol-Kelvin
 Total                   17.848              6.286             47.798
 Electronic               0.000              0.000              1.377
 Translational            0.889              2.981             35.068
 Rotational               0.592              1.987             10.613
 Vibrational             16.367              1.318              0.739
 Vibration     1          0.827              1.318              0.739

 Normal termination of Gaussian 16 at Fri Aug 22 15:43:58 2025.
