 Gaussian 16, Revision C.01,
 Gaussian 16:  ES64L-G16RevC.01  3-Jul-2019

 -----------------------------------------
 # sp b3lyp/6-311g** Force nosymm scf=(qc)
 -----------------------------------------

 -------------------
 Title Card Required
 -------------------
 Symbolic Z-matrix:
 Charge =  0 Multiplicity = 2

                          Input orientation:
 ---------------------------------------------------------------------
 Center     Atomic      Atomic             Coordinates (Angstroms)
 Number     Number       Type             X           Y           Z
 ---------------------------------------------------------------------
      1          1           0        0.000000    0.000000    0.000000
      2          1           0       -1.650000    0.000000    0.000000
      3          9           0        0.500000    0.000000    0.000000
 ---------------------------------------------------------------------

 SCF Done:  E(UB3LYP) =  -100.264123493     a.u. after    6 cycles

 Alpha  occ. eigenvalues --  -24.63174  -1.42659  -0.63928  -0.44494  -0.44494
 Alpha  occ. eigenvalues --   -0.35313
 Alpha virt. eigenvalues --    0.13629   0.22670   0.61127   0.89379   0.89806
 Alpha virt. eigenvalues --    0.89806   1.20848   1.20848   1.38520   1.59773
 Alpha virt. eigenvalues --    1.59773   1.66361   2.05419   2.21905   3.76490

  Beta  occ. eigenvalues --  -24.63115  -1.42463  -0.63717  -0.44461  -0.44461
  Beta virt. eigenvalues --   -0.10382   0.14792   0.32406   0.65426   0.89490
  Beta virt. eigenvalues --    0.89883   0.89883   1.39050   1.39050   1.43390
  Beta virt. eigenvalues --    1.61124   1.61124   1.77468   2.05998   2.47695

 Mulliken charges and spin densities:
               1          2
     1  H    0.085110   0.015647
     2  H    0.010785   0.984264
     3  F   -0.095895   0.000089
 Sum of Mulliken charges =   0.00000   1.00000

 Dipole moment (field-independent basis, Debye):
    X=             -1.3116    Y=             -0.0000    Z=              0.0000  Tot=              1.3116
 Quadrupole moment (field-independent basis, Debye-Ang):
   XX=             -6.5338   YY=             -6.3824   ZZ=             -6.3824
   XY=             -0.0000   XZ=              0.0000   YZ=             -0.0000

  Exact polarizability:       5.464      -0.000       2.467       0.000       0.000       2.467
 Approx polarizability:       5.165       0.000       2.473      -0.000       0.000       2.473

 ******    2 imaginary frequencies (negative Signs) ******

                      1                      2                      3
                      A                      A                      A
 Frequencies --  -9429.0066             -9429.0066               759.6387
 Red. masses --      1.0361                 1.0361                 1.0533
 Frc consts  --     54.2713                54.2713                 0.3581
 IR Inten    --    218.4577               218.4577                 3.0538

                      4
                      A
 Frequencies --  19156.9021
 Red. masses --      1.0582
 Frc consts  --    228.8141
 IR Inten    --     79.7708

 - Thermochemistry -
 -------------------
 Temperature   298.150 Kelvin.  Pressure   1.00000 Atm.
 Atom     1 has atomic number  1 and mass   1.00783

 Molecular mass:    21.01405 amu.
 Principal axes and moments of inertia in atomic units:
                           1         2         3
     Eigenvalues --     0.00000  16.32404  16.32404
           X            1.00000  -0.00000   0.00000
           Y            0.00000   1.00000   0.00000
           Z            0.00000   0.00000   1.00000
 This molecule is a prolate symmetric top.
 Rotational symmetry number  1.
 Rotational temperature (Kelvin)      5.30591
 Rotational constant (GHZ):         110.557284
    2 imaginary frequencies ignored.
 Zero-point vibrational energy     119127.4 (Joules/Mol)
                                   28.47212 (Kcal/Mol)
 Vibrational temperatures:   1092.95 27562.51
          (Kelvin)

 Zero-point correction=                           0.045373 (Hartree/Particle)
 Thermal correction to Energy=                    0.047825
 Thermal correction to Enthalpy=                  0.048769
 Thermal correction to Gibbs Free Energy=         0.026589
 Sum of electronic and zero-point Energies=           -100.218750
 Sum of electronic and thermal Energies=              -100.216299
 Sum of electronic and thermal Enthalpies=            -100.215355
 Sum of electronic and thermal Free Energies=         -100.237535

                     E (Thermal)             CV                S
                      KCal/Mol        Cal/Mol-Kelvin    Cal/Mol-Kelvin
 Total                   30.010              5.688             46.681
 Electronic               0.000              0.000              1.377
 Translational            0.889              2.981             35.068
 Rotational               0.592              1.987              9.993
 Vibrational             28.529              0.720              0.243

 Normal termination of Gaussian 16 at Fri Aug 22 15:36:40 2025.
