 Gaussian 16, Revision C.01,
 Gaussian 16:  ES64L-G16RevC.01  3-Jul-2019

 -----------------------------------------
 # sp b3lyp/6-311g** Force nosymm scf=(qc)
 -----------------------------------------

 -------------------
 Title Card Required
 -------------------
 Symbolic Z-matrix:
 Charge =  0 Multiplicity = 2

                          Input orientation:
 ---------------------------------------------------------------------
 Center     Atomic      Atomic             Coordinates (Angstroms)
 Number     Number       Type             X           Y           Z
 ---------------------------------------------------------------------
      1          1           0        0.000000    0.000000    0.000000
      2          1           0       -1.300000    0.000000    0.000000
      3          9           0        1.150000    0.000000    0.000000
 ---------------------------------------------------------------------

 SCF Done:  E(UB3LYP) =  -100.945587136     a.u. after    8 cycles

 Alpha  occ. eigenvalues --  -24.63875  -1.13316  -0.52076  -0.37613  -0.37591
 Alpha  occ. eigenvalues --   -0.37591
 Alpha virt. eigenvalues --    0.05213   0.19760   0.32154   0.92680   0.92680
 Alpha virt. eigenvalues --    1.00043   1.11350   1.11350   1.18978   1.47502
 Alpha virt. eigenvalues --    1.47502   1.55642   2.05658   2.32398   2.45315

  Beta  occ. eigenvalues --  -24.63129  -1.11427  -0.47689  -0.36911  -0.36911
  Beta virt. eigenvalues --   -0.19488   0.08187   0.23399   0.35827   0.93214
  Beta virt. eigenvalues --    0.93214   1.01695   1.19047   1.19047   1.25847
  Beta virt. eigenvalues --    1.51814   1.51814   1.58412   2.17429   2.31712

 Mulliken charges and spin densities:
               1          2
     1  H    0.292641  -0.043919
     2  H    0.051368   0.830509
     3  F   -0.344009   0.213410
 Sum of Mulliken charges =  -0.00000   1.00000

 Dipole moment (field-independent basis, Debye):
    X=             -2.5127    Y=             -0.0000    Z=              0.0000  Tot=              2.5127
 Quadrupole moment (field-independent basis, Debye-Ang):
   XX=             -7.8368   YY=             -6.9015   ZZ=             -6.9015
   XY=             -0.0000   XZ=              0.0000   YZ=              0.0000

  Exact polarizability:      19.228       0.000       2.500       0.000       0.000       2.500
 Approx polarizability:      23.908      -0.000       2.489      -0.000       0.000       2.489

 ******    1 imaginary frequencies (negative Signs) ******

                      1                      2                      3
                      A                      A                      A
 Frequencies --  -1647.2466               949.0486              1072.3680
 Red. masses --      1.0123                 1.1032                 1.0195
 Frc consts  --      1.6183                 0.5854                 0.6908
 IR Inten    --      0.0677                47.1882                58.9715

                      4
                      A
 Frequencies --   1072.3680
 Red. masses --      1.0195
 Frc consts  --      0.6908
 IR Inten    --     58.9715

 - Thermochemistry -
 -------------------
 Temperature   298.150 Kelvin.  Pressure   1.00000 Atm.
 Atom     1 has atomic number  1 and mass   1.00783

 Molecular mass:    21.01405 amu.
 Principal axes and moments of inertia in atomic units:
                           1         2         3
     Eigenvalues --     0.00000  24.12575  24.12575
           X            1.00000  -0.00000   0.00000
           Y            0.00000   1.00000   0.00000
           Z            0.00000   0.00000   1.00000
 This molecule is a prolate symmetric top.
 Rotational symmetry number  1.
 Rotational temperature (Kelvin)      3.59010
 Rotational constant (GHZ):          74.805594
    1 imaginary frequencies ignored.
 Zero-point vibrational energy      18504.9 (Joules/Mol)
                                    4.42279 (Kcal/Mol)
 Vibrational temperatures:   1365.47  1542.90  1542.90
          (Kelvin)

 Zero-point correction=                           0.007048 (Hartree/Particle)
 Thermal correction to Energy=                    0.009509
 Thermal correction to Enthalpy=                  0.010453
 Thermal correction to Gibbs Free Energy=        -0.012101
 Sum of electronic and zero-point Energies=           -100.938539
 Sum of electronic and thermal Energies=              -100.936078
 Sum of electronic and thermal Enthalpies=            -100.935134
 Sum of electronic and thermal Free Energies=         -100.957688

                     E (Thermal)             CV                S
                      KCal/Mol        Cal/Mol-Kelvin    Cal/Mol-Kelvin
 Total                    5.967              6.013             47.469
 Electronic               0.000              0.000              1.377
 Translational            0.889              2.981             35.068
 Rotational               0.592              1.987             10.769
 Vibrational              4.486              1.045              0.254

 Normal termination of Gaussian 16 at Fri Aug 22 16:07:14 2025.
