 Gaussian 16, Revision C.01,
 Gaussian 16:  ES64L-G16RevC.01  3-Jul-2019

 -----------------------------------------
 # sp b3lyp/6-311g** Force nosymm scf=(qc)
 -----------------------------------------

 -------------------
 Title Card Required
 -------------------
 Symbolic Z-matrix:
 Charge =  0 Multiplicity = 2

                          Input orientation:
 ---------------------------------------------------------------------
 Center     Atomic      Atomic             Coordinates (Angstroms)
 Number     Number       Type             X           Y           Z
 ---------------------------------------------------------------------
      1          1           0        0.000000    0.000000    0.000000
      2          1           0       -1.750000    0.000000    0.000000
      3          9           0        2.200000    0.000000    0.000000
 ---------------------------------------------------------------------

 SCF Done:  E(UB3LYP) =  -100.804003498     a.u. after   15 cycles

 Alpha  occ. eigenvalues --  -24.70250  -1.16539  -0.49414  -0.41454  -0.41454
 Alpha  occ. eigenvalues --   -0.36437
 Alpha virt. eigenvalues --   -0.12659   0.23728   0.31234   0.86493   0.94228
 Alpha virt. eigenvalues --    0.94228   1.03234   1.20806   1.20806   1.22773
 Alpha virt. eigenvalues --    1.34683   1.34683   1.63712   2.13306   2.37757

  Beta  occ. eigenvalues --  -24.67575  -1.08976  -0.38799  -0.38799  -0.36303
  Beta virt. eigenvalues --   -0.23041  -0.11580   0.26138   0.30644   0.90636
  Beta virt. eigenvalues --    0.95400   0.95400   1.07066   1.21947   1.21947
  Beta virt. eigenvalues --    1.27702   1.35634   1.35634   1.64115   2.14105

 Mulliken charges and spin densities:
               1          2
     1  H    0.077964  -0.582613
     2  H    0.049817   0.739919
     3  F   -0.127780   0.842694
 Sum of Mulliken charges =  -0.00000   1.00000

 Dipole moment (field-independent basis, Debye):
    X=             -1.8321    Y=             -0.0000    Z=             -0.0000  Tot=              1.8321
 Quadrupole moment (field-independent basis, Debye-Ang):
   XX=             -8.0491   YY=             -7.6166   ZZ=             -7.6166
   XY=             -0.0000   XZ=             -0.0000   YZ=             -0.0000

  Exact polarizability:      58.098      -0.000       2.043      -0.000      -0.000       2.043
 Approx polarizability:      75.459       0.000       1.976       0.000       0.000       1.976

 ******    2 imaginary frequencies (negative Signs) ******

                      1                      2                      3
                      A                      A                      A
 Frequencies --  -1866.2997              -488.8889               811.0905
 Red. masses --      1.0102                 1.1057                 1.0154
 Frc consts  --      2.0730                 0.1557                 0.3936
 IR Inten    --    259.8861                45.5660                 2.4229

                      4
                      A
 Frequencies --    811.0905
 Red. masses --      1.0154
 Frc consts  --      0.3936
 IR Inten    --      2.4229

 - Thermochemistry -
 -------------------
 Temperature   298.150 Kelvin.  Pressure   1.00000 Atm.
 Atom     1 has atomic number  1 and mass   1.00783

 Molecular mass:    21.01405 amu.
 Principal axes and moments of inertia in atomic units:
                           1         2         3
     Eigenvalues --     0.00000  67.04431  67.04431
           X            1.00000  -0.00000   0.00000
           Y            0.00000   1.00000   0.00000
           Z            0.00000   0.00000   1.00000
 This molecule is a prolate symmetric top.
 Rotational symmetry number  1.
 Rotational temperature (Kelvin)      1.29189
 Rotational constant (GHZ):          26.918635
    2 imaginary frequencies ignored.
 Zero-point vibrational energy       9702.8 (Joules/Mol)
                                    2.31902 (Kcal/Mol)
 Vibrational temperatures:   1166.98  1166.98
          (Kelvin)

 Zero-point correction=                           0.003696 (Hartree/Particle)
 Thermal correction to Energy=                    0.006207
 Thermal correction to Enthalpy=                  0.007151
 Thermal correction to Gibbs Free Energy=        -0.016436
 Sum of electronic and zero-point Energies=           -100.800308
 Sum of electronic and thermal Energies=              -100.797797
 Sum of electronic and thermal Enthalpies=            -100.796853
 Sum of electronic and thermal Free Energies=         -100.820440

                     E (Thermal)             CV                S
                      KCal/Mol        Cal/Mol-Kelvin    Cal/Mol-Kelvin
 Total                    3.895              6.233             49.643
 Electronic               0.000              0.000              1.377
 Translational            0.889              2.981             35.068
 Rotational               0.592              1.987             12.801
 Vibrational              2.413              1.265              0.397

 Normal termination of Gaussian 16 at Fri Aug 22 17:11:26 2025.
