 Gaussian 16, Revision C.01,
 Gaussian 16:  ES64L-G16RevC.01  3-Jul-2019

 -----------------------------------------
 # sp b3lyp/6-311g** Force nosymm scf=(qc)
 -----------------------------------------

 -------------------
 Title Card Required
 -------------------
 Symbolic Z-matrix:
 Charge =  0 Multiplicity = 2

                          Input orientation:
 ---------------------------------------------------------------------
 Center     Atomic      Atomic             Coordinates (Angstroms)
 Number     Number       Type             X           Y           Z
 ---------------------------------------------------------------------
      1          1           0        0.000000    0.000000    0.000000
      2          1           0       -2.850000    0.000000    0.000000
      3          9           0        0.850000    0.000000    0.000000
 ---------------------------------------------------------------------

 SCF Done:  E(UB3LYP) =  -100.965643397     a.u. after    6 cycles

 Alpha  occ. eigenvalues --  -24.63822  -1.20872  -0.54994  -0.40103  -0.40103
 Alpha  occ. eigenvalues --   -0.34216
 Alpha virt. eigenvalues --    0.04729   0.25352   0.42453   0.94367   0.94367
 Alpha virt. eigenvalues --    0.97387   1.21676   1.23320   1.23320   1.34298
 Alpha virt. eigenvalues --    1.38391   1.38391   2.03541   2.14607   2.42974

  Beta  occ. eigenvalues --  -24.63816  -1.20857  -0.54975  -0.40099  -0.40099
  Beta virt. eigenvalues --   -0.07387   0.05986   0.38410   0.42782   0.94368
  Beta virt. eigenvalues --    0.94368   0.97385   1.30192   1.38388   1.38388
  Beta virt. eigenvalues --    1.48643   1.48643   1.50915   2.03676   2.41970

 Mulliken charges and spin densities:
               1          2
     1  H    0.282225   0.001911
     2  H    0.002925   0.995946
     3  F   -0.285150   0.002142
 Sum of Mulliken charges =   0.00000   1.00000

 Dipole moment (field-independent basis, Debye):
    X=             -1.8501    Y=             -0.0000    Z=             -0.0000  Tot=              1.8501
 Quadrupole moment (field-independent basis, Debye-Ang):
   XX=             -7.6388   YY=             -6.8178   ZZ=             -6.8178
   XY=             -0.0000   XZ=              0.0000   YZ=             -0.0000

  Exact polarizability:       6.073      -0.000       2.450       0.000       0.000       2.450
 Approx polarizability:       6.659       0.000       2.432      -0.000       0.000       2.432

 ******    3 imaginary frequencies (negative Signs) ******

                      1                      2                      3
                      A                      A                      A
 Frequencies --  -1317.9715             -1317.9715               -49.0499
 Red. masses --      1.0363                 1.0363                 1.0532
 Frc consts  --      1.0606                 1.0606                 0.0015
 IR Inten    --    181.3884               181.3884                 0.2215

                      4
                      A
 Frequencies --   5309.8112
 Red. masses --      1.0583
 Frc consts  --     17.5806
 IR Inten    --    115.0424

 - Thermochemistry -
 -------------------
 Temperature   298.150 Kelvin.  Pressure   1.00000 Atm.
 Atom     1 has atomic number  1 and mass   1.00783

 Molecular mass:    21.01405 amu.
 Principal axes and moments of inertia in atomic units:
                           1         2         3
     Eigenvalues --     0.00000  48.29732  48.29732
           X            1.00000  -0.00000   0.00000
           Y            0.00000   1.00000   0.00000
           Z            0.00000   0.00000   1.00000
 This molecule is a prolate symmetric top.
 Rotational symmetry number  1.
 Rotational temperature (Kelvin)      1.79335
 Rotational constant (GHZ):          37.367319
    3 imaginary frequencies ignored.
 Zero-point vibrational energy      31759.7 (Joules/Mol)
                                    7.59076 (Kcal/Mol)
 Vibrational temperatures:   7639.63
          (Kelvin)

 Zero-point correction=                           0.012097 (Hartree/Particle)
 Thermal correction to Energy=                    0.014457
 Thermal correction to Enthalpy=                  0.015401
 Thermal correction to Gibbs Free Energy=        -0.007687
 Sum of electronic and zero-point Energies=           -100.953547
 Sum of electronic and thermal Energies=              -100.951186
 Sum of electronic and thermal Enthalpies=            -100.950242
 Sum of electronic and thermal Free Energies=         -100.973331

                     E (Thermal)             CV                S
                      KCal/Mol        Cal/Mol-Kelvin    Cal/Mol-Kelvin
 Total                    9.072              4.968             48.594
 Electronic               0.000              0.000              1.377
 Translational            0.889              2.981             35.068
 Rotational               0.592              1.987             12.149
 Vibrational              7.591              0.000              0.000

 Normal termination of Gaussian 16 at Fri Aug 22 15:54:01 2025.
