 Gaussian 16, Revision C.01,
 Gaussian 16:  ES64L-G16RevC.01  3-Jul-2019

 -----------------------------------------
 # sp b3lyp/6-311g** Force nosymm scf=(qc)
 -----------------------------------------

 -------------------
 Title Card Required
 -------------------
 Symbolic Z-matrix:
 Charge =  0 Multiplicity = 2

                          Input orientation:
 ---------------------------------------------------------------------
 Center     Atomic      Atomic             Coordinates (Angstroms)
 Number     Number       Type             X           Y           Z
 ---------------------------------------------------------------------
      1          1           0        0.000000    0.000000    0.000000
      2          1           0       -3.250000    0.000000    0.000000
      3          9           0        3.100000    0.000000    0.000000
 ---------------------------------------------------------------------

 SCF Done:  E(UB3LYP) =  -100.760776582     a.u. after   22 cycles

 Alpha  occ. eigenvalues --  -24.74430  -1.20465  -0.53550  -0.44964  -0.44964
 Alpha  occ. eigenvalues --   -0.32556
 Alpha virt. eigenvalues --   -0.08248   0.24366   0.35869   0.89061   0.92067
 Alpha virt. eigenvalues --    0.92067   1.03371   1.24962   1.24962   1.25335
 Alpha virt. eigenvalues --    1.43663   1.43663   1.43883   2.15220   2.39936

  Beta  occ. eigenvalues --  -24.71380  -1.11715  -0.41909  -0.41909  -0.33514
  Beta virt. eigenvalues --   -0.24971  -0.07018   0.24261   0.37424   0.93536
  Beta virt. eigenvalues --    0.93536   0.97884   1.07197   1.23851   1.23851
  Beta virt. eigenvalues --    1.24309   1.45274   1.45504   1.45504   2.15595

 Mulliken charges and spin densities:
               1          2
     1  H    0.029376  -0.963046
     2  H    0.000727   0.996119
     3  F   -0.030103   0.966927
 Sum of Mulliken charges =  -0.00000   1.00000

 Dipole moment (field-independent basis, Debye):
    X=             -0.4908    Y=             -0.0000    Z=              0.0000  Tot=              0.4908
 Quadrupole moment (field-independent basis, Debye-Ang):
   XX=             -8.0629   YY=             -7.6182   ZZ=             -7.6182
   XY=             -0.0000   XZ=              0.0000   YZ=              0.0000

  Exact polarizability:      32.246      -0.000       2.026       0.000       0.000       2.026
 Approx polarizability:      30.674      -0.000       1.927       0.000      -0.000       1.927

 ******    2 imaginary frequencies (negative Signs) ******

                      1                      2                      3
                      A                      A                      A
 Frequencies --   -367.9476              -146.7991               131.1678
 Red. masses --      1.0336                 1.0789                 1.0185
 Frc consts  --      0.0825                 0.0137                 0.0103
 IR Inten    --     30.8572                 2.4127                 0.7839

                      4
                      A
 Frequencies --    131.1678
 Red. masses --      1.0185
 Frc consts  --      0.0103
 IR Inten    --      0.7839

 - Thermochemistry -
 -------------------
 Temperature   298.150 Kelvin.  Pressure   1.00000 Atm.
 Atom     1 has atomic number  1 and mass   1.00783

 Molecular mass:    21.01405 amu.
 Principal axes and moments of inertia in atomic units:
                           1         2         3
     Eigenvalues --     0.00000 164.29326 164.29326
           X            1.00000  -0.00000   0.00000
           Y            0.00000   1.00000   0.00000
           Z            0.00000   0.00000   1.00000
 This molecule is a prolate symmetric top.
 Rotational symmetry number  1.
 Rotational temperature (Kelvin)      0.52719
 Rotational constant (GHZ):          10.984876
    2 imaginary frequencies ignored.
 Zero-point vibrational energy       1569.1 (Joules/Mol)
                                    0.37503 (Kcal/Mol)
 Warning -- explicit consideration of   2 degrees of freedom as
           vibrations may cause significant error
 Vibrational temperatures:    188.72   188.72
          (Kelvin)

 Zero-point correction=                           0.000598 (Hartree/Particle)
 Thermal correction to Energy=                    0.004311
 Thermal correction to Enthalpy=                  0.005256
 Thermal correction to Gibbs Free Energy=        -0.021772
 Sum of electronic and zero-point Energies=           -100.760179
 Sum of electronic and thermal Energies=              -100.756465
 Sum of electronic and thermal Enthalpies=            -100.755521
 Sum of electronic and thermal Free Energies=         -100.782549

                     E (Thermal)             CV                S
                      KCal/Mol        Cal/Mol-Kelvin    Cal/Mol-Kelvin
 Total                    2.705              8.812             56.885
 Electronic               0.000              0.000              1.377
 Translational            0.889              2.981             35.068
 Rotational               0.592              1.987             14.582
 Vibrational              1.224              3.844              5.858
 Vibration     1          0.612              1.922              2.929
 Vibration     2          0.612              1.922              2.929

 Normal termination of Gaussian 16 at Fri Aug 22 19:56:03 2025.
