 Gaussian 16, Revision C.01,
 Gaussian 16:  ES64L-G16RevC.01  3-Jul-2019

 -----------------------------------------
 # sp b3lyp/6-311g** Force nosymm scf=(qc)
 -----------------------------------------

 -------------------
 Title Card Required
 -------------------
 Symbolic Z-matrix:
 Charge =  0 Multiplicity = 2

                          Input orientation:
 ---------------------------------------------------------------------
 Center     Atomic      Atomic             Coordinates (Angstroms)
 Number     Number       Type             X           Y           Z
 ---------------------------------------------------------------------
      1          1           0        0.000000    0.000000    0.000000
      2          1           0       -3.850000    0.000000    0.000000
      3          9           0        3.550000    0.000000    0.000000
 ---------------------------------------------------------------------

 SCF Done:  E(UB3LYP) =  -100.758830783     a.u. after   32 cycles

 Alpha  occ. eigenvalues --  -24.75459  -1.21416  -0.54582  -0.45827  -0.45827
 Alpha  occ. eigenvalues --   -0.32290
 Alpha virt. eigenvalues --   -0.06361   0.24138   0.37326   0.87440   0.91436
 Alpha virt. eigenvalues --    0.91436   1.01692   1.25206   1.25206   1.25245
 Alpha virt. eigenvalues --    1.46096   1.46096   1.46601   2.14638   2.42231

  Beta  occ. eigenvalues --  -24.72340  -1.12454  -0.42701  -0.42701  -0.32754
  Beta virt. eigenvalues --   -0.25519  -0.05976   0.23879   0.38177   0.92927
  Beta virt. eigenvalues --    0.92927   0.96608   1.05717   1.24679   1.24679
  Beta virt. eigenvalues --    1.24701   1.46514   1.46654   1.46654   2.14773

 Mulliken charges and spin densities:
               1          2
     1  H    0.010075  -0.987964
     2  H    0.000064   0.999103
     3  F   -0.010140   0.988861
 Sum of Mulliken charges =  -0.00000   1.00000

 Dipole moment (field-independent basis, Debye):
    X=             -0.1864    Y=             -0.0000    Z=             -0.0000  Tot=              0.1864
 Quadrupole moment (field-independent basis, Debye-Ang):
   XX=             -7.3526   YY=             -7.6183   ZZ=             -7.6183
   XY=             -0.0000   XZ=              0.0000   YZ=              0.0000

  Exact polarizability:      21.616      -0.000       2.038       0.000      -0.000       2.038
 Approx polarizability:      16.848      -0.000       1.934       0.000      -0.000       1.934

 ******    2 imaginary frequencies (negative Signs) ******

                      1                      2                      3
                      A                      A                      A
 Frequencies --   -210.6144               -76.3606                56.4967
 Red. masses --      1.0407                 1.0713                 1.0190
 Frc consts  --      0.0272                 0.0037                 0.0019
 IR Inten    --      9.4608                 0.3159                 0.0896

                      4
                      A
 Frequencies --     56.4968
 Red. masses --      1.0190
 Frc consts  --      0.0019
 IR Inten    --      0.0896

 - Thermochemistry -
 -------------------
 Temperature   298.150 Kelvin.  Pressure   1.00000 Atm.
 Atom     1 has atomic number  1 and mass   1.00783

 Molecular mass:    21.01405 amu.
 Principal axes and moments of inertia in atomic units:
                           1         2         3
     Eigenvalues --     0.00000 221.74221 221.74221
           X            1.00000  -0.00000   0.00000
           Y            0.00000   1.00000   0.00000
           Z            0.00000   0.00000   1.00000
 This molecule is a prolate symmetric top.
 Rotational symmetry number  1.
 Rotational temperature (Kelvin)      0.39061
 Rotational constant (GHZ):           8.138916
    2 imaginary frequencies ignored.
 Zero-point vibrational energy        675.9 (Joules/Mol)
                                    0.16153 (Kcal/Mol)
 Warning -- explicit consideration of   2 degrees of freedom as
           vibrations may cause significant error
 Vibrational temperatures:     81.29    81.29
          (Kelvin)

 Zero-point correction=                           0.000257 (Hartree/Particle)
 Thermal correction to Energy=                    0.004261
 Thermal correction to Enthalpy=                  0.005205
 Thermal correction to Gibbs Free Energy=        -0.023671
 Sum of electronic and zero-point Energies=           -100.758573
 Sum of electronic and thermal Energies=              -100.754570
 Sum of electronic and thermal Enthalpies=            -100.753626
 Sum of electronic and thermal Free Energies=         -100.782502

                     E (Thermal)             CV                S
                      KCal/Mol        Cal/Mol-Kelvin    Cal/Mol-Kelvin
 Total                    2.674              8.918             60.775
 Electronic               0.000              0.000              1.377
 Translational            0.889              2.981             35.068
 Rotational               0.592              1.987             15.178
 Vibrational              1.192              3.950              9.152
 Vibration     1          0.596              1.975              4.576
 Vibration     2          0.596              1.975              4.576

 Normal termination of Gaussian 16 at Fri Aug 22 22:41:58 2025.
