 Gaussian 16, Revision C.01,
 Gaussian 16:  ES64L-G16RevC.01  3-Jul-2019

 -----------------------------------------
 # sp b3lyp/6-311g** Force nosymm scf=(qc)
 -----------------------------------------

 -------------------
 Title Card Required
 -------------------
 Symbolic Z-matrix:
 Charge =  0 Multiplicity = 2

                          Input orientation:
 ---------------------------------------------------------------------
 Center     Atomic      Atomic             Coordinates (Angstroms)
 Number     Number       Type             X           Y           Z
 ---------------------------------------------------------------------
      1          1           0        0.000000    0.000000    0.000000
      2          1           0       -2.600000    0.000000    0.000000
      3          9           0        2.700000    0.000000    0.000000
 ---------------------------------------------------------------------

 SCF Done:  E(UB3LYP) =  -100.766830534     a.u. after   19 cycles

 Alpha  occ. eigenvalues --  -24.72849  -1.18990  -0.51959  -0.43634  -0.43634
 Alpha  occ. eigenvalues --   -0.33337
 Alpha virt. eigenvalues --   -0.11000   0.24958   0.33613   0.90231   0.93010
 Alpha virt. eigenvalues --    0.93010   1.05788   1.24280   1.24280   1.26454
 Alpha virt. eigenvalues --    1.39367   1.39367   1.41705   2.15262   2.35651

  Beta  occ. eigenvalues --  -24.69914  -1.10607  -0.40702  -0.40702  -0.34616
  Beta virt. eigenvalues --   -0.24061  -0.09057   0.25546   0.35151   0.94434
  Beta virt. eigenvalues --    0.94434   0.98290   1.09271   1.22847   1.22847
  Beta virt. eigenvalues --    1.26446   1.42438   1.42438   1.43591   2.15498

 Mulliken charges and spin densities:
               1          2
     1  H    0.056775  -0.906732
     2  H    0.006759   0.978017
     3  F   -0.063534   0.928715
 Sum of Mulliken charges =  -0.00000   1.00000

 Dipole moment (field-independent basis, Debye):
    X=             -0.9613    Y=              0.0000    Z=             -0.0000  Tot=              0.9613
 Quadrupole moment (field-independent basis, Debye-Ang):
   XX=             -8.5688   YY=             -7.6245   ZZ=             -7.6245
   XY=              0.0000   XZ=             -0.0000   YZ=             -0.0000

  Exact polarizability:      42.124       0.000       2.015      -0.000      -0.000       2.015
 Approx polarizability:      43.559       0.000       1.919      -0.000      -0.000       1.919

 ******    2 imaginary frequencies (negative Signs) ******

                      1                      2                      3
                      A                      A                      A
 Frequencies --   -688.2637              -285.5364               265.0547
 Red. masses --      1.0182                 1.0963                 1.0175
 Frc consts  --      0.2842                 0.0527                 0.0421
 IR Inten    --     44.0414                19.1611                 2.6900

                      4
                      A
 Frequencies --    265.0547
 Red. masses --      1.0175
 Frc consts  --      0.0421
 IR Inten    --      2.6900

 - Thermochemistry -
 -------------------
 Temperature   298.150 Kelvin.  Pressure   1.00000 Atm.
 Atom     1 has atomic number  1 and mass   1.00783

 Molecular mass:    21.01405 amu.
 Principal axes and moments of inertia in atomic units:
                           1         2         3
     Eigenvalues --     0.00000 116.28608 116.28608
           X            1.00000  -0.00000   0.00000
           Y            0.00000   1.00000   0.00000
           Z            0.00000   0.00000   1.00000
 This molecule is a prolate symmetric top.
 Rotational symmetry number  1.
 Rotational temperature (Kelvin)      0.74483
 Rotational constant (GHZ):          15.519839
    2 imaginary frequencies ignored.
 Zero-point vibrational energy       3170.8 (Joules/Mol)
                                    0.75783 (Kcal/Mol)
 Warning -- explicit consideration of   2 degrees of freedom as
           vibrations may cause significant error
 Vibrational temperatures:    381.35   381.35
          (Kelvin)

 Zero-point correction=                           0.001208 (Hartree/Particle)
 Thermal correction to Energy=                    0.004500
 Thermal correction to Enthalpy=                  0.005444
 Thermal correction to Gibbs Free Energy=        -0.020022
 Sum of electronic and zero-point Energies=           -100.765623
 Sum of electronic and thermal Energies=              -100.762331
 Sum of electronic and thermal Enthalpies=            -100.761387
 Sum of electronic and thermal Free Energies=         -100.786852

                     E (Thermal)             CV                S
                      KCal/Mol        Cal/Mol-Kelvin    Cal/Mol-Kelvin
 Total                    2.823              8.442             53.597
 Electronic               0.000              0.000              1.377
 Translational            0.889              2.981             35.068
 Rotational               0.592              1.987             13.895
 Vibrational              1.342              3.474              3.256
 Vibration     1          0.671              1.737              1.628
 Vibration     2          0.671              1.737              1.628

 Normal termination of Gaussian 16 at Fri Aug 22 18:26:00 2025.
