 Gaussian 16, Revision C.01,
 Gaussian 16:  ES64L-G16RevC.01  3-Jul-2019

 -----------------------------------------
 # sp b3lyp/6-311g** Force nosymm scf=(qc)
 -----------------------------------------

 -------------------
 Title Card Required
 -------------------
 Symbolic Z-matrix:
 Charge =  0 Multiplicity = 2

                          Input orientation:
 ---------------------------------------------------------------------
 Center     Atomic      Atomic             Coordinates (Angstroms)
 Number     Number       Type             X           Y           Z
 ---------------------------------------------------------------------
      1          1           0        0.000000    0.000000    0.000000
      2          1           0       -1.800000    0.000000    0.000000
      3          9           0        3.600000    0.000000    0.000000
 ---------------------------------------------------------------------

 SCF Done:  E(UB3LYP) =  -100.786160343     a.u. after   85 cycles

 Alpha  occ. eigenvalues --  -24.76187  -1.22083  -0.55284  -0.46466  -0.46446
 Alpha  occ. eigenvalues --   -0.32948
 Alpha virt. eigenvalues --   -0.10697   0.25934   0.31458   0.86179   0.90950
 Alpha virt. eigenvalues --    0.91715   1.01182   1.10127   1.24686   1.24687
 Alpha virt. eigenvalues --    1.37788   1.37792   1.61509   2.15051   2.39704

  Beta  occ. eigenvalues --  -24.73036  -1.13021  -0.43315  -0.43287  -0.32929
  Beta virt. eigenvalues --   -0.25961  -0.10728   0.25901   0.31572   0.92451
  Beta virt. eigenvalues --    0.93121   0.95660   1.05279   1.10113   1.24686
  Beta virt. eigenvalues --    1.24689   1.37788   1.37788   1.61550   2.15386

 Mulliken charges and spin densities:
               1          2
     1  H    0.000326  -0.720371
     2  H   -0.001032   0.721406
     3  F    0.000706   0.998964
 Sum of Mulliken charges =   0.00000   1.00000

 Dipole moment (field-independent basis, Debye):
    X=              0.0102    Y=             -0.0006    Z=             -0.0003  Tot=              0.0103
 Quadrupole moment (field-independent basis, Debye-Ang):
   XX=             -6.6568   YY=             -7.1754   ZZ=             -7.5908
   XY=             -0.2541   XZ=             -0.1366   YZ=              0.3143

  Exact polarizability:      13.358      -0.242       2.326      -0.134       0.169       2.103
 Approx polarizability:      35.228      -0.150       2.355      -0.081       0.212       2.075

 ******    2 imaginary frequencies (negative Signs) ******

                      1                      2                      3
                      A                      A                      A
 Frequencies --  -1719.2159               -35.3069               772.9552
 Red. masses --      1.0078                 1.1085                 1.0117
 Frc consts  --      1.7551                 0.0008                 0.3561
 IR Inten    --     10.7401                 1.1754                 0.0066

                      4
                      A
 Frequencies --    773.2648
 Red. masses --      1.0117
 Frc consts  --      0.3564
 IR Inten    --      0.2754

 - Thermochemistry -
 -------------------
 Temperature   298.150 Kelvin.  Pressure   1.00000 Atm.
 Atom     1 has atomic number  1 and mass   1.00783

 Molecular mass:    21.01405 amu.
 Principal axes and moments of inertia in atomic units:
                           1         2         3
     Eigenvalues --     0.00000 137.60908 137.60908
           X            1.00000  -0.00000   0.00000
           Y            0.00000   1.00000   0.00000
           Z            0.00000   0.00000   1.00000
 This molecule is a prolate symmetric top.
 Rotational symmetry number  1.
 Rotational temperature (Kelvin)      0.62942
 Rotational constant (GHZ):          13.114986
    2 imaginary frequencies ignored.
 Zero-point vibrational energy       9248.4 (Joules/Mol)
                                    2.21043 (Kcal/Mol)
 Vibrational temperatures:   1112.11  1112.56
          (Kelvin)

 Zero-point correction=                           0.003523 (Hartree/Particle)
 Thermal correction to Energy=                    0.006056
 Thermal correction to Enthalpy=                  0.007000
 Thermal correction to Gibbs Free Energy=        -0.017296
 Sum of electronic and zero-point Energies=           -100.782638
 Sum of electronic and thermal Energies=              -100.780104
 Sum of electronic and thermal Enthalpies=            -100.779160
 Sum of electronic and thermal Free Energies=         -100.803456

                     E (Thermal)             CV                S
                      KCal/Mol        Cal/Mol-Kelvin    Cal/Mol-Kelvin
 Total                    3.800              6.360             51.136
 Electronic               0.000              0.000              1.377
 Translational            0.889              2.981             35.068
 Rotational               0.592              1.987             14.229
 Vibrational              2.319              1.392              0.461

 Normal termination of Gaussian 16 at Fri Aug 22 23:04:49 2025.
