 Gaussian 16, Revision C.01,
 Gaussian 16:  ES64L-G16RevC.01  3-Jul-2019

 -----------------------------------------
 # sp b3lyp/6-311g** Force nosymm scf=(qc)
 -----------------------------------------

 -------------------
 Title Card Required
 -------------------
 Symbolic Z-matrix:
 Charge =  0 Multiplicity = 2

                          Input orientation:
 ---------------------------------------------------------------------
 Center     Atomic      Atomic             Coordinates (Angstroms)
 Number     Number       Type             X           Y           Z
 ---------------------------------------------------------------------
      1          1           0        0.000000    0.000000    0.000000
      2          1           0       -3.950000    0.000000    0.000000
      3          9           0        1.500000    0.000000    0.000000
 ---------------------------------------------------------------------

 SCF Done:  E(UB3LYP) =  -100.854614743     a.u. after    8 cycles

 Alpha  occ. eigenvalues --  -24.64368  -1.09689  -0.43237  -0.36442  -0.36442
 Alpha  occ. eigenvalues --   -0.33615
 Alpha virt. eigenvalues --   -0.14538   0.20513   0.26956   0.93486   0.93486
 Alpha virt. eigenvalues --    1.03523   1.09318   1.23853   1.23891   1.23891
 Alpha virt. eigenvalues --    1.31099   1.31099   1.72833   2.12707   2.18925

  Beta  occ. eigenvalues --  -24.64355  -1.09655  -0.43208  -0.36430  -0.36430
  Beta virt. eigenvalues --   -0.14648  -0.06072   0.23091   0.38295   0.93480
  Beta virt. eigenvalues --    0.93480   1.03554   1.09317   1.31037   1.31037
  Beta virt. eigenvalues --    1.46567   1.46864   1.46864   1.72827   2.17680

 Mulliken charges and spin densities:
               1          2
     1  H    0.349754  -0.003453
     2  H    0.000608   0.999361
     3  F   -0.350363   0.004092
 Sum of Mulliken charges =   0.00000   1.00000

 Dipole moment (field-independent basis, Debye):
    X=             -2.5937    Y=             -0.0000    Z=             -0.0000  Tot=              2.5937
 Quadrupole moment (field-independent basis, Debye-Ang):
   XX=             -9.9685   YY=             -7.3209   ZZ=             -7.3209
   XY=             -0.0000   XZ=             -0.0000   YZ=              0.0000

  Exact polarizability:      14.647      -0.000       2.186       0.000      -0.000       2.186
 Approx polarizability:      28.256       0.000       2.111      -0.000       0.000       2.111

 ******    2 imaginary frequencies (negative Signs) ******

                      1                      2                      3
                      A                      A                      A
 Frequencies --  -1144.8050               -43.2901              1022.6219
 Red. masses --      1.0581                 1.0535                 1.0325
 Frc consts  --      0.8170                 0.0012                 0.6362
 IR Inten    --     38.1935                 0.0364               120.0317

                      4
                      A
 Frequencies --   1022.6219
 Red. masses --      1.0325
 Frc consts  --      0.6362
 IR Inten    --    120.0317

 - Thermochemistry -
 -------------------
 Temperature   298.150 Kelvin.  Pressure   1.00000 Atm.
 Atom     1 has atomic number  1 and mass   1.00783

 Molecular mass:    21.01405 amu.
 Principal axes and moments of inertia in atomic units:
                           1         2         3
     Eigenvalues --     0.00000 106.65997 106.65997
           X            1.00000  -0.00000   0.00000
           Y            0.00000   1.00000   0.00000
           Z            0.00000   0.00000   1.00000
 This molecule is a prolate symmetric top.
 Rotational symmetry number  1.
 Rotational temperature (Kelvin)      0.81206
 Rotational constant (GHZ):          16.920510
    2 imaginary frequencies ignored.
 Zero-point vibrational energy      12233.3 (Joules/Mol)
                                    2.92382 (Kcal/Mol)
 Vibrational temperatures:   1471.32  1471.32
          (Kelvin)

 Zero-point correction=                           0.004659 (Hartree/Particle)
 Thermal correction to Energy=                    0.007087
 Thermal correction to Enthalpy=                  0.008032
 Thermal correction to Gibbs Free Energy=        -0.015886
 Sum of electronic and zero-point Energies=           -100.849955
 Sum of electronic and thermal Energies=              -100.847527
 Sum of electronic and thermal Enthalpies=            -100.846583
 Sum of electronic and thermal Free Energies=         -100.870501

                     E (Thermal)             CV                S
                      KCal/Mol        Cal/Mol-Kelvin    Cal/Mol-Kelvin
 Total                    4.447              5.674             50.339
 Electronic               0.000              0.000              1.377
 Translational            0.889              2.981             35.068
 Rotational               0.592              1.987             13.723
 Vibrational              2.966              0.706              0.171

 Normal termination of Gaussian 16 at Fri Aug 22 16:26:55 2025.
