 Gaussian 16, Revision C.01,
 Gaussian 16:  ES64L-G16RevC.01  3-Jul-2019

 -----------------------------------------
 # sp b3lyp/6-311g** Force nosymm scf=(qc)
 -----------------------------------------

 -------------------
 Title Card Required
 -------------------
 Symbolic Z-matrix:
 Charge =  0 Multiplicity = 2

                          Input orientation:
 ---------------------------------------------------------------------
 Center     Atomic      Atomic             Coordinates (Angstroms)
 Number     Number       Type             X           Y           Z
 ---------------------------------------------------------------------
      1          1           0        0.000000    0.000000    0.000000
      2          1           0       -1.650000    0.000000    0.000000
      3          9           0        0.950000    0.000000    0.000000
 ---------------------------------------------------------------------

 SCF Done:  E(UB3LYP) =  -100.971289267     a.u. after    6 cycles

 Alpha  occ. eigenvalues --  -24.63563  -1.17127  -0.53284  -0.38797  -0.38797
 Alpha  occ. eigenvalues --   -0.36757
 Alpha virt. eigenvalues --    0.07911   0.22115   0.35817   0.94476   0.94476
 Alpha virt. eigenvalues --    0.98591   1.16037   1.18396   1.18396   1.39233
 Alpha virt. eigenvalues --    1.39233   1.52695   1.97182   2.28939   2.41749

  Beta  occ. eigenvalues --  -24.63394  -1.16703  -0.52204  -0.38651  -0.38651
  Beta virt. eigenvalues --   -0.14297   0.10159   0.29230   0.38622   0.94555
  Beta virt. eigenvalues --    0.94555   0.98997   1.25259   1.30890   1.30890
  Beta virt. eigenvalues --    1.44264   1.44264   1.56867   2.08278   2.31897

 Mulliken charges and spin densities:
               1          2
     1  H    0.285648   0.005463
     2  H    0.025783   0.951492
     3  F   -0.311431   0.043044
 Sum of Mulliken charges =   0.00000   1.00000

 Dipole moment (field-independent basis, Debye):
    X=             -2.1857    Y=              0.0000    Z=              0.0000  Tot=              2.1857
 Quadrupole moment (field-independent basis, Debye-Ang):
   XX=             -7.5654   YY=             -6.8243   ZZ=             -6.8243
   XY=              0.0000   XZ=             -0.0000   YZ=              0.0000

  Exact polarizability:      11.102      -0.000       2.508      -0.000      -0.000       2.508
 Approx polarizability:      11.794       0.000       2.502      -0.000       0.000       2.502

                      1                      2                      3
                      A                      A                      A
 Frequencies --    356.9095               558.0304               558.0304
 Red. masses --      1.0513                 1.0258                 1.0258
 Frc consts  --      0.0789                 0.1882                 0.1882
 IR Inten    --      0.7903               119.2088               119.2088

                      4
                      A
 Frequencies --   3571.6672
 Red. masses --      1.0603
 Frc consts  --      7.9695
 IR Inten    --    213.6640

 - Thermochemistry -
 -------------------
 Temperature   298.150 Kelvin.  Pressure   1.00000 Atm.
 Atom     1 has atomic number  1 and mass   1.00783

 Molecular mass:    21.01405 amu.
 Principal axes and moments of inertia in atomic units:
                           1         2         3
     Eigenvalues --     0.00000  25.40212  25.40212
           X            1.00000  -0.00000   0.00000
           Y            0.00000   1.00000   0.00000
           Z            0.00000   0.00000   1.00000
 This molecule is a prolate symmetric top.
 Rotational symmetry number  1.
 Rotational temperature (Kelvin)      3.40971
 Rotational constant (GHZ):          71.046861
 Zero-point vibrational energy      30173.6 (Joules/Mol)
                                    7.21167 (Kcal/Mol)
 Warning -- explicit consideration of   3 degrees of freedom as
           vibrations may cause significant error
 Vibrational temperatures:    513.51   802.88   802.88  5138.83
          (Kelvin)

 Zero-point correction=                           0.011493 (Hartree/Particle)
 Thermal correction to Energy=                    0.014576
 Thermal correction to Enthalpy=                  0.015520
 Thermal correction to Gibbs Free Energy=        -0.008003
 Sum of electronic and zero-point Energies=           -100.959797
 Sum of electronic and thermal Energies=              -100.956713
 Sum of electronic and thermal Enthalpies=            -100.955769
 Sum of electronic and thermal Free Energies=         -100.979292

                     E (Thermal)             CV                S
                      KCal/Mol        Cal/Mol-Kelvin    Cal/Mol-Kelvin
 Total                    9.147              8.773             49.508
 Electronic               0.000              0.000              1.377
 Translational            0.889              2.981             35.068
 Rotational               0.592              1.987             10.872
 Vibrational              7.665              3.805              2.191
 Vibration     1          0.732              1.561              1.136
 Vibration     2          0.914              1.122              0.528
 Vibration     3          0.914              1.122              0.528

 Normal termination of Gaussian 16 at Fri Aug 22 15:57:55 2025.
