 Gaussian 16, Revision C.01,
 Gaussian 16:  ES64L-G16RevC.01  3-Jul-2019

 -----------------------------------------
 # sp b3lyp/6-311g** Force nosymm scf=(qc)
 -----------------------------------------

 -------------------
 Title Card Required
 -------------------
 Symbolic Z-matrix:
 Charge =  0 Multiplicity = 2

                          Input orientation:
 ---------------------------------------------------------------------
 Center     Atomic      Atomic             Coordinates (Angstroms)
 Number     Number       Type             X           Y           Z
 ---------------------------------------------------------------------
      1          1           0        0.000000    0.000000    0.000000
      2          1           0       -2.000000    0.000000    0.000000
      3          9           0        2.850000    0.000000    0.000000
 ---------------------------------------------------------------------

 SCF Done:  E(UB3LYP) =  -100.777358447     a.u. after   23 cycles

 Alpha  occ. eigenvalues --  -24.73747  -1.19825  -0.52864  -0.44386  -0.44386
 Alpha  occ. eigenvalues --   -0.33990
 Alpha virt. eigenvalues --   -0.12013   0.25316   0.31852   0.90107   0.92480
 Alpha virt. eigenvalues --    0.92480   1.04863   1.17208   1.23965   1.23965
 Alpha virt. eigenvalues --    1.36376   1.36376   1.49878   2.12140   2.36390

  Beta  occ. eigenvalues --  -24.70749  -1.11242  -0.41387  -0.41387  -0.34173
  Beta virt. eigenvalues --   -0.24663  -0.11262   0.26123   0.32251   0.93929
  Beta virt. eigenvalues --    0.93929   0.98580   1.08628   1.17479   1.23717
  Beta virt. eigenvalues --    1.23717   1.37554   1.37554   1.50753   2.13316

 Mulliken charges and spin densities:
               1          2
     1  H    0.025728  -0.812441
     2  H    0.018664   0.862976
     3  F   -0.044392   0.949465
 Sum of Mulliken charges =   0.00000   1.00000

 Dipole moment (field-independent basis, Debye):
    X=             -0.8264    Y=             -0.0000    Z=              0.0000  Tot=              0.8264
 Quadrupole moment (field-independent basis, Debye-Ang):
   XX=             -7.5872   YY=             -7.6999   ZZ=             -7.6999
   XY=             -0.0000   XZ=              0.0000   YZ=              0.0000

  Exact polarizability:      60.190      -0.000       2.004       0.000      -0.000       2.004
 Approx polarizability:      58.040       0.000       1.930      -0.000      -0.000       1.930

 ******    2 imaginary frequencies (negative Signs) ******

                      1                      2                      3
                      A                      A                      A
 Frequencies --  -1372.4791              -280.5202               553.1813
 Red. masses --      1.0081                 1.1081                 1.0142
 Frc consts  --      1.1189                 0.0514                 0.1829
 IR Inten    --     50.1467                36.1451                 0.2842

                      4
                      A
 Frequencies --    553.1813
 Red. masses --      1.0142
 Frc consts  --      0.1829
 IR Inten    --      0.2842

 - Thermochemistry -
 -------------------
 Temperature   298.150 Kelvin.  Pressure   1.00000 Atm.
 Atom     1 has atomic number  1 and mass   1.00783

 Molecular mass:    21.01405 amu.
 Principal axes and moments of inertia in atomic units:
                           1         2         3
     Eigenvalues --     0.00000 103.65676 103.65676
           X            1.00000  -0.00000   0.00000
           Y            0.00000   1.00000   0.00000
           Z            0.00000   0.00000   1.00000
 This molecule is a prolate symmetric top.
 Rotational symmetry number  1.
 Rotational temperature (Kelvin)      0.83558
 Rotational constant (GHZ):          17.410743
    2 imaginary frequencies ignored.
 Zero-point vibrational energy       6617.5 (Joules/Mol)
                                    1.58162 (Kcal/Mol)
 Warning -- explicit consideration of   2 degrees of freedom as
           vibrations may cause significant error
 Vibrational temperatures:    795.90   795.90
          (Kelvin)

 Zero-point correction=                           0.002520 (Hartree/Particle)
 Thermal correction to Energy=                    0.005256
 Thermal correction to Enthalpy=                  0.006200
 Thermal correction to Gibbs Free Energy=        -0.018120
 Sum of electronic and zero-point Energies=           -100.774838
 Sum of electronic and thermal Energies=              -100.772102
 Sum of electronic and thermal Enthalpies=            -100.771158
 Sum of electronic and thermal Free Energies=         -100.795479

                     E (Thermal)             CV                S
                      KCal/Mol        Cal/Mol-Kelvin    Cal/Mol-Kelvin
 Total                    3.298              7.233             51.187
 Electronic               0.000              0.000              1.377
 Translational            0.889              2.981             35.068
 Rotational               0.592              1.987             13.666
 Vibrational              1.817              2.265              1.075
 Vibration     1          0.909              1.133              0.538
 Vibration     2          0.909              1.133              0.538

 Normal termination of Gaussian 16 at Fri Aug 22 18:53:18 2025.
