 Gaussian 16, Revision C.01,
 Gaussian 16:  ES64L-G16RevC.01  3-Jul-2019

 -----------------------------------------
 # sp b3lyp/6-311g** Force nosymm scf=(qc)
 -----------------------------------------

 -------------------
 Title Card Required
 -------------------
 Symbolic Z-matrix:
 Charge =  0 Multiplicity = 2

                          Input orientation:
 ---------------------------------------------------------------------
 Center     Atomic      Atomic             Coordinates (Angstroms)
 Number     Number       Type             X           Y           Z
 ---------------------------------------------------------------------
      1          1           0        0.000000    0.000000    0.000000
      2          1           0       -3.800000    0.000000    0.000000
      3          9           0        3.400000    0.000000    0.000000
 ---------------------------------------------------------------------

 SCF Done:  E(UB3LYP) =  -100.759157791     a.u. after   25 cycles

 Alpha  occ. eigenvalues --  -24.75193  -1.21171  -0.54316  -0.45604  -0.45604
 Alpha  occ. eigenvalues --   -0.32331
 Alpha virt. eigenvalues --   -0.06707   0.24096   0.37007   0.87915   0.91601
 Alpha virt. eigenvalues --    0.91601   1.02100   1.25166   1.25166   1.25213
 Alpha virt. eigenvalues --    1.45690   1.45690   1.46073   2.14643   2.41916

  Beta  occ. eigenvalues --  -24.72092  -1.12262  -0.42496  -0.42496  -0.32947
  Beta virt. eigenvalues --   -0.25382  -0.06055   0.23837   0.38146   0.93086
  Beta virt. eigenvalues --    0.93086   0.96980   1.06063   1.24460   1.24460
  Beta virt. eigenvalues --    1.24498   1.46422   1.46585   1.46585   2.14854

 Mulliken charges and spin densities:
               1          2
     1  H    0.015048  -0.982388
     2  H    0.000100   0.998993
     3  F   -0.015149   0.983395
 Sum of Mulliken charges =  -0.00000   1.00000

 Dipole moment (field-independent basis, Debye):
    X=             -0.2666    Y=              0.0000    Z=              0.0000  Tot=              0.2666
 Quadrupole moment (field-independent basis, Debye-Ang):
   XX=             -7.5783   YY=             -7.6170   ZZ=             -7.6170
   XY=              0.0000   XZ=              0.0000   YZ=              0.0000

  Exact polarizability:      25.432       0.000       2.033       0.000       0.000       2.033
 Approx polarizability:      21.140       0.000       1.933       0.000      -0.000       1.933

 ******    2 imaginary frequencies (negative Signs) ******

                      1                      2                      3
                      A                      A                      A
 Frequencies --   -243.1164               -82.4216                73.5826
 Red. masses --      1.0436                 1.0682                 1.0193
 Frc consts  --      0.0363                 0.0043                 0.0033
 IR Inten    --     15.5105                 0.3532                 0.2086

                      4
                      A
 Frequencies --     73.5826
 Red. masses --      1.0193
 Frc consts  --      0.0033
 IR Inten    --      0.2086

 - Thermochemistry -
 -------------------
 Temperature   298.150 Kelvin.  Pressure   1.00000 Atm.
 Atom     1 has atomic number  1 and mass   1.00783

 Molecular mass:    21.01405 amu.
 Principal axes and moments of inertia in atomic units:
                           1         2         3
     Eigenvalues --     0.00000 208.78303 208.78303
           X            1.00000  -0.00000   0.00000
           Y            0.00000   1.00000   0.00000
           Z            0.00000   0.00000   1.00000
 This molecule is a prolate symmetric top.
 Rotational symmetry number  1.
 Rotational temperature (Kelvin)      0.41485
 Rotational constant (GHZ):           8.644099
    2 imaginary frequencies ignored.
 Zero-point vibrational energy        880.2 (Joules/Mol)
                                    0.21038 (Kcal/Mol)
 Warning -- explicit consideration of   2 degrees of freedom as
           vibrations may cause significant error
 Vibrational temperatures:    105.87   105.87
          (Kelvin)

 Zero-point correction=                           0.000335 (Hartree/Particle)
 Thermal correction to Energy=                    0.004269
 Thermal correction to Enthalpy=                  0.005213
 Thermal correction to Gibbs Free Energy=        -0.023112
 Sum of electronic and zero-point Energies=           -100.758823
 Sum of electronic and thermal Energies=              -100.754889
 Sum of electronic and thermal Enthalpies=            -100.753945
 Sum of electronic and thermal Free Energies=         -100.782269

                     E (Thermal)             CV                S
                      KCal/Mol        Cal/Mol-Kelvin    Cal/Mol-Kelvin
 Total                    2.679              8.901             59.614
 Electronic               0.000              0.000              1.377
 Translational            0.889              2.981             35.068
 Rotational               0.592              1.987             15.058
 Vibrational              1.197              3.933              8.110
 Vibration     1          0.599              1.966              4.055
 Vibration     2          0.599              1.966              4.055

 Normal termination of Gaussian 16 at Fri Aug 22 21:19:02 2025.
