 Gaussian 16, Revision C.01,
 Gaussian 16:  ES64L-G16RevC.01  3-Jul-2019

 -----------------------------------------
 # sp b3lyp/6-311g** Force nosymm scf=(qc)
 -----------------------------------------

 -------------------
 Title Card Required
 -------------------
 Symbolic Z-matrix:
 Charge =  0 Multiplicity = 2

                          Input orientation:
 ---------------------------------------------------------------------
 Center     Atomic      Atomic             Coordinates (Angstroms)
 Number     Number       Type             X           Y           Z
 ---------------------------------------------------------------------
      1          1           0        0.000000    0.000000    0.000000
      2          1           0       -2.650000    0.000000    0.000000
      3          9           0        1.550000    0.000000    0.000000
 ---------------------------------------------------------------------

 SCF Done:  E(UB3LYP) =  -100.845181347     a.u. after    9 cycles

 Alpha  occ. eigenvalues --  -24.64338  -1.09890  -0.43130  -0.36363  -0.36363
 Alpha  occ. eigenvalues --   -0.35378
 Alpha virt. eigenvalues --   -0.14502   0.22464   0.27157   0.94064   0.94064
 Alpha virt. eigenvalues --    1.02544   1.08707   1.22134   1.22134   1.23892
 Alpha virt. eigenvalues --    1.31870   1.31870   1.74822   2.13233   2.20347

  Beta  occ. eigenvalues --  -24.63841  -1.08568  -0.41916  -0.35889  -0.35889
  Beta virt. eigenvalues --   -0.16667  -0.08293   0.24356   0.35842   0.93871
  Beta virt. eigenvalues --    0.93871   1.03576   1.08731   1.29407   1.29407
  Beta virt. eigenvalues --    1.42843   1.42843   1.43322   1.73986   2.16642

 Mulliken charges and spin densities:
               1          2
     1  H    0.329561  -0.139548
     2  H    0.014902   0.982773
     3  F   -0.344463   0.156775
 Sum of Mulliken charges =  -0.00000   1.00000

 Dipole moment (field-independent basis, Debye):
    X=             -2.8031    Y=             -0.0000    Z=              0.0000  Tot=              2.8031
 Quadrupole moment (field-independent basis, Debye-Ang):
   XX=             -9.5820   YY=             -7.3535   ZZ=             -7.3535
   XY=              0.0000   XZ=              0.0000   YZ=              0.0000

  Exact polarizability:      23.443      -0.000       2.175       0.000       0.000       2.175
 Approx polarizability:      37.086      -0.000       2.098      -0.000       0.000       2.098

 ******    2 imaginary frequencies (negative Signs) ******

                      1                      2                      3
                      A                      A                      A
 Frequencies --  -1699.8750              -237.2809               951.5952
 Red. masses --      1.0518                 1.0597                 1.0255
 Frc consts  --      1.7907                 0.0352                 0.5472
 IR Inten    --      3.5044                 3.5412                96.2829

                      4
                      A
 Frequencies --    951.5952
 Red. masses --      1.0255
 Frc consts  --      0.5472
 IR Inten    --     96.2829

 - Thermochemistry -
 -------------------
 Temperature   298.150 Kelvin.  Pressure   1.00000 Atm.
 Atom     1 has atomic number  1 and mass   1.00783

 Molecular mass:    21.01405 amu.
 Principal axes and moments of inertia in atomic units:
                           1         2         3
     Eigenvalues --     0.00000  66.42631  66.42631
           X            1.00000  -0.00000   0.00000
           Y            0.00000   1.00000   0.00000
           Z            0.00000   0.00000   1.00000
 This molecule is a prolate symmetric top.
 Rotational symmetry number  1.
 Rotational temperature (Kelvin)      1.30391
 Rotational constant (GHZ):          27.169071
    2 imaginary frequencies ignored.
 Zero-point vibrational energy      11383.6 (Joules/Mol)
                                    2.72075 (Kcal/Mol)
 Vibrational temperatures:   1369.13  1369.13
          (Kelvin)

 Zero-point correction=                           0.004336 (Hartree/Particle)
 Thermal correction to Energy=                    0.006785
 Thermal correction to Enthalpy=                  0.007729
 Thermal correction to Gibbs Free Energy=        -0.015768
 Sum of electronic and zero-point Energies=           -100.840846
 Sum of electronic and thermal Energies=              -100.838396
 Sum of electronic and thermal Enthalpies=            -100.837452
 Sum of electronic and thermal Free Energies=         -100.860950

                     E (Thermal)             CV                S
                      KCal/Mol        Cal/Mol-Kelvin    Cal/Mol-Kelvin
 Total                    4.258              5.835             49.455
 Electronic               0.000              0.000              1.377
 Translational            0.889              2.981             35.068
 Rotational               0.592              1.987             12.782
 Vibrational              2.776              0.867              0.227

 Normal termination of Gaussian 16 at Fri Aug 22 16:28:50 2025.
