 Gaussian 16, Revision C.01,
 Gaussian 16:  ES64L-G16RevC.01  3-Jul-2019

 -----------------------------------------
 # sp b3lyp/6-311g** Force nosymm scf=(qc)
 -----------------------------------------

 -------------------
 Title Card Required
 -------------------
 Symbolic Z-matrix:
 Charge =  0 Multiplicity = 2

                          Input orientation:
 ---------------------------------------------------------------------
 Center     Atomic      Atomic             Coordinates (Angstroms)
 Number     Number       Type             X           Y           Z
 ---------------------------------------------------------------------
      1          1           0        0.000000    0.000000    0.000000
      2          1           0       -3.300000    0.000000    0.000000
      3          9           0        0.700000    0.000000    0.000000
 ---------------------------------------------------------------------

 SCF Done:  E(UB3LYP) =  -100.874805352     a.u. after    6 cycles

 Alpha  occ. eigenvalues --  -24.63193  -1.28224  -0.58585  -0.41758  -0.41758
 Alpha  occ. eigenvalues --   -0.33572
 Alpha virt. eigenvalues --    0.06532   0.25162   0.52379   0.93487   0.93487
 Alpha virt. eigenvalues --    0.95789   1.23432   1.23944   1.23944   1.32478
 Alpha virt. eigenvalues --    1.44068   1.44068   1.98015   2.14799   2.86576

  Beta  occ. eigenvalues --  -24.63192  -1.28221  -0.58583  -0.41757  -0.41757
  Beta virt. eigenvalues --   -0.05547   0.07222   0.39485   0.52436   0.93487
  Beta virt. eigenvalues --    0.93487   0.95779   1.31316   1.44069   1.44069
  Beta virt. eigenvalues --    1.50946   1.50946   1.51323   1.98026   2.44721

 Mulliken charges and spin densities:
               1          2
     1  H    0.261670   0.000810
     2  H    0.001108   0.998577
     3  F   -0.262779   0.000613
 Sum of Mulliken charges =   0.00000   1.00000

 Dipole moment (field-independent basis, Debye):
    X=             -1.5966    Y=             -0.0000    Z=             -0.0000  Tot=              1.5966
 Quadrupole moment (field-independent basis, Debye-Ang):
   XX=             -7.2595   YY=             -6.6628   ZZ=             -6.6628
   XY=             -0.0000   XZ=             -0.0000   YZ=             -0.0000

  Exact polarizability:       4.184      -0.000       2.451      -0.000      -0.000       2.451
 Approx polarizability:       4.511       0.000       2.432       0.000      -0.000       2.432

 ******    3 imaginary frequencies (negative Signs) ******

                      1                      2                      3
                      A                      A                      A
 Frequencies --  -3556.4867             -3556.4867               -40.7050
 Red. masses --      1.0412                 1.0412                 1.0532
 Frc consts  --      7.7594                 7.7594                 0.0010
 IR Inten    --    212.7670               212.7670                 0.0473

                      4
                      A
 Frequencies --   9073.2437
 Red. masses --      1.0583
 Frc consts  --     51.3322
 IR Inten    --    107.5996

 - Thermochemistry -
 -------------------
 Temperature   298.150 Kelvin.  Pressure   1.00000 Atm.
 Atom     1 has atomic number  1 and mass   1.00783

 Molecular mass:    21.01405 amu.
 Principal axes and moments of inertia in atomic units:
                           1         2         3
     Eigenvalues --     0.00000  55.53476  55.53476
           X            1.00000  -0.00000   0.00000
           Y            0.00000   1.00000   0.00000
           Z            0.00000   0.00000   1.00000
 This molecule is a prolate symmetric top.
 Rotational symmetry number  1.
 Rotational temperature (Kelvin)      1.55963
 Rotational constant (GHZ):          32.497504
    3 imaginary frequencies ignored.
 Zero-point vibrational energy      54270.0 (Joules/Mol)
                                   12.97085 (Kcal/Mol)
 Vibrational temperatures:  13054.37
          (Kelvin)

 Zero-point correction=                           0.020670 (Hartree/Particle)
 Thermal correction to Energy=                    0.023031
 Thermal correction to Enthalpy=                  0.023975
 Thermal correction to Gibbs Free Energy=         0.000754
 Sum of electronic and zero-point Energies=           -100.854135
 Sum of electronic and thermal Energies=              -100.851775
 Sum of electronic and thermal Enthalpies=            -100.850830
 Sum of electronic and thermal Free Energies=         -100.874051

                     E (Thermal)             CV                S
                      KCal/Mol        Cal/Mol-Kelvin    Cal/Mol-Kelvin
 Total                   14.452              4.968             48.872
 Electronic               0.000              0.000              1.377
 Translational            0.889              2.981             35.068
 Rotational               0.592              1.987             12.426
 Vibrational             12.971              0.000              0.000

 Normal termination of Gaussian 16 at Fri Aug 22 15:47:15 2025.
