 Gaussian 16, Revision C.01,
 Gaussian 16:  ES64L-G16RevC.01  3-Jul-2019

 -----------------------------------------
 # sp b3lyp/6-311g** Force nosymm scf=(qc)
 -----------------------------------------

 -------------------
 Title Card Required
 -------------------
 Symbolic Z-matrix:
 Charge =  0 Multiplicity = 2

                          Input orientation:
 ---------------------------------------------------------------------
 Center     Atomic      Atomic             Coordinates (Angstroms)
 Number     Number       Type             X           Y           Z
 ---------------------------------------------------------------------
      1          1           0        0.000000    0.000000    0.000000
      2          1           0       -1.200000    0.000000    0.000000
      3          9           0        1.650000    0.000000    0.000000
 ---------------------------------------------------------------------

 SCF Done:  E(UB3LYP) =  -100.891365309     a.u. after   12 cycles

 Alpha  occ. eigenvalues --  -24.68795  -1.15478  -0.50331  -0.40488  -0.40488
 Alpha  occ. eigenvalues --   -0.39983
 Alpha virt. eigenvalues --   -0.03021   0.20664   0.31935   0.91769   0.91769
 Alpha virt. eigenvalues --    0.96105   1.06492   1.09906   1.09906   1.51726
 Alpha virt. eigenvalues --    1.51726   1.52067   2.08376   2.25748   2.52496

  Beta  occ. eigenvalues --  -24.66477  -1.09077  -0.41206  -0.38222  -0.38222
  Beta virt. eigenvalues --   -0.23626  -0.00377   0.22504   0.32912   0.92542
  Beta virt. eigenvalues --    0.92542   1.02151   1.09228   1.12990   1.12990
  Beta virt. eigenvalues --    1.53268   1.53268   1.56151   2.11307   2.28839

 Mulliken charges and spin densities:
               1          2
     1  H    0.135364  -0.166591
     2  H    0.064851   0.449068
     3  F   -0.200215   0.717523
 Sum of Mulliken charges =   0.00000   1.00000

 Dipole moment (field-independent basis, Debye):
    X=             -1.9703    Y=              0.0000    Z=              0.0000  Tot=              1.9703
 Quadrupole moment (field-independent basis, Debye-Ang):
   XX=             -7.5089   YY=             -7.2289   ZZ=             -7.2289
   XY=              0.0000   XZ=              0.0000   YZ=             -0.0000

  Exact polarizability:      36.755       0.000       2.293       0.000      -0.000       2.293
 Approx polarizability:      56.519      -0.000       2.263      -0.000       0.000       2.263

 ******    1 imaginary frequencies (negative Signs) ******

                      1                      2                      3
                      A                      A                      A
 Frequencies --  -2205.2577               236.2335              1280.1910
 Red. masses --      1.0221                 1.0918                 1.0145
 Frc consts  --      2.9286                 0.0359                 0.9797
 IR Inten    --   1164.9647                13.5386                 4.1102

                      4
                      A
 Frequencies --   1280.1910
 Red. masses --      1.0145
 Frc consts  --      0.9797
 IR Inten    --      4.1102

 - Thermochemistry -
 -------------------
 Temperature   298.150 Kelvin.  Pressure   1.00000 Atm.
 Atom     1 has atomic number  1 and mass   1.00783

 Molecular mass:    21.01405 amu.
 Principal axes and moments of inertia in atomic units:
                           1         2         3
     Eigenvalues --     0.00000  35.53596  35.53596
           X            1.00000  -0.00000   0.00000
           Y            0.00000   1.00000   0.00000
           Z            0.00000   0.00000   1.00000
 This molecule is a prolate symmetric top.
 Rotational symmetry number  1.
 Rotational temperature (Kelvin)      2.43736
 Rotational constant (GHZ):          50.786339
    1 imaginary frequencies ignored.
 Zero-point vibrational energy      16727.5 (Joules/Mol)
                                    3.99796 (Kcal/Mol)
 Warning -- explicit consideration of   1 degrees of freedom as
           vibrations may cause significant error
 Vibrational temperatures:    339.89  1841.91  1841.91
          (Kelvin)

 Zero-point correction=                           0.006371 (Hartree/Particle)
 Thermal correction to Energy=                    0.009262
 Thermal correction to Enthalpy=                  0.010206
 Thermal correction to Gibbs Free Energy=        -0.013491
 Sum of electronic and zero-point Energies=           -100.884994
 Sum of electronic and thermal Energies=              -100.882103
 Sum of electronic and thermal Enthalpies=            -100.881159
 Sum of electronic and thermal Free Energies=         -100.904856

                     E (Thermal)             CV                S
                      KCal/Mol        Cal/Mol-Kelvin    Cal/Mol-Kelvin
 Total                    5.812              7.069             49.875
 Electronic               0.000              0.000              1.377
 Translational            0.889              2.981             35.068
 Rotational               0.592              1.987             11.539
 Vibrational              4.331              2.101              1.890
 Vibration     1          0.655              1.785              1.831

 Normal termination of Gaussian 16 at Fri Aug 22 16:33:32 2025.
