 Gaussian 16, Revision C.01,
 Gaussian 16:  ES64L-G16RevC.01  3-Jul-2019

 -----------------------------------------
 # sp b3lyp/6-311g** Force nosymm scf=(qc)
 -----------------------------------------

 -------------------
 Title Card Required
 -------------------
 Symbolic Z-matrix:
 Charge =  0 Multiplicity = 2

                          Input orientation:
 ---------------------------------------------------------------------
 Center     Atomic      Atomic             Coordinates (Angstroms)
 Number     Number       Type             X           Y           Z
 ---------------------------------------------------------------------
      1          1           0        0.000000    0.000000    0.000000
      2          1           0       -0.900000    0.000000    0.000000
      3          9           0        2.750000    0.000000    0.000000
 ---------------------------------------------------------------------

 SCF Done:  E(UB3LYP) =  -100.921810756     a.u. after    6 cycles

 Alpha  occ. eigenvalues --  -24.76099  -1.21999  -0.55251  -0.46373  -0.46373
 Alpha  occ. eigenvalues --   -0.40963
 Alpha virt. eigenvalues --    0.02472   0.20632   0.41868   0.89954   0.90982
 Alpha virt. eigenvalues --    0.90982   1.07813   1.07813   1.07896   1.44763
 Alpha virt. eigenvalues --    1.71696   1.71696   2.18802   2.37946   2.73530

  Beta  occ. eigenvalues --  -24.72967  -1.12996  -0.43234  -0.43234  -0.40923
  Beta virt. eigenvalues --   -0.26184   0.02772   0.20831   0.42266   0.92467
  Beta virt. eigenvalues --    0.92467   0.98467   1.07898   1.07898   1.12315
  Beta virt. eigenvalues --    1.44853   1.71757   1.71757   2.18923   2.38047

 Mulliken charges and spin densities:
               1          2
     1  H   -0.011832  -0.006597
     2  H    0.013389   0.015049
     3  F   -0.001557   0.991547
 Sum of Mulliken charges =   0.00000   1.00000

 Dipole moment (field-independent basis, Debye):
    X=             -0.0893    Y=             -0.0000    Z=             -0.0000  Tot=              0.0893
 Quadrupole moment (field-independent basis, Debye-Ang):
   XX=             -5.5699   YY=             -7.1465   ZZ=             -7.1465
   XY=             -0.0000   XZ=             -0.0000   YZ=              0.0000

  Exact polarizability:      14.772       0.000       2.037       0.000      -0.000       2.037
 Approx polarizability:      16.877       0.000       2.101      -0.000      -0.000       2.101

 ******    1 imaginary frequencies (negative Signs) ******

                      1                      2                      3
                      A                      A                      A
 Frequencies --   -113.9666              1438.7143              1438.7143
 Red. masses --      1.1085                 1.0098                 1.0098
 Frc consts  --      0.0085                 1.2315                 1.2315
 IR Inten    --      1.6765                 0.1679                 0.1679

                      4
                      A
 Frequencies --   2624.8971
 Red. masses --      1.0078
 Frc consts  --      4.0913
 IR Inten    --     19.1926

 - Thermochemistry -
 -------------------
 Temperature   298.150 Kelvin.  Pressure   1.00000 Atm.
 Atom     1 has atomic number  1 and mass   1.00783

 Molecular mass:    21.01405 amu.
 Principal axes and moments of inertia in atomic units:
                           1         2         3
     Eigenvalues --     0.00000  68.09531  68.09531
           X            1.00000  -0.00000   0.00000
           Y            0.00000   1.00000   0.00000
           Z            0.00000   0.00000   1.00000
 This molecule is a prolate symmetric top.
 Rotational symmetry number  1.
 Rotational temperature (Kelvin)      1.27195
 Rotational constant (GHZ):          26.503163
    1 imaginary frequencies ignored.
 Zero-point vibrational energy      32911.2 (Joules/Mol)
                                    7.86597 (Kcal/Mol)
 Vibrational temperatures:   2069.99  2069.99  3776.64
          (Kelvin)

 Zero-point correction=                           0.012535 (Hartree/Particle)
 Thermal correction to Energy=                    0.014908
 Thermal correction to Enthalpy=                  0.015853
 Thermal correction to Gibbs Free Energy=        -0.007575
 Sum of electronic and zero-point Energies=           -100.909276
 Sum of electronic and thermal Energies=              -100.906902
 Sum of electronic and thermal Enthalpies=            -100.905958
 Sum of electronic and thermal Free Energies=         -100.929386

                     E (Thermal)             CV                S
                      KCal/Mol        Cal/Mol-Kelvin    Cal/Mol-Kelvin
 Total                    9.355              5.154             49.307
 Electronic               0.000              0.000              1.377
 Translational            0.889              2.981             35.068
 Rotational               0.592              1.987             12.831
 Vibrational              7.874              0.186              0.031

 Normal termination of Gaussian 16 at Fri Aug 22 18:29:17 2025.
