 Gaussian 16, Revision C.01,
 Gaussian 16:  ES64L-G16RevC.01  3-Jul-2019

 -----------------------------------------
 # sp b3lyp/6-311g** Force nosymm scf=(qc)
 -----------------------------------------

 -------------------
 Title Card Required
 -------------------
 Symbolic Z-matrix:
 Charge =  0 Multiplicity = 2

                          Input orientation:
 ---------------------------------------------------------------------
 Center     Atomic      Atomic             Coordinates (Angstroms)
 Number     Number       Type             X           Y           Z
 ---------------------------------------------------------------------
      1          1           0        0.000000    0.000000    0.000000
      2          1           0       -0.750000    0.000000    0.000000
      3          9           0        3.850000    0.000000    0.000000
 ---------------------------------------------------------------------

 SCF Done:  E(UB3LYP) =  -100.933686217     a.u. after  203 cycles

 Alpha  occ. eigenvalues --  -24.76209  -1.22097  -0.55300  -0.46479  -0.46456
 Alpha  occ. eigenvalues --   -0.43187
 Alpha virt. eigenvalues --    0.05729   0.19791   0.46591   0.86077   0.90954
 Alpha virt. eigenvalues --    0.91876   1.01169   1.08504   1.08506   1.54998
 Alpha virt. eigenvalues --    1.82356   1.82358   1.96218   2.37889   3.28179

  Beta  occ. eigenvalues --  -24.73053  -1.13022  -0.43372  -0.43292  -0.43130
  Beta virt. eigenvalues --   -0.25948   0.05736   0.19795   0.46619   0.92454
  Beta virt. eigenvalues --    0.93366   0.95543   1.05297   1.08504   1.08506
  Beta virt. eigenvalues --    1.55001   1.82356   1.82358   1.96227   2.37890

 Mulliken charges and spin densities:
               1          2
     1  H    0.000000  -0.000195
     2  H   -0.001743   0.000006
     3  F    0.001743   1.000189
 Sum of Mulliken charges =   0.00000   1.00000

 Dipole moment (field-independent basis, Debye):
    X=              0.0255    Y=             -0.0000    Z=              0.0000  Tot=              0.0255
 Quadrupole moment (field-independent basis, Debye-Ang):
   XX=             -6.2817   YY=             -6.9383   ZZ=             -6.0989
   XY=             -0.0000   XZ=              0.0000   YZ=             -0.1034

  Exact polarizability:       8.085       0.000       1.964       0.000      -0.056       2.416
 Approx polarizability:       9.370      -0.000       2.041       0.000      -0.070       2.606

 ******    1 imaginary frequencies (negative Signs) ******

                      1                      2                      3
                      A                      A                      A
 Frequencies --    -50.9061               399.5802               403.4908
 Red. masses --      1.1085                 1.0086                 1.0086
 Frc consts  --      0.0017                 0.0949                 0.0967
 IR Inten    --      0.0611                 0.0000                 0.0000

                      4
                      A
 Frequencies --   4337.3780
 Red. masses --      1.0078
 Frc consts  --     11.1709
 IR Inten    --      0.0295

 - Thermochemistry -
 -------------------
 Temperature   298.150 Kelvin.  Pressure   1.00000 Atm.
 Atom     1 has atomic number  1 and mass   1.00783

 Molecular mass:    21.01405 amu.
 Principal axes and moments of inertia in atomic units:
                           1         2         3
     Eigenvalues --     0.00000 117.17676 117.17676
           X            1.00000  -0.00000   0.00000
           Y            0.00000   1.00000   0.00000
           Z            0.00000   0.00000   1.00000
 This molecule is a prolate symmetric top.
 Rotational symmetry number  1.
 Rotational temperature (Kelvin)      0.73917
 Rotational constant (GHZ):          15.401870
    1 imaginary frequencies ignored.
 Zero-point vibrational energy      30746.7 (Joules/Mol)
                                    7.34864 (Kcal/Mol)
 Warning -- explicit consideration of   2 degrees of freedom as
           vibrations may cause significant error
 Vibrational temperatures:    574.91   580.53  6240.52
          (Kelvin)

 Zero-point correction=                           0.011711 (Hartree/Particle)
 Thermal correction to Energy=                    0.014687
 Thermal correction to Enthalpy=                  0.015631
 Thermal correction to Gibbs Free Energy=        -0.009204
 Sum of electronic and zero-point Energies=           -100.921975
 Sum of electronic and thermal Energies=              -100.918999
 Sum of electronic and thermal Enthalpies=            -100.918055
 Sum of electronic and thermal Free Energies=         -100.942890

                     E (Thermal)             CV                S
                      KCal/Mol        Cal/Mol-Kelvin    Cal/Mol-Kelvin
 Total                    9.216              7.902             52.270
 Electronic               0.000              0.000              1.377
 Translational            0.889              2.981             35.068
 Rotational               0.592              1.987             13.910
 Vibrational              7.735              2.934              1.914
 Vibration     1          0.766              1.471              0.964
 Vibration     2          0.769              1.463              0.950

 Normal termination of Gaussian 16 at Sat Aug 23 00:55:13 2025.
