 Gaussian 16, Revision C.01,
 Gaussian 16:  ES64L-G16RevC.01  3-Jul-2019

 -----------------------------------------
 # sp b3lyp/6-311g** Force nosymm scf=(qc)
 -----------------------------------------

 -------------------
 Title Card Required
 -------------------
 Symbolic Z-matrix:
 Charge =  0 Multiplicity = 2

                          Input orientation:
 ---------------------------------------------------------------------
 Center     Atomic      Atomic             Coordinates (Angstroms)
 Number     Number       Type             X           Y           Z
 ---------------------------------------------------------------------
      1          1           0        0.000000    0.000000    0.000000
      2          1           0       -1.450000    0.000000    0.000000
      3          9           0        2.650000    0.000000    0.000000
 ---------------------------------------------------------------------

 SCF Done:  E(UB3LYP) =  -100.829828222     a.u. after   21 cycles

 Alpha  occ. eigenvalues --  -24.74478  -1.20518  -0.53650  -0.45027  -0.45027
 Alpha  occ. eigenvalues --   -0.35518
 Alpha virt. eigenvalues --   -0.09851   0.23836   0.31065   0.89717   0.91950
 Alpha virt. eigenvalues --    0.91950   1.05204   1.10664   1.17612   1.17612
 Alpha virt. eigenvalues --    1.41852   1.41852   1.84675   2.22447   2.48343

  Beta  occ. eigenvalues --  -24.71453  -1.11853  -0.42000  -0.42000  -0.35168
  Beta virt. eigenvalues --   -0.25431  -0.09293   0.24422   0.31423   0.93394
  Beta virt. eigenvalues --    0.93394   0.97580   1.07258   1.13746   1.18024
  Beta virt. eigenvalues --    1.18024   1.42201   1.42201   1.85183   2.23165

 Mulliken charges and spin densities:
               1          2
     1  H    0.005476  -0.190483
     2  H    0.029038   0.233227
     3  F   -0.034514   0.957256
 Sum of Mulliken charges =   0.00000   1.00000

 Dipole moment (field-independent basis, Debye):
    X=             -0.6635    Y=              0.0000    Z=             -0.0000  Tot=              0.6635
 Quadrupole moment (field-independent basis, Debye-Ang):
   XX=             -6.4183   YY=             -7.6736   ZZ=             -7.6736
   XY=              0.0000   XZ=             -0.0000   YZ=              0.0000

  Exact polarizability:      53.749       0.000       2.068      -0.000      -0.000       2.068
 Approx polarizability:      72.706       0.000       2.048      -0.000       0.000       2.048

 ******    2 imaginary frequencies (negative Signs) ******

                      1                      2                      3
                      A                      A                      A
 Frequencies --  -1823.1664              -237.3914              1221.9076
 Red. masses --      1.0084                 1.1078                 1.0123
 Frc consts  --      1.9748                 0.0368                 0.8905
 IR Inten    --    602.0188                20.8217                 0.0172

                      4
                      A
 Frequencies --   1221.9076
 Red. masses --      1.0123
 Frc consts  --      0.8905
 IR Inten    --      0.0172

 - Thermochemistry -
 -------------------
 Temperature   298.150 Kelvin.  Pressure   1.00000 Atm.
 Atom     1 has atomic number  1 and mass   1.00783

 Molecular mass:    21.01405 amu.
 Principal axes and moments of inertia in atomic units:
                           1         2         3
     Eigenvalues --     0.00000  77.90897  77.90897
           X            1.00000  -0.00000   0.00000
           Y            0.00000   1.00000   0.00000
           Z            0.00000   0.00000   1.00000
 This molecule is a prolate symmetric top.
 Rotational symmetry number  1.
 Rotational temperature (Kelvin)      1.11173
 Rotational constant (GHZ):          23.164743
    2 imaginary frequencies ignored.
 Zero-point vibrational energy      14617.3 (Joules/Mol)
                                    3.49361 (Kcal/Mol)
 Vibrational temperatures:   1758.05  1758.05
          (Kelvin)

 Zero-point correction=                           0.005567 (Hartree/Particle)
 Thermal correction to Energy=                    0.007959
 Thermal correction to Enthalpy=                  0.008903
 Thermal correction to Gibbs Free Energy=        -0.014673
 Sum of electronic and zero-point Energies=           -100.824261
 Sum of electronic and thermal Energies=              -100.821870
 Sum of electronic and thermal Enthalpies=            -100.820925
 Sum of electronic and thermal Free Energies=         -100.844502

                     E (Thermal)             CV                S
                      KCal/Mol        Cal/Mol-Kelvin    Cal/Mol-Kelvin
 Total                    4.994              5.350             49.620
 Electronic               0.000              0.000              1.377
 Translational            0.889              2.981             35.068
 Rotational               0.592              1.987             13.099
 Vibrational              3.513              0.382              0.076

 Normal termination of Gaussian 16 at Fri Aug 22 18:13:40 2025.
