 Gaussian 16, Revision C.01,
 Gaussian 16:  ES64L-G16RevC.01  3-Jul-2019

 -----------------------------------------
 # sp b3lyp/6-311g** Force nosymm scf=(qc)
 -----------------------------------------

 -------------------
 Title Card Required
 -------------------
 Symbolic Z-matrix:
 Charge =  0 Multiplicity = 2

                          Input orientation:
 ---------------------------------------------------------------------
 Center     Atomic      Atomic             Coordinates (Angstroms)
 Number     Number       Type             X           Y           Z
 ---------------------------------------------------------------------
      1          1           0        0.000000    0.000000    0.000000
      2          1           0       -3.500000    0.000000    0.000000
      3          9           0        1.550000    0.000000    0.000000
 ---------------------------------------------------------------------

 SCF Done:  E(UB3LYP) =  -100.843992484     a.u. after    9 cycles

 Alpha  occ. eigenvalues --  -24.64404  -1.09638  -0.42788  -0.36379  -0.36379
 Alpha  occ. eigenvalues --   -0.34009
 Alpha virt. eigenvalues --   -0.15481   0.20276   0.27722   0.93824   0.93824
 Alpha virt. eigenvalues --    1.02565   1.07736   1.23503   1.23503   1.23545
 Alpha virt. eigenvalues --    1.30737   1.30737   1.73485   2.13291   2.18432

  Beta  occ. eigenvalues --  -24.64234  -1.09185  -0.42417  -0.36217  -0.36217
  Beta virt. eigenvalues --   -0.16016  -0.06776   0.22885   0.38087   0.93746
  Beta virt. eigenvalues --    0.93746   1.02872   1.07682   1.29822   1.29822
  Beta virt. eigenvalues --    1.45643   1.46098   1.46098   1.73077   2.16573

 Mulliken charges and spin densities:
               1          2
     1  H    0.343273  -0.051711
     2  H    0.002054   0.997814
     3  F   -0.345327   0.053897
 Sum of Mulliken charges =  -0.00000   1.00000

 Dipole moment (field-independent basis, Debye):
    X=             -2.6591    Y=              0.0000    Z=              0.0000  Tot=              2.6591
 Quadrupole moment (field-independent basis, Debye-Ang):
   XX=            -10.0566   YY=             -7.3483   ZZ=             -7.3483
   XY=              0.0000   XZ=              0.0000   YZ=             -0.0000

  Exact polarizability:      17.127      -0.000       2.165       0.000       0.000       2.165
 Approx polarizability:      32.770      -0.000       2.086      -0.000      -0.000       2.086

 ******    2 imaginary frequencies (negative Signs) ******

                      1                      2                      3
                      A                      A                      A
 Frequencies --  -1407.5560               -88.0157               976.0582
 Red. masses --      1.0569                 1.0546                 1.0300
 Frc consts  --      1.2338                 0.0048                 0.5782
 IR Inten    --     12.1253                 0.1908               112.6730

                      4
                      A
 Frequencies --    976.0582
 Red. masses --      1.0300
 Frc consts  --      0.5782
 IR Inten    --    112.6730

 - Thermochemistry -
 -------------------
 Temperature   298.150 Kelvin.  Pressure   1.00000 Atm.
 Atom     1 has atomic number  1 and mass   1.00783

 Molecular mass:    21.01405 amu.
 Principal axes and moments of inertia in atomic units:
                           1         2         3
     Eigenvalues --     0.00000  92.91158  92.91158
           X            1.00000  -0.00000   0.00000
           Y            0.00000   1.00000   0.00000
           Z            0.00000   0.00000   1.00000
 This molecule is a prolate symmetric top.
 Rotational symmetry number  1.
 Rotational temperature (Kelvin)      0.93222
 Rotational constant (GHZ):          19.424288
    2 imaginary frequencies ignored.
 Zero-point vibrational energy      11676.2 (Joules/Mol)
                                    2.79069 (Kcal/Mol)
 Vibrational temperatures:   1404.33  1404.33
          (Kelvin)

 Zero-point correction=                           0.004447 (Hartree/Particle)
 Thermal correction to Energy=                    0.006889
 Thermal correction to Enthalpy=                  0.007833
 Thermal correction to Gibbs Free Energy=        -0.015972
 Sum of electronic and zero-point Energies=           -100.839545
 Sum of electronic and thermal Energies=              -100.837104
 Sum of electronic and thermal Enthalpies=            -100.836160
 Sum of electronic and thermal Free Energies=         -100.859964

                     E (Thermal)             CV                S
                      KCal/Mol        Cal/Mol-Kelvin    Cal/Mol-Kelvin
 Total                    4.323              5.776             50.100
 Electronic               0.000              0.000              1.377
 Translational            0.889              2.981             35.068
 Rotational               0.592              1.987             13.449
 Vibrational              2.841              0.808              0.206

 Normal termination of Gaussian 16 at Fri Aug 22 16:29:28 2025.
