 Gaussian 16, Revision C.01,
 Gaussian 16:  ES64L-G16RevC.01  3-Jul-2019

 -----------------------------------------
 # sp b3lyp/6-311g** Force nosymm scf=(qc)
 -----------------------------------------

 -------------------
 Title Card Required
 -------------------
 Symbolic Z-matrix:
 Charge =  0 Multiplicity = 2

                          Input orientation:
 ---------------------------------------------------------------------
 Center     Atomic      Atomic             Coordinates (Angstroms)
 Number     Number       Type             X           Y           Z
 ---------------------------------------------------------------------
      1          1           0        0.000000    0.000000    0.000000
      2          1           0       -1.750000    0.000000    0.000000
      3          9           0        2.600000    0.000000    0.000000
 ---------------------------------------------------------------------

 SCF Done:  E(UB3LYP) =  -100.795109078     a.u. after   24 cycles

 Alpha  occ. eigenvalues --  -24.72906  -1.19043  -0.52037  -0.43684  -0.43684
 Alpha  occ. eigenvalues --   -0.35050
 Alpha virt. eigenvalues --   -0.12238   0.24573   0.31038   0.89827   0.92949
 Alpha virt. eigenvalues --    0.92949   1.03999   1.12673   1.22198   1.22198
 Alpha virt. eigenvalues --    1.35687   1.35687   1.62315   2.13747   2.39844

  Beta  occ. eigenvalues --  -24.69980  -1.10686  -0.40762  -0.40762  -0.34859
  Beta virt. eigenvalues --   -0.24352  -0.11621   0.26153   0.30704   0.94360
  Beta virt. eigenvalues --    0.94360   0.96880   1.06531   1.15771   1.22534
  Beta virt. eigenvalues --    1.22534   1.36404   1.36404   1.62956   2.14757

 Mulliken charges and spin densities:
               1          2
     1  H    0.030574  -0.630514
     2  H    0.033155   0.704862
     3  F   -0.063730   0.925651
 Sum of Mulliken charges =  -0.00000   1.00000

 Dipole moment (field-independent basis, Debye):
    X=             -1.1223    Y=             -0.0000    Z=              0.0000  Tot=              1.1223
 Quadrupole moment (field-independent basis, Debye-Ang):
   XX=             -7.4736   YY=             -7.6991   ZZ=             -7.6991
   XY=             -0.0000   XZ=              0.0000   YZ=              0.0000

  Exact polarizability:      63.400      -0.000       2.015       0.000      -0.000       2.015
 Approx polarizability:      75.166       0.000       1.960      -0.000      -0.000       1.960

 ******    2 imaginary frequencies (negative Signs) ******

                      1                      2                      3
                      A                      A                      A
 Frequencies --  -1834.9921              -338.3200               814.7260
 Red. masses --      1.0082                 1.1080                 1.0139
 Frc consts  --      2.0003                 0.0747                 0.3965
 IR Inten    --    180.3653                46.0940                 0.2198

                      4
                      A
 Frequencies --    814.7260
 Red. masses --      1.0139
 Frc consts  --      0.3965
 IR Inten    --      0.2198

 - Thermochemistry -
 -------------------
 Temperature   298.150 Kelvin.  Pressure   1.00000 Atm.
 Atom     1 has atomic number  1 and mass   1.00783

 Molecular mass:    21.01405 amu.
 Principal axes and moments of inertia in atomic units:
                           1         2         3
     Eigenvalues --     0.00000  84.09419  84.09419
           X            1.00000  -0.00000   0.00000
           Y            0.00000   1.00000   0.00000
           Z            0.00000   0.00000   1.00000
 This molecule is a prolate symmetric top.
 Rotational symmetry number  1.
 Rotational temperature (Kelvin)      1.02996
 Rotational constant (GHZ):          21.460950
    2 imaginary frequencies ignored.
 Zero-point vibrational energy       9746.3 (Joules/Mol)
                                    2.32942 (Kcal/Mol)
 Vibrational temperatures:   1172.21  1172.21
          (Kelvin)

 Zero-point correction=                           0.003712 (Hartree/Particle)
 Thermal correction to Energy=                    0.006221
 Thermal correction to Enthalpy=                  0.007165
 Thermal correction to Gibbs Free Energy=        -0.016633
 Sum of electronic and zero-point Energies=           -100.791397
 Sum of electronic and thermal Energies=              -100.788888
 Sum of electronic and thermal Enthalpies=            -100.787944
 Sum of electronic and thermal Free Energies=         -100.811742

                     E (Thermal)             CV                S
                      KCal/Mol        Cal/Mol-Kelvin    Cal/Mol-Kelvin
 Total                    3.904              6.222             50.088
 Electronic               0.000              0.000              1.377
 Translational            0.889              2.981             35.068
 Rotational               0.592              1.987             13.251
 Vibrational              2.423              1.254              0.391

 Normal termination of Gaussian 16 at Fri Aug 22 18:03:27 2025.
