 Gaussian 16, Revision C.01,
 Gaussian 16:  ES64L-G16RevC.01  3-Jul-2019

 -----------------------------------------
 # sp b3lyp/6-311g** Force nosymm scf=(qc)
 -----------------------------------------

 -------------------
 Title Card Required
 -------------------
 Symbolic Z-matrix:
 Charge =  0 Multiplicity = 2

                          Input orientation:
 ---------------------------------------------------------------------
 Center     Atomic      Atomic             Coordinates (Angstroms)
 Number     Number       Type             X           Y           Z
 ---------------------------------------------------------------------
      1          1           0        0.000000    0.000000    0.000000
      2          1           0       -2.400000    0.000000    0.000000
      3          9           0        1.100000    0.000000    0.000000
 ---------------------------------------------------------------------

 SCF Done:  E(UB3LYP) =  -100.949122861     a.u. after    5 cycles

 Alpha  occ. eigenvalues --  -24.64077  -1.13703  -0.49555  -0.37918  -0.37918
 Alpha  occ. eigenvalues --   -0.35380
 Alpha virt. eigenvalues --   -0.01184   0.24836   0.30699   0.93745   0.93745
 Alpha virt. eigenvalues --    0.99637   1.19242   1.22157   1.22157   1.35421
 Alpha virt. eigenvalues --    1.35421   1.37714   1.80442   2.13059   2.32762

  Beta  occ. eigenvalues --  -24.64037  -1.13600  -0.49370  -0.37882  -0.37882
  Beta virt. eigenvalues --   -0.11164   0.01035   0.30686   0.36460   0.93746
  Beta virt. eigenvalues --    0.93746   0.99762   1.27963   1.35330   1.35330
  Beta virt. eigenvalues --    1.43192   1.43192   1.49187   1.80541   2.31705

 Mulliken charges and spin densities:
               1          2
     1  H    0.332851   0.001698
     2  H    0.010400   0.986005
     3  F   -0.343251   0.012296
 Sum of Mulliken charges =   0.00000   1.00000

 Dipole moment (field-independent basis, Debye):
    X=             -2.2900    Y=              0.0000    Z=              0.0000  Tot=              2.2900
 Quadrupole moment (field-independent basis, Debye-Ang):
   XX=             -8.2137   YY=             -7.0385   ZZ=             -7.0385
   XY=              0.0000   XZ=              0.0000   YZ=              0.0000

  Exact polarizability:      11.024       0.000       2.395      -0.000      -0.000       2.395
 Approx polarizability:      13.160       0.000       2.364       0.000      -0.000       2.364

 ******    1 imaginary frequencies (negative Signs) ******

                      1                      2                      3
                      A                      A                      A
 Frequencies --   -144.4449              1158.0922              1158.0922
 Red. masses --      1.0514                 1.0295                 1.0295
 Frc consts  --      0.0129                 0.8135                 0.8135
 IR Inten    --      2.6895               139.1331               139.1331

                      4
                      A
 Frequencies --   1904.6106
 Red. masses --      1.0601
 Frc consts  --      2.2658
 IR Inten    --    134.0925

 - Thermochemistry -
 -------------------
 Temperature   298.150 Kelvin.  Pressure   1.00000 Atm.
 Atom     1 has atomic number  1 and mass   1.00783

 Molecular mass:    21.01405 amu.
 Principal axes and moments of inertia in atomic units:
                           1         2         3
     Eigenvalues --     0.00000  44.79029  44.79029
           X            1.00000  -0.00000   0.00000
           Y            0.00000   1.00000   0.00000
           Z            0.00000   0.00000   1.00000
 This molecule is a prolate symmetric top.
 Rotational symmetry number  1.
 Rotational temperature (Kelvin)      1.93377
 Rotational constant (GHZ):          40.293133
    1 imaginary frequencies ignored.
 Zero-point vibrational energy      25246.0 (Joules/Mol)
                                    6.03393 (Kcal/Mol)
 Vibrational temperatures:   1666.24  1666.24  2740.31
          (Kelvin)

 Zero-point correction=                           0.009616 (Hartree/Particle)
 Thermal correction to Energy=                    0.012017
 Thermal correction to Enthalpy=                  0.012961
 Thermal correction to Gibbs Free Energy=        -0.010104
 Sum of electronic and zero-point Energies=           -100.939507
 Sum of electronic and thermal Energies=              -100.937106
 Sum of electronic and thermal Enthalpies=            -100.936162
 Sum of electronic and thermal Free Energies=         -100.959227

                     E (Thermal)             CV                S
                      KCal/Mol        Cal/Mol-Kelvin    Cal/Mol-Kelvin
 Total                    7.541              5.453             48.545
 Electronic               0.000              0.000              1.377
 Translational            0.889              2.981             35.068
 Rotational               0.592              1.987             11.999
 Vibrational              6.059              0.485              0.100

 Normal termination of Gaussian 16 at Fri Aug 22 16:05:36 2025.
