 Gaussian 16, Revision C.01,
 Gaussian 16:  ES64L-G16RevC.01  3-Jul-2019

 -----------------------------------------
 # sp b3lyp/6-311g** Force nosymm scf=(qc)
 -----------------------------------------

 -------------------
 Title Card Required
 -------------------
 Symbolic Z-matrix:
 Charge =  0 Multiplicity = 2

                          Input orientation:
 ---------------------------------------------------------------------
 Center     Atomic      Atomic             Coordinates (Angstroms)
 Number     Number       Type             X           Y           Z
 ---------------------------------------------------------------------
      1          1           0        0.000000    0.000000    0.000000
      2          1           0       -2.050000    0.000000    0.000000
      3          9           0        1.250000    0.000000    0.000000
 ---------------------------------------------------------------------

 SCF Done:  E(UB3LYP) =  -100.915846255     a.u. after    6 cycles

 Alpha  occ. eigenvalues --  -24.63761  -1.11267  -0.46986  -0.36802  -0.36802
 Alpha  occ. eigenvalues --   -0.36570
 Alpha virt. eigenvalues --   -0.04986   0.23827   0.28115   0.93538   0.93538
 Alpha virt. eigenvalues --    1.01637   1.12476   1.20706   1.20706   1.35036
 Alpha virt. eigenvalues --    1.35036   1.41362   1.70870   2.11994   2.30207

  Beta  occ. eigenvalues --  -24.63591  -1.10834  -0.46143  -0.36645  -0.36645
  Beta virt. eigenvalues --   -0.14753  -0.01578   0.27838   0.34029   0.93526
  Beta virt. eigenvalues --    0.93526   1.02105   1.19887   1.34136   1.34136
  Beta virt. eigenvalues --    1.40238   1.40238   1.52008   1.71337   2.24992

 Mulliken charges and spin densities:
               1          2
     1  H    0.336124  -0.013711
     2  H    0.027212   0.962331
     3  F   -0.363336   0.051379
 Sum of Mulliken charges =  -0.00000   1.00000

 Dipole moment (field-independent basis, Debye):
    X=             -2.6476    Y=              0.0000    Z=              0.0000  Tot=              2.6476
 Quadrupole moment (field-independent basis, Debye-Ang):
   XX=             -8.3921   YY=             -7.1316   ZZ=             -7.1316
   XY=              0.0000   XZ=              0.0000   YZ=             -0.0000

  Exact polarizability:      16.866       0.000       2.351      -0.000       0.000       2.351
 Approx polarizability:      21.575      -0.000       2.309       0.000       0.000       2.309

 ******    1 imaginary frequencies (negative Signs) ******

                      1                      2                      3
                      A                      A                      A
 Frequencies --   -708.1327               280.8639              1145.4129
 Red. masses --      1.0124                 1.1031                 1.0249
 Frc consts  --      0.2991                 0.0513                 0.7922
 IR Inten    --    181.7688                30.6607               105.3551

                      4
                      A
 Frequencies --   1145.4129
 Red. masses --      1.0249
 Frc consts  --      0.7922
 IR Inten    --    105.3551

 - Thermochemistry -
 -------------------
 Temperature   298.150 Kelvin.  Pressure   1.00000 Atm.
 Atom     1 has atomic number  1 and mass   1.00783

 Molecular mass:    21.01405 amu.
 Principal axes and moments of inertia in atomic units:
                           1         2         3
     Eigenvalues --     0.00000  41.24326  41.24326
           X            1.00000  -0.00000   0.00000
           Y            0.00000   1.00000   0.00000
           Z            0.00000   0.00000   1.00000
 This molecule is a prolate symmetric top.
 Rotational symmetry number  1.
 Rotational temperature (Kelvin)      2.10007
 Rotational constant (GHZ):          43.758453
    1 imaginary frequencies ignored.
 Zero-point vibrational energy      15382.1 (Joules/Mol)
                                    3.67642 (Kcal/Mol)
 Warning -- explicit consideration of   1 degrees of freedom as
           vibrations may cause significant error
 Vibrational temperatures:    404.10  1647.99  1647.99
          (Kelvin)

 Zero-point correction=                           0.005859 (Hartree/Particle)
 Thermal correction to Energy=                    0.008706
 Thermal correction to Enthalpy=                  0.009650
 Thermal correction to Gibbs Free Energy=        -0.014065
 Sum of electronic and zero-point Energies=           -100.909988
 Sum of electronic and thermal Energies=              -100.907141
 Sum of electronic and thermal Enthalpies=            -100.906197
 Sum of electronic and thermal Free Energies=         -100.929912

                     E (Thermal)             CV                S
                      KCal/Mol        Cal/Mol-Kelvin    Cal/Mol-Kelvin
 Total                    5.463              7.164             49.912
 Electronic               0.000              0.000              1.377
 Translational            0.889              2.981             35.068
 Rotational               0.592              1.987             11.835
 Vibrational              3.982              2.196              1.632
 Vibration     1          0.681              1.709              1.528

 Normal termination of Gaussian 16 at Fri Aug 22 16:12:38 2025.
