 Gaussian 16, Revision C.01,
 Gaussian 16:  ES64L-G16RevC.01  3-Jul-2019

 -----------------------------------------
 # sp b3lyp/6-311g** Force nosymm scf=(qc)
 -----------------------------------------

 -------------------
 Title Card Required
 -------------------
 Symbolic Z-matrix:
 Charge =  0 Multiplicity = 2

                          Input orientation:
 ---------------------------------------------------------------------
 Center     Atomic      Atomic             Coordinates (Angstroms)
 Number     Number       Type             X           Y           Z
 ---------------------------------------------------------------------
      1          1           0        0.000000    0.000000    0.000000
      2          1           0       -2.300000    0.000000    0.000000
      3          9           0        2.450000    0.000000    0.000000
 ---------------------------------------------------------------------

 SCF Done:  E(UB3LYP) =  -100.774931039     a.u. after   17 cycles

 Alpha  occ. eigenvalues --  -24.71445  -1.17667  -0.50539  -0.42450  -0.42450
 Alpha  occ. eigenvalues --   -0.34275
 Alpha virt. eigenvalues --   -0.12525   0.24862   0.32670   0.89975   0.93793
 Alpha virt. eigenvalues --    0.93793   1.06586   1.23483   1.23483   1.26770
 Alpha virt. eigenvalues --    1.36526   1.36526   1.43764   2.13297   2.32559

  Beta  occ. eigenvalues --  -24.68630  -1.09662  -0.39645  -0.39645  -0.35443
  Beta virt. eigenvalues --   -0.23222  -0.10491   0.26201   0.33723   0.95135
  Beta virt. eigenvalues --    0.95135   0.96569   1.09410   1.22395   1.22395
  Beta virt. eigenvalues --    1.31196   1.39814   1.39814   1.43483   2.13326

 Mulliken charges and spin densities:
               1          2
     1  H    0.077722  -0.836614
     2  H    0.018072   0.947540
     3  F   -0.095794   0.889074
 Sum of Mulliken charges =  -0.00000   1.00000

 Dipole moment (field-independent basis, Debye):
    X=             -1.3909    Y=             -0.0000    Z=             -0.0000  Tot=              1.3909
 Quadrupole moment (field-independent basis, Debye-Ang):
   XX=             -8.6810   YY=             -7.6219   ZZ=             -7.6219
   XY=              0.0000   XZ=              0.0000   YZ=             -0.0000

  Exact polarizability:      49.232       0.000       2.014       0.000      -0.000       2.014
 Approx polarizability:      51.971       0.000       1.920       0.000       0.000       1.920

 ******    2 imaginary frequencies (negative Signs) ******

                      1                      2                      3
                      A                      A                      A
 Frequencies --   -996.6062              -387.5018               396.7696
 Red. masses --      1.0145                 1.1005                 1.0172
 Frc consts  --      0.5937                 0.0974                 0.0943
 IR Inten    --     49.6595                38.4989                 4.4781

                      4
                      A
 Frequencies --    396.7696
 Red. masses --      1.0172
 Frc consts  --      0.0943
 IR Inten    --      4.4781

 - Thermochemistry -
 -------------------
 Temperature   298.150 Kelvin.  Pressure   1.00000 Atm.
 Atom     1 has atomic number  1 and mass   1.00783

 Molecular mass:    21.01405 amu.
 Principal axes and moments of inertia in atomic units:
                           1         2         3
     Eigenvalues --     0.00000  93.85774  93.85774
           X            1.00000  -0.00000   0.00000
           Y            0.00000   1.00000   0.00000
           Z            0.00000   0.00000   1.00000
 This molecule is a prolate symmetric top.
 Rotational symmetry number  1.
 Rotational temperature (Kelvin)      0.92282
 Rotational constant (GHZ):          19.228476
    2 imaginary frequencies ignored.
 Zero-point vibrational energy       4746.4 (Joules/Mol)
                                    1.13442 (Kcal/Mol)
 Warning -- explicit consideration of   2 degrees of freedom as
           vibrations may cause significant error
 Vibrational temperatures:    570.86   570.86
          (Kelvin)

 Zero-point correction=                           0.001808 (Hartree/Particle)
 Thermal correction to Energy=                    0.004793
 Thermal correction to Enthalpy=                  0.005737
 Thermal correction to Gibbs Free Energy=        -0.018905
 Sum of electronic and zero-point Energies=           -100.773123
 Sum of electronic and thermal Energies=              -100.770138
 Sum of electronic and thermal Enthalpies=            -100.769194
 Sum of electronic and thermal Free Energies=         -100.793836

                     E (Thermal)             CV                S
                      KCal/Mol        Cal/Mol-Kelvin    Cal/Mol-Kelvin
 Total                    3.008              7.922             51.864
 Electronic               0.000              0.000              1.377
 Translational            0.889              2.981             35.068
 Rotational               0.592              1.987             13.469
 Vibrational              1.527              2.954              1.949
 Vibration     1          0.763              1.477              0.975
 Vibration     2          0.763              1.477              0.975

 Normal termination of Gaussian 16 at Fri Aug 22 17:38:37 2025.
