 Gaussian 16, Revision C.01,
 Gaussian 16:  ES64L-G16RevC.01  3-Jul-2019

 -----------------------------------------
 # sp b3lyp/6-311g** Force nosymm scf=(qc)
 -----------------------------------------

 -------------------
 Title Card Required
 -------------------
 Symbolic Z-matrix:
 Charge =  0 Multiplicity = 2

                          Input orientation:
 ---------------------------------------------------------------------
 Center     Atomic      Atomic             Coordinates (Angstroms)
 Number     Number       Type             X           Y           Z
 ---------------------------------------------------------------------
      1          1           0        0.000000    0.000000    0.000000
      2          1           0       -2.850000    0.000000    0.000000
      3          9           0        2.100000    0.000000    0.000000
 ---------------------------------------------------------------------

 SCF Done:  E(UB3LYP) =  -100.780406760     a.u. after   23 cycles

 Alpha  occ. eigenvalues --  -24.66121  -1.07976  -0.37625  -0.37625  -0.37610
 Alpha  occ. eigenvalues --   -0.33496
 Alpha virt. eigenvalues --   -0.21149   0.21611   0.27331   0.91238   0.95854
 Alpha virt. eigenvalues --    0.95854   1.08603   1.21620   1.21620   1.23614
 Alpha virt. eigenvalues --    1.23614   1.24567   1.47796   2.12721   2.14599

  Beta  occ. eigenvalues --  -24.68606  -1.14954  -0.47621  -0.40081  -0.40081
  Beta virt. eigenvalues --   -0.13825  -0.04952   0.31453   0.38946   0.89169
  Beta virt. eigenvalues --    0.94981   0.94981   1.06598   1.36457   1.36457
  Beta virt. eigenvalues --    1.46887   1.46887   1.47564   1.56350   2.31782

 Mulliken charges and spin densities:
               1          2
     1  H    0.167737   0.788448
     2  H    0.006743   0.993433
     3  F   -0.174480  -0.781881
 Sum of Mulliken charges =   0.00000   1.00000

 Dipole moment (field-independent basis, Debye):
    X=             -1.9163    Y=              0.0000    Z=             -0.0000  Tot=              1.9163
 Quadrupole moment (field-independent basis, Debye-Ang):
   XX=             -9.9582   YY=             -7.4926   ZZ=             -7.4926
   XY=              0.0000   XZ=             -0.0000   YZ=             -0.0000

  Exact polarizability:      34.122       0.000       2.049      -0.000       0.000       2.049
 Approx polarizability:      46.970      -0.000       1.939       0.000       0.000       1.939

 ******    1 imaginary frequencies (negative Signs) ******

                      1                      2                      3
                      A                      A                      A
 Frequencies --   -956.8913               157.6893               402.6605
 Red. masses --      1.0626                 1.0490                 1.0220
 Frc consts  --      0.5732                 0.0154                 0.0976
 IR Inten    --     74.7717                 4.6828                24.9758

                      4
                      A
 Frequencies --    402.6605
 Red. masses --      1.0220
 Frc consts  --      0.0976
 IR Inten    --     24.9758

 - Thermochemistry -
 -------------------
 Temperature   298.150 Kelvin.  Pressure   1.00000 Atm.
 Atom     1 has atomic number  1 and mass   1.00783

 Molecular mass:    21.01405 amu.
 Principal axes and moments of inertia in atomic units:
                           1         2         3
     Eigenvalues --     0.00000  95.47734  95.47734
           X            1.00000  -0.00000   0.00000
           Y            0.00000   1.00000   0.00000
           Z            0.00000   0.00000   1.00000
 This molecule is a prolate symmetric top.
 Rotational symmetry number  1.
 Rotational temperature (Kelvin)      0.90717
 Rotational constant (GHZ):          18.902299
    1 imaginary frequencies ignored.
 Zero-point vibrational energy       5760.1 (Joules/Mol)
                                    1.37669 (Kcal/Mol)
 Warning -- explicit consideration of   3 degrees of freedom as
           vibrations may cause significant error
 Vibrational temperatures:    226.88   579.34   579.34
          (Kelvin)

 Zero-point correction=                           0.002194 (Hartree/Particle)
 Thermal correction to Energy=                    0.005798
 Thermal correction to Enthalpy=                  0.006742
 Thermal correction to Gibbs Free Energy=        -0.019120
 Sum of electronic and zero-point Energies=           -100.778213
 Sum of electronic and thermal Energies=              -100.774609
 Sum of electronic and thermal Enthalpies=            -100.773665
 Sum of electronic and thermal Free Energies=         -100.799527

                     E (Thermal)             CV                S
                      KCal/Mol        Cal/Mol-Kelvin    Cal/Mol-Kelvin
 Total                    3.638              9.791             54.432
 Electronic               0.000              0.000              1.377
 Translational            0.889              2.981             35.068
 Rotational               0.592              1.987             13.503
 Vibrational              2.157              4.823              4.483
 Vibration     1          0.621              1.894              2.577
 Vibration     2          0.768              1.464              0.953
 Vibration     3          0.768              1.464              0.953

 Normal termination of Gaussian 16 at Fri Aug 22 17:04:40 2025.
