 Gaussian 16, Revision C.01,
 Gaussian 16:  ES64L-G16RevC.01  3-Jul-2019

 -----------------------------------------
 # sp b3lyp/6-311g** Force nosymm scf=(qc)
 -----------------------------------------

 -------------------
 Title Card Required
 -------------------
 Symbolic Z-matrix:
 Charge =  0 Multiplicity = 2

                          Input orientation:
 ---------------------------------------------------------------------
 Center     Atomic      Atomic             Coordinates (Angstroms)
 Number     Number       Type             X           Y           Z
 ---------------------------------------------------------------------
      1          1           0        0.000000    0.000000    0.000000
      2          1           0       -1.050000    0.000000    0.000000
      3          9           0        2.300000    0.000000    0.000000
 ---------------------------------------------------------------------

 SCF Done:  E(UB3LYP) =  -100.900016468     a.u. after   14 cycles

 Alpha  occ. eigenvalues --  -24.74905  -1.20925  -0.54237  -0.45395  -0.45395
 Alpha  occ. eigenvalues --   -0.39625
 Alpha virt. eigenvalues --   -0.00919   0.21603   0.37938   0.89129   0.91448
 Alpha virt. eigenvalues --    0.91448   1.08469   1.08469   1.10339   1.36702
 Alpha virt. eigenvalues --    1.61377   1.61377   2.19127   2.34253   2.56023

  Beta  occ. eigenvalues --  -24.71868  -1.12236  -0.42359  -0.42359  -0.39430
  Beta virt. eigenvalues --   -0.25786  -0.00159   0.22028   0.38368   0.92873
  Beta virt. eigenvalues --    0.92873   0.97217   1.08929   1.08929   1.13826
  Beta virt. eigenvalues --    1.38087   1.61721   1.61721   2.19764   2.34735

 Mulliken charges and spin densities:
               1          2
     1  H   -0.000246  -0.035042
     2  H    0.029834   0.077076
     3  F   -0.029588   0.957966
 Sum of Mulliken charges =  -0.00000   1.00000

 Dipole moment (field-independent basis, Debye):
    X=             -0.4869    Y=             -0.0000    Z=              0.0000  Tot=              0.4869
 Quadrupole moment (field-independent basis, Debye-Ang):
   XX=             -6.1111   YY=             -7.2973   ZZ=             -7.2973
   XY=             -0.0000   XZ=              0.0000   YZ=             -0.0000

  Exact polarizability:      29.431      -0.000       2.145       0.000       0.000       2.145
 Approx polarizability:      35.572      -0.000       2.147       0.000      -0.000       2.147

 ******    1 imaginary frequencies (negative Signs) ******

                      1                      2                      3
                      A                      A                      A
 Frequencies --   -309.9514              1243.2127              1462.2097
 Red. masses --      1.1068                 1.0092                 1.0112
 Frc consts  --      0.0627                 0.9190                 1.2738
 IR Inten    --     55.9289               268.9487                 0.0015

                      4
                      A
 Frequencies --   1462.2099
 Red. masses --      1.0112
 Frc consts  --      1.2738
 IR Inten    --      0.0015

 - Thermochemistry -
 -------------------
 Temperature   298.150 Kelvin.  Pressure   1.00000 Atm.
 Atom     1 has atomic number  1 and mass   1.00783

 Molecular mass:    21.01405 amu.
 Principal axes and moments of inertia in atomic units:
                           1         2         3
     Eigenvalues --     0.00000  53.91858  53.91858
           X            1.00000  -0.00000   0.00000
           Y            0.00000   1.00000   0.00000
           Z            0.00000   0.00000   1.00000
 This molecule is a prolate symmetric top.
 Rotational symmetry number  1.
 Rotational temperature (Kelvin)      1.60638
 Rotational constant (GHZ):          33.471598
    1 imaginary frequencies ignored.
 Zero-point vibrational energy      24928.0 (Joules/Mol)
                                    5.95793 (Kcal/Mol)
 Vibrational temperatures:   1788.71  2103.79  2103.79
          (Kelvin)

 Zero-point correction=                           0.009495 (Hartree/Particle)
 Thermal correction to Energy=                    0.011881
 Thermal correction to Enthalpy=                  0.012825
 Thermal correction to Gibbs Free Energy=        -0.010397
 Sum of electronic and zero-point Energies=           -100.890522
 Sum of electronic and thermal Energies=              -100.888136
 Sum of electronic and thermal Enthalpies=            -100.887192
 Sum of electronic and thermal Free Energies=         -100.910414

                     E (Thermal)             CV                S
                      KCal/Mol        Cal/Mol-Kelvin    Cal/Mol-Kelvin
 Total                    7.455              5.317             48.875
 Electronic               0.000              0.000              1.377
 Translational            0.889              2.981             35.068
 Rotational               0.592              1.987             12.368
 Vibrational              5.974              0.349              0.062

 Normal termination of Gaussian 16 at Fri Aug 22 17:20:55 2025.
