 Gaussian 16, Revision C.01,
 Gaussian 16:  ES64L-G16RevC.01  3-Jul-2019

 -----------------------------------------
 # sp b3lyp/6-311g** Force nosymm scf=(qc)
 -----------------------------------------

 -------------------
 Title Card Required
 -------------------
 Symbolic Z-matrix:
 Charge =  0 Multiplicity = 2

                          Input orientation:
 ---------------------------------------------------------------------
 Center     Atomic      Atomic             Coordinates (Angstroms)
 Number     Number       Type             X           Y           Z
 ---------------------------------------------------------------------
      1          1           0        0.000000    0.000000    0.000000
      2          1           0       -3.350000    0.000000    0.000000
      3          9           0        1.650000    0.000000    0.000000
 ---------------------------------------------------------------------

 SCF Done:  E(UB3LYP) =  -100.824997647     a.u. after   13 cycles

 Alpha  occ. eigenvalues --  -24.64050  -1.07873  -0.40785  -0.35974  -0.35974
 Alpha  occ. eigenvalues --   -0.34033
 Alpha virt. eigenvalues --   -0.17727   0.19619   0.27232   0.94102   0.94102
 Alpha virt. eigenvalues --    0.98980   1.07445   1.23456   1.23456   1.23572
 Alpha virt. eigenvalues --    1.26380   1.26380   1.70994   2.12641   2.14382

  Beta  occ. eigenvalues --  -24.65219  -1.11035  -0.43713  -0.37102  -0.37102
  Beta virt. eigenvalues --   -0.15679  -0.06158   0.25081   0.38565   0.94429
  Beta virt. eigenvalues --    0.94429   0.98410   1.06623   1.32559   1.32559
  Beta virt. eigenvalues --    1.45701   1.46145   1.46145   1.74021   2.22086

 Mulliken charges and spin densities:
               1          2
     1  H    0.312026   0.371513
     2  H    0.002801   0.997249
     3  F   -0.314827  -0.368762
 Sum of Mulliken charges =   0.00000   1.00000

 Dipole moment (field-independent basis, Debye):
    X=             -2.5793    Y=              0.0000    Z=              0.0000  Tot=              2.5793
 Quadrupole moment (field-independent basis, Debye-Ang):
   XX=            -10.1730   YY=             -7.3856   ZZ=             -7.3856
   XY=              0.0000   XZ=              0.0000   YZ=             -0.0000

  Exact polarizability:      21.699       0.000       2.133      -0.000      -0.000       2.133
 Approx polarizability:      36.356       0.000       2.040      -0.000      -0.000       2.040

 ******    2 imaginary frequencies (negative Signs) ******

                      1                      2                      3
                      A                      A                      A
 Frequencies --  -1829.5822               -62.4073               839.8753
 Red. masses --      1.0588                 1.0528                 1.0283
 Frc consts  --      2.0881                 0.0024                 0.4274
 IR Inten    --     90.7493                 0.8351                90.6699

                      4
                      A
 Frequencies --    839.8753
 Red. masses --      1.0283
 Frc consts  --      0.4274
 IR Inten    --     90.6699

 - Thermochemistry -
 -------------------
 Temperature   298.150 Kelvin.  Pressure   1.00000 Atm.
 Atom     1 has atomic number  1 and mass   1.00783

 Molecular mass:    21.01405 amu.
 Principal axes and moments of inertia in atomic units:
                           1         2         3
     Eigenvalues --     0.00000  92.14040  92.14040
           X            1.00000  -0.00000   0.00000
           Y            0.00000   1.00000   0.00000
           Z            0.00000   0.00000   1.00000
 This molecule is a prolate symmetric top.
 Rotational symmetry number  1.
 Rotational temperature (Kelvin)      0.94002
 Rotational constant (GHZ):          19.586860
    2 imaginary frequencies ignored.
 Zero-point vibrational energy      10047.1 (Joules/Mol)
                                    2.40132 (Kcal/Mol)
 Vibrational temperatures:   1208.39  1208.39
          (Kelvin)

 Zero-point correction=                           0.003827 (Hartree/Particle)
 Thermal correction to Energy=                    0.006323
 Thermal correction to Enthalpy=                  0.007267
 Thermal correction to Gibbs Free Energy=        -0.016600
 Sum of electronic and zero-point Energies=           -100.821171
 Sum of electronic and thermal Energies=              -100.818675
 Sum of electronic and thermal Enthalpies=            -100.817731
 Sum of electronic and thermal Free Energies=         -100.841598

                     E (Thermal)             CV                S
                      KCal/Mol        Cal/Mol-Kelvin    Cal/Mol-Kelvin
 Total                    3.967              6.143             50.232
 Electronic               0.000              0.000              1.377
 Translational            0.889              2.981             35.068
 Rotational               0.592              1.987             13.432
 Vibrational              2.486              1.175              0.354

 Normal termination of Gaussian 16 at Fri Aug 22 16:35:34 2025.
