 Gaussian 16, Revision C.01,
 Gaussian 16:  ES64L-G16RevC.01  3-Jul-2019

 -----------------------------------------
 # sp b3lyp/6-311g** Force nosymm scf=(qc)
 -----------------------------------------

 -------------------
 Title Card Required
 -------------------
 Symbolic Z-matrix:
 Charge =  0 Multiplicity = 2

                          Input orientation:
 ---------------------------------------------------------------------
 Center     Atomic      Atomic             Coordinates (Angstroms)
 Number     Number       Type             X           Y           Z
 ---------------------------------------------------------------------
      1          1           0        0.000000    0.000000    0.000000
      2          1           0       -2.300000    0.000000    0.000000
      3          9           0        2.400000    0.000000    0.000000
 ---------------------------------------------------------------------

 SCF Done:  E(UB3LYP) =  -100.776161509     a.u. after   17 cycles

 Alpha  occ. eigenvalues --  -24.71118  -1.17357  -0.50208  -0.42175  -0.42175
 Alpha  occ. eigenvalues --   -0.34388
 Alpha virt. eigenvalues --   -0.12676   0.24789   0.32584   0.89785   0.93959
 Alpha virt. eigenvalues --    0.93959   1.06595   1.23369   1.23369   1.26953
 Alpha virt. eigenvalues --    1.36316   1.36316   1.44615   2.13197   2.32130

  Beta  occ. eigenvalues --  -24.68335  -1.09452  -0.39404  -0.39404  -0.35641
  Beta virt. eigenvalues --   -0.23014  -0.10532   0.26191   0.33703   0.95271
  Beta virt. eigenvalues --    0.95271   0.95924   1.09304   1.22286   1.22286
  Beta virt. eigenvalues --    1.32928   1.39761   1.39761   1.43397   2.13110

 Mulliken charges and spin densities:
               1          2
     1  H    0.084846  -0.826405
     2  H    0.019052   0.947639
     3  F   -0.103898   0.878766
 Sum of Mulliken charges =  -0.00000   1.00000

 Dipole moment (field-independent basis, Debye):
    X=             -1.4737    Y=              0.0000    Z=              0.0000  Tot=              1.4737
 Quadrupole moment (field-independent basis, Debye-Ang):
   XX=             -8.7519   YY=             -7.6147   ZZ=             -7.6147
   XY=              0.0000   XZ=              0.0000   YZ=             -0.0000

  Exact polarizability:      48.670       0.000       2.016       0.000      -0.000       2.016
 Approx polarizability:      52.068       0.000       1.921       0.000       0.000       1.921

 ******    2 imaginary frequencies (negative Signs) ******

                      1                      2                      3
                      A                      A                      A
 Frequencies --  -1013.1056              -401.0869               406.1643
 Red. masses --      1.0159                 1.0990                 1.0174
 Frc consts  --      0.6143                 0.1042                 0.0989
 IR Inten    --     53.1164                38.3045                 5.3662

                      4
                      A
 Frequencies --    406.1643
 Red. masses --      1.0174
 Frc consts  --      0.0989
 IR Inten    --      5.3662

 - Thermochemistry -
 -------------------
 Temperature   298.150 Kelvin.  Pressure   1.00000 Atm.
 Atom     1 has atomic number  1 and mass   1.00783

 Molecular mass:    21.01405 amu.
 Principal axes and moments of inertia in atomic units:
                           1         2         3
     Eigenvalues --     0.00000  91.53127  91.53127
           X            1.00000  -0.00000   0.00000
           Y            0.00000   1.00000   0.00000
           Z            0.00000   0.00000   1.00000
 This molecule is a prolate symmetric top.
 Rotational symmetry number  1.
 Rotational temperature (Kelvin)      0.94628
 Rotational constant (GHZ):          19.717209
    2 imaginary frequencies ignored.
 Zero-point vibrational energy       4858.8 (Joules/Mol)
                                    1.16128 (Kcal/Mol)
 Warning -- explicit consideration of   2 degrees of freedom as
           vibrations may cause significant error
 Vibrational temperatures:    584.38   584.38
          (Kelvin)

 Zero-point correction=                           0.001851 (Hartree/Particle)
 Thermal correction to Energy=                    0.004818
 Thermal correction to Enthalpy=                  0.005762
 Thermal correction to Gibbs Free Energy=        -0.018824
 Sum of electronic and zero-point Energies=           -100.774311
 Sum of electronic and thermal Energies=              -100.771344
 Sum of electronic and thermal Enthalpies=            -100.770399
 Sum of electronic and thermal Free Energies=         -100.794985

                     E (Thermal)             CV                S
                      KCal/Mol        Cal/Mol-Kelvin    Cal/Mol-Kelvin
 Total                    3.023              7.882             51.745
 Electronic               0.000              0.000              1.377
 Translational            0.889              2.981             35.068
 Rotational               0.592              1.987             13.419
 Vibrational              1.542              2.914              1.881
 Vibration     1          0.771              1.457              0.940
 Vibration     2          0.771              1.457              0.940

 Normal termination of Gaussian 16 at Fri Aug 22 17:32:26 2025.
