 Gaussian 16, Revision C.01,
 Gaussian 16:  ES64L-G16RevC.01  3-Jul-2019

 -----------------------------------------
 # sp b3lyp/6-311g** Force nosymm scf=(qc)
 -----------------------------------------

 -------------------
 Title Card Required
 -------------------
 Symbolic Z-matrix:
 Charge =  0 Multiplicity = 2

                          Input orientation:
 ---------------------------------------------------------------------
 Center     Atomic      Atomic             Coordinates (Angstroms)
 Number     Number       Type             X           Y           Z
 ---------------------------------------------------------------------
      1          1           0        0.000000    0.000000    0.000000
      2          1           0       -0.800000    0.000000    0.000000
      3          9           0        3.000000    0.000000    0.000000
 ---------------------------------------------------------------------

 SCF Done:  E(UB3LYP) =  -100.932557955     a.u. after   83 cycles

 Alpha  occ. eigenvalues --  -24.76624  -1.22432  -0.55623  -0.46887  -0.46773
 Alpha  occ. eigenvalues --   -0.42008
 Alpha virt. eigenvalues --    0.05071   0.20287   0.45246   0.85840   0.90713
 Alpha virt. eigenvalues --    0.93821   1.05578   1.08416   1.08423   1.52589
 Alpha virt. eigenvalues --    1.79084   1.79092   2.06206   2.38812   3.05530

  Beta  occ. eigenvalues --  -24.73462  -1.13344  -0.43808  -0.43603  -0.41914
  Beta virt. eigenvalues --   -0.26246   0.05111   0.20315   0.45345   0.92211
  Beta virt. eigenvalues --    0.95298   0.95624   1.08416   1.08422   1.09272
  Beta virt. eigenvalues --    1.52601   1.79083   1.79091   2.06232   2.38818

 Mulliken charges and spin densities:
               1          2
     1  H   -0.004989  -0.001079
     2  H   -0.004230  -0.000137
     3  F    0.009219   1.001216
 Sum of Mulliken charges =   0.00000   1.00000

 Dipole moment (field-independent basis, Debye):
    X=              0.0949    Y=             -0.0000    Z=              0.0000  Tot=              0.0949
 Quadrupole moment (field-independent basis, Debye-Ang):
   XX=             -6.0895   YY=             -6.3601   ZZ=             -6.8318
   XY=             -0.0000   XZ=              0.0000   YZ=              0.3617

  Exact polarizability:       9.357       0.000       2.344       0.000       0.192       2.092
 Approx polarizability:      10.909      -0.000       2.508      -0.000       0.242       2.193

                      1                      2                      3
                      A                      A                      A
 Frequencies --     60.8875              1078.6742              1080.2888
 Red. masses --      1.1085                 1.0092                 1.0092
 Frc consts  --      0.0024                 0.6918                 0.6939
 IR Inten    --      0.2795                 0.0064                 0.0055

                      4
                      A
 Frequencies --   3695.4852
 Red. masses --      1.0078
 Frc consts  --      8.1092
 IR Inten    --      0.4969

 - Thermochemistry -
 -------------------
 Temperature   298.150 Kelvin.  Pressure   1.00000 Atm.
 Atom     1 has atomic number  1 and mass   1.00783

 Molecular mass:    21.01405 amu.
 Principal axes and moments of inertia in atomic units:
                           1         2         3
     Eigenvalues --     0.00000  76.37942  76.37942
           X            1.00000  -0.00000   0.00000
           Y            0.00000   1.00000   0.00000
           Z            0.00000   0.00000   1.00000
 This molecule is a prolate symmetric top.
 Rotational symmetry number  1.
 Rotational temperature (Kelvin)      1.13400
 Rotational constant (GHZ):          23.628633
 Zero-point vibrational energy      35381.6 (Joules/Mol)
                                    8.45640 (Kcal/Mol)
 Warning -- explicit consideration of   1 degrees of freedom as
           vibrations may cause significant error
 Vibrational temperatures:     87.60  1551.97  1554.29  5316.98
          (Kelvin)

 Zero-point correction=                           0.013476 (Hartree/Particle)
 Thermal correction to Energy=                    0.016703
 Thermal correction to Enthalpy=                  0.017647
 Thermal correction to Gibbs Free Energy=        -0.008043
 Sum of electronic and zero-point Energies=           -100.919082
 Sum of electronic and thermal Energies=              -100.915855
 Sum of electronic and thermal Enthalpies=            -100.914911
 Sum of electronic and thermal Free Energies=         -100.940601

                     E (Thermal)             CV                S
                      KCal/Mol        Cal/Mol-Kelvin    Cal/Mol-Kelvin
 Total                   10.481              7.537             54.069
 Electronic               0.000              0.000              1.377
 Translational            0.889              2.981             35.068
 Rotational               0.592              1.987             13.060
 Vibrational              9.000              2.569              4.564
 Vibration     1          0.597              1.973              4.428

 Normal termination of Gaussian 16 at Fri Aug 22 19:23:17 2025.
