 Gaussian 16, Revision C.01,
 Gaussian 16:  ES64L-G16RevC.01  3-Jul-2019

 -----------------------------------------
 # sp b3lyp/6-311g** Force nosymm scf=(qc)
 -----------------------------------------

 -------------------
 Title Card Required
 -------------------
 Symbolic Z-matrix:
 Charge =  0 Multiplicity = 2

                          Input orientation:
 ---------------------------------------------------------------------
 Center     Atomic      Atomic             Coordinates (Angstroms)
 Number     Number       Type             X           Y           Z
 ---------------------------------------------------------------------
      1          1           0        0.000000    0.000000    0.000000
      2          1           0       -1.700000    0.000000    0.000000
      3          9           0        3.850000    0.000000    0.000000
 ---------------------------------------------------------------------

 SCF Done:  E(UB3LYP) =  -100.794770536     a.u. after   55 cycles

 Alpha  occ. eigenvalues --  -24.76205  -1.22106  -0.55310  -0.46483  -0.46467
 Alpha  occ. eigenvalues --   -0.33069
 Alpha virt. eigenvalues --   -0.10554   0.25739   0.30996   0.86055   0.90933
 Alpha virt. eigenvalues --    0.91386   1.00925   1.07645   1.23847   1.23848
 Alpha virt. eigenvalues --    1.38288   1.38290   1.67664   2.16911   2.41441

  Beta  occ. eigenvalues --  -24.73050  -1.13034  -0.43324  -0.43304  -0.33059
  Beta virt. eigenvalues --   -0.25961  -0.10586   0.25724   0.31026   0.92434
  Beta virt. eigenvalues --    0.92853   0.95523   1.05059   1.07639   1.23844
  Beta virt. eigenvalues --    1.23847   1.38277   1.38278   1.67677   2.17036

 Mulliken charges and spin densities:
               1          2
     1  H    0.000812  -0.612148
     2  H   -0.001753   0.612139
     3  F    0.000941   1.000009
 Sum of Mulliken charges =   0.00000   1.00000

 Dipole moment (field-independent basis, Debye):
    X=              0.0249    Y=              0.0000    Z=             -0.0000  Tot=              0.0249
 Quadrupole moment (field-independent basis, Debye-Ang):
   XX=             -6.6044   YY=             -6.9165   ZZ=             -7.7554
   XY=              0.0001   XZ=             -0.0000   YZ=             -0.1048

  Exact polarizability:      23.779       0.000       2.476      -0.000      -0.056       2.025
 Approx polarizability:      37.755       0.000       2.554      -0.000      -0.071       1.988

 ******    2 imaginary frequencies (negative Signs) ******

                      1                      2                      3
                      A                      A                      A
 Frequencies --  -1906.5912               -49.7727               908.5447
 Red. masses --      1.0078                 1.1085                 1.0110
 Frc consts  --      2.1585                 0.0016                 0.4917
 IR Inten    --      0.0098                 0.0495                 0.0015

                      4
                      A
 Frequencies --    909.2962
 Red. masses --      1.0110
 Frc consts  --      0.4925
 IR Inten    --      0.0007

 - Thermochemistry -
 -------------------
 Temperature   298.150 Kelvin.  Pressure   1.00000 Atm.
 Atom     1 has atomic number  1 and mass   1.00783

 Molecular mass:    21.01405 amu.
 Principal axes and moments of inertia in atomic units:
                           1         2         3
     Eigenvalues --     0.00000 148.95322 148.95322
           X            1.00000  -0.00000   0.00000
           Y            0.00000   1.00000   0.00000
           Z            0.00000   0.00000   1.00000
 This molecule is a prolate symmetric top.
 Rotational symmetry number  1.
 Rotational temperature (Kelvin)      0.58148
 Rotational constant (GHZ):          12.116161
    2 imaginary frequencies ignored.
 Zero-point vibrational energy      10873.1 (Joules/Mol)
                                    2.59873 (Kcal/Mol)
 Vibrational temperatures:   1307.19  1308.27
          (Kelvin)

 Zero-point correction=                           0.004141 (Hartree/Particle)
 Thermal correction to Energy=                    0.006606
 Thermal correction to Enthalpy=                  0.007550
 Thermal correction to Gibbs Free Energy=        -0.016730
 Sum of electronic and zero-point Energies=           -100.790629
 Sum of electronic and thermal Energies=              -100.788164
 Sum of electronic and thermal Enthalpies=            -100.787220
 Sum of electronic and thermal Free Energies=         -100.811500

                     E (Thermal)             CV                S
                      KCal/Mol        Cal/Mol-Kelvin    Cal/Mol-Kelvin
 Total                    4.145              5.944             51.102
 Electronic               0.000              0.000              1.377
 Translational            0.889              2.981             35.068
 Rotational               0.592              1.987             14.387
 Vibrational              2.664              0.976              0.270

 Normal termination of Gaussian 16 at Sat Aug 23 01:03:46 2025.
