 Gaussian 16, Revision C.01,
 Gaussian 16:  ES64L-G16RevC.01  3-Jul-2019

 -----------------------------------------
 # sp b3lyp/6-311g** Force nosymm scf=(qc)
 -----------------------------------------

 -------------------
 Title Card Required
 -------------------
 Symbolic Z-matrix:
 Charge =  0 Multiplicity = 2

                          Input orientation:
 ---------------------------------------------------------------------
 Center     Atomic      Atomic             Coordinates (Angstroms)
 Number     Number       Type             X           Y           Z
 ---------------------------------------------------------------------
      1          1           0        0.000000    0.000000    0.000000
      2          1           0       -3.100000    0.000000    0.000000
      3          9           0        2.400000    0.000000    0.000000
 ---------------------------------------------------------------------

 SCF Done:  E(UB3LYP) =  -100.770453188     a.u. after   17 cycles

 Alpha  occ. eigenvalues --  -24.71131  -1.17379  -0.50222  -0.42200  -0.42200
 Alpha  occ. eigenvalues --   -0.33243
 Alpha virt. eigenvalues --   -0.11202   0.23758   0.34365   0.89415   0.93925
 Alpha virt. eigenvalues --    0.93925   1.06472   1.24290   1.24290   1.24960
 Alpha virt. eigenvalues --    1.39466   1.39466   1.45946   2.14843   2.34349

  Beta  occ. eigenvalues --  -24.68348  -1.09477  -0.39430  -0.39430  -0.35784
  Beta virt. eigenvalues --   -0.22941  -0.07664   0.24383   0.37036   0.94891
  Beta virt. eigenvalues --    0.95231   0.95231   1.08658   1.21853   1.21853
  Beta virt. eigenvalues --    1.32968   1.44823   1.44851   1.44851   2.13154

 Mulliken charges and spin densities:
               1          2
     1  H    0.102966  -0.872625
     2  H    0.002789   0.994163
     3  F   -0.105755   0.878461
 Sum of Mulliken charges =  -0.00000   1.00000

 Dipole moment (field-independent basis, Debye):
    X=             -1.3273    Y=             -0.0000    Z=              0.0000  Tot=              1.3273
 Quadrupole moment (field-independent basis, Debye-Ang):
   XX=             -9.3666   YY=             -7.5674   ZZ=             -7.5674
   XY=             -0.0000   XZ=              0.0000   YZ=             -0.0000

  Exact polarizability:      32.557      -0.000       2.026       0.000      -0.000       2.026
 Approx polarizability:      40.693      -0.000       1.921       0.000       0.000       1.921

 ******    2 imaginary frequencies (negative Signs) ******

                      1                      2                      3
                      A                      A                      A
 Frequencies --   -707.4964              -192.6525               282.9476
 Red. masses --      1.0496                 1.0620                 1.0213
 Frc consts  --      0.3095                 0.0232                 0.0482
 IR Inten    --     86.1013                 1.7615                 9.7893

                      4
                      A
 Frequencies --    282.9476
 Red. masses --      1.0213
 Frc consts  --      0.0482
 IR Inten    --      9.7893

 - Thermochemistry -
 -------------------
 Temperature   298.150 Kelvin.  Pressure   1.00000 Atm.
 Atom     1 has atomic number  1 and mass   1.00783

 Molecular mass:    21.01405 amu.
 Principal axes and moments of inertia in atomic units:
                           1         2         3
     Eigenvalues --     0.00000 118.82790 118.82790
           X            1.00000  -0.00000   0.00000
           Y            0.00000   1.00000   0.00000
           Z            0.00000   0.00000   1.00000
 This molecule is a prolate symmetric top.
 Rotational symmetry number  1.
 Rotational temperature (Kelvin)      0.72890
 Rotational constant (GHZ):          15.187857
    2 imaginary frequencies ignored.
 Zero-point vibrational energy       3384.8 (Joules/Mol)
                                    0.80899 (Kcal/Mol)
 Warning -- explicit consideration of   2 degrees of freedom as
           vibrations may cause significant error
 Vibrational temperatures:    407.10   407.10
          (Kelvin)

 Zero-point correction=                           0.001289 (Hartree/Particle)
 Thermal correction to Energy=                    0.004533
 Thermal correction to Enthalpy=                  0.005478
 Thermal correction to Gibbs Free Energy=        -0.019901
 Sum of electronic and zero-point Energies=           -100.769164
 Sum of electronic and thermal Energies=              -100.765920
 Sum of electronic and thermal Enthalpies=            -100.764976
 Sum of electronic and thermal Free Energies=         -100.790355

                     E (Thermal)             CV                S
                      KCal/Mol        Cal/Mol-Kelvin    Cal/Mol-Kelvin
 Total                    2.845              8.379             53.415
 Electronic               0.000              0.000              1.377
 Translational            0.889              2.981             35.068
 Rotational               0.592              1.987             13.938
 Vibrational              1.364              3.410              3.032
 Vibration     1          0.682              1.705              1.516
 Vibration     2          0.682              1.705              1.516

 Normal termination of Gaussian 16 at Fri Aug 22 17:33:11 2025.
