 Gaussian 16, Revision C.01,
 Gaussian 16:  ES64L-G16RevC.01  3-Jul-2019

 -----------------------------------------
 # sp b3lyp/6-311g** Force nosymm scf=(qc)
 -----------------------------------------

 -------------------
 Title Card Required
 -------------------
 Symbolic Z-matrix:
 Charge =  0 Multiplicity = 2

                          Input orientation:
 ---------------------------------------------------------------------
 Center     Atomic      Atomic             Coordinates (Angstroms)
 Number     Number       Type             X           Y           Z
 ---------------------------------------------------------------------
      1          1           0        0.000000    0.000000    0.000000
      2          1           0       -2.950000    0.000000    0.000000
      3          9           0        1.100000    0.000000    0.000000
 ---------------------------------------------------------------------

 SCF Done:  E(UB3LYP) =  -100.948605108     a.u. after    6 cycles

 Alpha  occ. eigenvalues --  -24.64242  -1.13824  -0.49584  -0.38055  -0.38055
 Alpha  occ. eigenvalues --   -0.34388
 Alpha virt. eigenvalues --   -0.02179   0.24289   0.30799   0.93615   0.93615
 Alpha virt. eigenvalues --    0.99635   1.22789   1.23144   1.23144   1.30731
 Alpha virt. eigenvalues --    1.35270   1.35270   1.80102   2.14242   2.32249

  Beta  occ. eigenvalues --  -24.64232  -1.13798  -0.49547  -0.38046  -0.38046
  Beta virt. eigenvalues --   -0.08535  -0.00684   0.30254   0.37905   0.93616
  Beta virt. eigenvalues --    0.93616   0.99652   1.29514   1.35253   1.35253
  Beta virt. eigenvalues --    1.46400   1.46400   1.47528   1.80281   2.32219

 Mulliken charges and spin densities:
               1          2
     1  H    0.338226   0.000992
     2  H    0.003537   0.995639
     3  F   -0.341762   0.003369
 Sum of Mulliken charges =   0.00000   1.00000

 Dipole moment (field-independent basis, Debye):
    X=             -2.2076    Y=             -0.0000    Z=             -0.0000  Tot=              2.2076
 Quadrupole moment (field-independent basis, Debye-Ang):
   XX=             -8.4170   YY=             -7.0477   ZZ=             -7.0477
   XY=              0.0000   XZ=             -0.0000   YZ=             -0.0000

  Exact polarizability:       9.112       0.000       2.374      -0.000      -0.000       2.374
 Approx polarizability:      11.448      -0.000       2.340      -0.000      -0.000       2.340

 ******    1 imaginary frequencies (negative Signs) ******

                      1                      2                      3
                      A                      A                      A
 Frequencies --    -91.6371              1174.4747              1174.4747
 Red. masses --      1.0528                 1.0328                 1.0328
 Frc consts  --      0.0052                 0.8394                 0.8394
 IR Inten    --      0.4732               151.4095               151.4095

                      4
                      A
 Frequencies --   1932.7895
 Red. masses --      1.0588
 Frc consts  --      2.3304
 IR Inten    --     92.8057

 - Thermochemistry -
 -------------------
 Temperature   298.150 Kelvin.  Pressure   1.00000 Atm.
 Atom     1 has atomic number  1 and mass   1.00783

 Molecular mass:    21.01405 amu.
 Principal axes and moments of inertia in atomic units:
                           1         2         3
     Eigenvalues --     0.00000  58.80957  58.80957
           X            1.00000  -0.00000   0.00000
           Y            0.00000   1.00000   0.00000
           Z            0.00000   0.00000   1.00000
 This molecule is a prolate symmetric top.
 Rotational symmetry number  1.
 Rotational temperature (Kelvin)      1.47279
 Rotational constant (GHZ):          30.687882
    1 imaginary frequencies ignored.
 Zero-point vibrational energy      25610.5 (Joules/Mol)
                                    6.12105 (Kcal/Mol)
 Vibrational temperatures:   1689.81  1689.81  2780.85
          (Kelvin)

 Zero-point correction=                           0.009755 (Hartree/Particle)
 Thermal correction to Energy=                    0.012153
 Thermal correction to Enthalpy=                  0.013097
 Thermal correction to Gibbs Free Energy=        -0.010222
 Sum of electronic and zero-point Energies=           -100.938851
 Sum of electronic and thermal Energies=              -100.936452
 Sum of electronic and thermal Enthalpies=            -100.935508
 Sum of electronic and thermal Free Energies=         -100.958827

                     E (Thermal)             CV                S
                      KCal/Mol        Cal/Mol-Kelvin    Cal/Mol-Kelvin
 Total                    7.626              5.428             49.079
 Electronic               0.000              0.000              1.377
 Translational            0.889              2.981             35.068
 Rotational               0.592              1.987             12.540
 Vibrational              6.145              0.460              0.094

 Normal termination of Gaussian 16 at Fri Aug 22 16:05:57 2025.
