 Gaussian 16, Revision C.01,
 Gaussian 16:  ES64L-G16RevC.01  3-Jul-2019

 -----------------------------------------
 # sp b3lyp/6-311g** Force nosymm scf=(qc)
 -----------------------------------------

 -------------------
 Title Card Required
 -------------------
 Symbolic Z-matrix:
 Charge =  0 Multiplicity = 2

                          Input orientation:
 ---------------------------------------------------------------------
 Center     Atomic      Atomic             Coordinates (Angstroms)
 Number     Number       Type             X           Y           Z
 ---------------------------------------------------------------------
      1          1           0        0.000000    0.000000    0.000000
      2          1           0       -0.900000    0.000000    0.000000
      3          9           0        2.350000    0.000000    0.000000
 ---------------------------------------------------------------------

 SCF Done:  E(UB3LYP) =  -100.922528945     a.u. after    7 cycles

 Alpha  occ. eigenvalues --  -24.75554  -1.21513  -0.54856  -0.45927  -0.45927
 Alpha  occ. eigenvalues --   -0.41468
 Alpha virt. eigenvalues --    0.02831   0.20842   0.42165   0.89509   0.91131
 Alpha virt. eigenvalues --    0.91131   1.07310   1.07310   1.11887   1.46270
 Alpha virt. eigenvalues --    1.71190   1.71190   2.17562   2.37616   2.73258

  Beta  occ. eigenvalues --  -24.72468  -1.12665  -0.42838  -0.42838  -0.41387
  Beta virt. eigenvalues --   -0.26024   0.03432   0.21202   0.42501   0.92581
  Beta virt. eigenvalues --    0.92581   0.97818   1.07610   1.07610   1.15897
  Beta virt. eigenvalues --    1.46934   1.71390   1.71390   2.17912   2.37911

 Mulliken charges and spin densities:
               1          2
     1  H   -0.008725  -0.018199
     2  H    0.023602   0.043847
     3  F   -0.014876   0.974351
 Sum of Mulliken charges =   0.00000   1.00000

 Dipole moment (field-independent basis, Debye):
    X=             -0.2768    Y=             -0.0000    Z=              0.0000  Tot=              0.2768
 Quadrupole moment (field-independent basis, Debye-Ang):
   XX=             -5.8346   YY=             -7.1326   ZZ=             -7.1326
   XY=             -0.0000   XZ=              0.0000   YZ=              0.0000

  Exact polarizability:      20.040       0.000       2.057       0.000      -0.000       2.057
 Approx polarizability:      22.487      -0.000       2.127       0.000      -0.000       2.127

 ******    1 imaginary frequencies (negative Signs) ******

                      1                      2                      3
                      A                      A                      A
 Frequencies --   -201.0503              1437.7075              1437.7075
 Red. masses --      1.1085                 1.0104                 1.0104
 Frc consts  --      0.0264                 1.2305                 1.2305
 IR Inten    --     14.0415                 0.4801                 0.4801

                      4
                      A
 Frequencies --   2582.5465
 Red. masses --      1.0079
 Frc consts  --      3.9605
 IR Inten    --    128.7413

 - Thermochemistry -
 -------------------
 Temperature   298.150 Kelvin.  Pressure   1.00000 Atm.
 Atom     1 has atomic number  1 and mass   1.00783

 Molecular mass:    21.01405 amu.
 Principal axes and moments of inertia in atomic units:
                           1         2         3
     Eigenvalues --     0.00000  52.47710  52.47710
           X            1.00000  -0.00000   0.00000
           Y            0.00000   1.00000   0.00000
           Z            0.00000   0.00000   1.00000
 This molecule is a prolate symmetric top.
 Rotational symmetry number  1.
 Rotational temperature (Kelvin)      1.65051
 Rotational constant (GHZ):          34.391024
    1 imaginary frequencies ignored.
 Zero-point vibrational energy      32645.9 (Joules/Mol)
                                    7.80255 (Kcal/Mol)
 Vibrational temperatures:   2068.54  2068.54  3715.71
          (Kelvin)

 Zero-point correction=                           0.012434 (Hartree/Particle)
 Thermal correction to Energy=                    0.014807
 Thermal correction to Enthalpy=                  0.015752
 Thermal correction to Gibbs Free Energy=        -0.007430
 Sum of electronic and zero-point Energies=           -100.910095
 Sum of electronic and thermal Energies=              -100.907722
 Sum of electronic and thermal Enthalpies=            -100.906777
 Sum of electronic and thermal Free Energies=         -100.929959

                     E (Thermal)             CV                S
                      KCal/Mol        Cal/Mol-Kelvin    Cal/Mol-Kelvin
 Total                    9.292              5.155             48.790
 Electronic               0.000              0.000              1.377
 Translational            0.889              2.981             35.068
 Rotational               0.592              1.987             12.314
 Vibrational              7.811              0.187              0.031

 Normal termination of Gaussian 16 at Fri Aug 22 17:25:13 2025.
