 Gaussian 16, Revision C.01,
 Gaussian 16:  ES64L-G16RevC.01  3-Jul-2019

 -----------------------------------------
 # sp b3lyp/6-311g** Force nosymm scf=(qc)
 -----------------------------------------

 -------------------
 Title Card Required
 -------------------
 Symbolic Z-matrix:
 Charge =  0 Multiplicity = 2

                          Input orientation:
 ---------------------------------------------------------------------
 Center     Atomic      Atomic             Coordinates (Angstroms)
 Number     Number       Type             X           Y           Z
 ---------------------------------------------------------------------
      1          1           0        0.000000    0.000000    0.000000
      2          1           0       -1.550000    0.000000    0.000000
      3          9           0        2.850000    0.000000    0.000000
 ---------------------------------------------------------------------

 SCF Done:  E(UB3LYP) =  -100.814132269     a.u. after   28 cycles

 Alpha  occ. eigenvalues --  -24.74719  -1.20736  -0.53859  -0.45221  -0.45221
 Alpha  occ. eigenvalues --   -0.34730
 Alpha virt. eigenvalues --   -0.10856   0.24425   0.30291   0.89876   0.91839
 Alpha virt. eigenvalues --    0.91839   1.04390   1.06967   1.20129   1.20129
 Alpha virt. eigenvalues --    1.39277   1.39277   1.77285   2.19650   2.45514

  Beta  occ. eigenvalues --  -24.71670  -1.11991  -0.42169  -0.42169  -0.34465
  Beta virt. eigenvalues --   -0.25410  -0.10487   0.25042   0.30508   0.93299
  Beta virt. eigenvalues --    0.93299   0.98216   1.05963   1.10041   1.20429
  Beta virt. eigenvalues --    1.20429   1.39552   1.39552   1.77734   2.20449

 Mulliken charges and spin densities:
               1          2
     1  H    0.004266  -0.368802
     2  H    0.023870   0.402934
     3  F   -0.028135   0.965868
 Sum of Mulliken charges =  -0.00000   1.00000

 Dipole moment (field-independent basis, Debye):
    X=             -0.5842    Y=             -0.0000    Z=             -0.0000  Tot=              0.5842
 Quadrupole moment (field-independent basis, Debye-Ang):
   XX=             -6.4572   YY=             -7.7269   ZZ=             -7.7269
   XY=              0.0000   XZ=              0.0000   YZ=              0.0000

  Exact polarizability:      56.557       0.000       2.041       0.000      -0.000       2.041
 Approx polarizability:      72.120       0.000       2.014       0.000      -0.000       2.014

 ******    2 imaginary frequencies (negative Signs) ******

                      1                      2                      3
                      A                      A                      A
 Frequencies --  -2090.5255              -224.4523              1102.3635
 Red. masses --      1.0080                 1.1083                 1.0122
 Frc consts  --      2.5954                 0.0329                 0.7247
 IR Inten    --    306.1629                23.7942                 0.0163

                      4
                      A
 Frequencies --   1102.3635
 Red. masses --      1.0122
 Frc consts  --      0.7247
 IR Inten    --      0.0163

 - Thermochemistry -
 -------------------
 Temperature   298.150 Kelvin.  Pressure   1.00000 Atm.
 Atom     1 has atomic number  1 and mass   1.00783

 Molecular mass:    21.01405 amu.
 Principal axes and moments of inertia in atomic units:
                           1         2         3
     Eigenvalues --     0.00000  89.83710  89.83710
           X            1.00000  -0.00000   0.00000
           Y            0.00000   1.00000   0.00000
           Z            0.00000   0.00000   1.00000
 This molecule is a prolate symmetric top.
 Rotational symmetry number  1.
 Rotational temperature (Kelvin)      0.96412
 Rotational constant (GHZ):          20.089041
    2 imaginary frequencies ignored.
 Zero-point vibrational energy      13187.2 (Joules/Mol)
                                    3.15182 (Kcal/Mol)
 Vibrational temperatures:   1586.06  1586.06
          (Kelvin)

 Zero-point correction=                           0.005023 (Hartree/Particle)
 Thermal correction to Energy=                    0.007433
 Thermal correction to Enthalpy=                  0.008377
 Thermal correction to Gibbs Free Energy=        -0.015357
 Sum of electronic and zero-point Energies=           -100.809110
 Sum of electronic and thermal Energies=              -100.806700
 Sum of electronic and thermal Enthalpies=            -100.805755
 Sum of electronic and thermal Free Energies=         -100.829489

                     E (Thermal)             CV                S
                      KCal/Mol        Cal/Mol-Kelvin    Cal/Mol-Kelvin
 Total                    4.664              5.524             49.951
 Electronic               0.000              0.000              1.377
 Translational            0.889              2.981             35.068
 Rotational               0.592              1.987             13.382
 Vibrational              3.183              0.556              0.123

 Normal termination of Gaussian 16 at Fri Aug 22 18:52:28 2025.
