 Gaussian 16, Revision C.01,
 Gaussian 16:  ES64L-G16RevC.01  3-Jul-2019

 -----------------------------------------
 # sp b3lyp/6-311g** Force nosymm scf=(qc)
 -----------------------------------------

 -------------------
 Title Card Required
 -------------------
 Symbolic Z-matrix:
 Charge =  0 Multiplicity = 2

                          Input orientation:
 ---------------------------------------------------------------------
 Center     Atomic      Atomic             Coordinates (Angstroms)
 Number     Number       Type             X           Y           Z
 ---------------------------------------------------------------------
      1          1           0        0.000000    0.000000    0.000000
      2          1           0       -2.500000    0.000000    0.000000
      3          9           0        3.100000    0.000000    0.000000
 ---------------------------------------------------------------------

 SCF Done:  E(UB3LYP) =  -100.764257189     a.u. after   23 cycles

 Alpha  occ. eigenvalues --  -24.74498  -1.20525  -0.53616  -0.45018  -0.45018
 Alpha  occ. eigenvalues --   -0.32971
 Alpha virt. eigenvalues --   -0.10218   0.25443   0.33700   0.89144   0.92027
 Alpha virt. eigenvalues --    0.92027   1.03374   1.24681   1.24681   1.26455
 Alpha virt. eigenvalues --    1.40296   1.40296   1.42000   2.15460   2.36659

  Beta  occ. eigenvalues --  -24.71444  -1.11765  -0.41961  -0.41961  -0.33586
  Beta virt. eigenvalues --   -0.25022  -0.09204   0.25478   0.34891   0.93497
  Beta virt. eigenvalues --    0.93497   0.98021   1.07302   1.23934   1.23934
  Beta virt. eigenvalues --    1.25527   1.41929   1.41929   1.43592   2.16418

 Mulliken charges and spin densities:
               1          2
     1  H    0.024057  -0.938310
     2  H    0.004778   0.970424
     3  F   -0.028835   0.967887
 Sum of Mulliken charges =  -0.00000   1.00000

 Dipole moment (field-independent basis, Debye):
    X=             -0.5158    Y=             -0.0000    Z=             -0.0000  Tot=              0.5158
 Quadrupole moment (field-independent basis, Debye-Ang):
   XX=             -7.7488   YY=             -7.6562   ZZ=             -7.6562
   XY=             -0.0000   XZ=             -0.0000   YZ=             -0.0000

  Exact polarizability:      42.705      -0.000       2.016      -0.000      -0.000       2.016
 Approx polarizability:      36.793      -0.000       1.924      -0.000       0.000       1.924

 ******    2 imaginary frequencies (negative Signs) ******

                      1                      2                      3
                      A                      A                      A
 Frequencies --   -693.8064              -213.3117               258.5042
 Red. masses --      1.0092                 1.1069                 1.0155
 Frc consts  --      0.2862                 0.0297                 0.0400
 IR Inten    --     18.7267                16.6721                 0.4390

                      4
                      A
 Frequencies --    258.5042
 Red. masses --      1.0155
 Frc consts  --      0.0400
 IR Inten    --      0.4390

 - Thermochemistry -
 -------------------
 Temperature   298.150 Kelvin.  Pressure   1.00000 Atm.
 Atom     1 has atomic number  1 and mass   1.00783

 Molecular mass:    21.01405 amu.
 Principal axes and moments of inertia in atomic units:
                           1         2         3
     Eigenvalues --     0.00000 134.38676 134.38676
           X            1.00000  -0.00000   0.00000
           Y            0.00000   1.00000   0.00000
           Z            0.00000   0.00000   1.00000
 This molecule is a prolate symmetric top.
 Rotational symmetry number  1.
 Rotational temperature (Kelvin)      0.64451
 Rotational constant (GHZ):          13.429457
    2 imaginary frequencies ignored.
 Zero-point vibrational energy       3092.4 (Joules/Mol)
                                    0.73910 (Kcal/Mol)
 Warning -- explicit consideration of   2 degrees of freedom as
           vibrations may cause significant error
 Vibrational temperatures:    371.93   371.93
          (Kelvin)

 Zero-point correction=                           0.001178 (Hartree/Particle)
 Thermal correction to Energy=                    0.004488
 Thermal correction to Enthalpy=                  0.005432
 Thermal correction to Gibbs Free Energy=        -0.020212
 Sum of electronic and zero-point Energies=           -100.763079
 Sum of electronic and thermal Energies=              -100.759770
 Sum of electronic and thermal Enthalpies=            -100.758825
 Sum of electronic and thermal Free Energies=         -100.784469

                     E (Thermal)             CV                S
                      KCal/Mol        Cal/Mol-Kelvin    Cal/Mol-Kelvin
 Total                    2.816              8.465             53.972
 Electronic               0.000              0.000              1.377
 Translational            0.889              2.981             35.068
 Rotational               0.592              1.987             14.182
 Vibrational              1.335              3.497              3.344
 Vibration     1          0.667              1.748              1.672
 Vibration     2          0.667              1.748              1.672

 Normal termination of Gaussian 16 at Fri Aug 22 19:55:11 2025.
