 Gaussian 16, Revision C.01,
 Gaussian 16:  ES64L-G16RevC.01  3-Jul-2019

 -----------------------------------------
 # sp b3lyp/6-311g** Force nosymm scf=(qc)
 -----------------------------------------

 -------------------
 Title Card Required
 -------------------
 Symbolic Z-matrix:
 Charge =  0 Multiplicity = 2

                          Input orientation:
 ---------------------------------------------------------------------
 Center     Atomic      Atomic             Coordinates (Angstroms)
 Number     Number       Type             X           Y           Z
 ---------------------------------------------------------------------
      1          1           0        0.000000    0.000000    0.000000
      2          1           0       -0.800000    0.000000    0.000000
      3          9           0        2.700000    0.000000    0.000000
 ---------------------------------------------------------------------

 SCF Done:  E(UB3LYP) =  -100.932712256     a.u. after  101 cycles

 Alpha  occ. eigenvalues --  -24.76822  -1.22605  -0.55787  -0.47160  -0.46934
 Alpha  occ. eigenvalues --   -0.41814
 Alpha virt. eigenvalues --    0.05460   0.20571   0.45996   0.85701   0.90570
 Alpha virt. eigenvalues --    0.93651   1.08531   1.08544   1.09263   1.52528
 Alpha virt. eigenvalues --    1.79197   1.79211   2.06337   2.39462   3.05626

  Beta  occ. eigenvalues --  -24.73659  -1.13513  -0.44176  -0.43762  -0.41622
  Beta virt. eigenvalues --   -0.26400   0.05525   0.20614   0.46107   0.92066
  Beta virt. eigenvalues --    0.95150   0.95571   1.08534   1.08543   1.12825
  Beta virt. eigenvalues --    1.52531   1.79196   1.79209   2.06355   2.39470

 Mulliken charges and spin densities:
               1          2
     1  H   -0.006622  -0.001518
     2  H   -0.006405  -0.000355
     3  F    0.013026   1.001873
 Sum of Mulliken charges =   0.00000   1.00000

 Dipole moment (field-independent basis, Debye):
    X=              0.1326    Y=             -0.0000    Z=              0.0000  Tot=              0.1326
 Quadrupole moment (field-independent basis, Debye-Ang):
   XX=             -6.0499   YY=             -6.1796   ZZ=             -7.0188
   XY=              0.0000   XZ=             -0.0000   YZ=             -0.1011

  Exact polarizability:       9.559       0.000       2.445       0.000      -0.053       2.005
 Approx polarizability:      11.077       0.000       2.637      -0.000      -0.067       2.081

                      1                      2                      3
                      A                      A                      A
 Frequencies --    122.6606              1077.2826              1082.9686
 Red. masses --      1.1085                 1.0095                 1.0095
 Frc consts  --      0.0098                 0.6903                 0.6976
 IR Inten    --      0.5067                 0.0085                 0.0085

                      4
                      A
 Frequencies --   3695.9353
 Red. masses --      1.0078
 Frc consts  --      8.1112
 IR Inten    --      1.7152

 - Thermochemistry -
 -------------------
 Temperature   298.150 Kelvin.  Pressure   1.00000 Atm.
 Atom     1 has atomic number  1 and mass   1.00783

 Molecular mass:    21.01405 amu.
 Principal axes and moments of inertia in atomic units:
                           1         2         3
     Eigenvalues --     0.00000  63.68962  63.68962
           X            1.00000  -0.00000   0.00000
           Y            0.00000   1.00000   0.00000
           Z            0.00000   0.00000   1.00000
 This molecule is a prolate symmetric top.
 Rotational symmetry number  1.
 Rotational temperature (Kelvin)      1.35994
 Rotational constant (GHZ):          28.336506
 Zero-point vibrational energy      35761.4 (Joules/Mol)
                                    8.54719 (Kcal/Mol)
 Warning -- explicit consideration of   1 degrees of freedom as
           vibrations may cause significant error
 Vibrational temperatures:    176.48  1549.97  1558.15  5317.63
          (Kelvin)

 Zero-point correction=                           0.013621 (Hartree/Particle)
 Thermal correction to Energy=                    0.016727
 Thermal correction to Enthalpy=                  0.017672
 Thermal correction to Gibbs Free Energy=        -0.007196
 Sum of electronic and zero-point Energies=           -100.919091
 Sum of electronic and thermal Energies=              -100.915985
 Sum of electronic and thermal Enthalpies=            -100.915041
 Sum of electronic and thermal Free Energies=         -100.939908

                     E (Thermal)             CV                S
                      KCal/Mol        Cal/Mol-Kelvin    Cal/Mol-Kelvin
 Total                   10.497              7.493             52.337
 Electronic               0.000              0.000              1.377
 Translational            0.889              2.981             35.068
 Rotational               0.592              1.987             12.699
 Vibrational              9.015              2.525              3.193
 Vibration     1          0.610              1.930              3.058

 Normal termination of Gaussian 16 at Fri Aug 22 18:18:54 2025.
