 Gaussian 16, Revision C.01,
 Gaussian 16:  ES64L-G16RevC.01  3-Jul-2019

 -----------------------------------------
 # sp b3lyp/6-311g** Force nosymm scf=(qc)
 -----------------------------------------

 -------------------
 Title Card Required
 -------------------
 Symbolic Z-matrix:
 Charge =  0 Multiplicity = 2

                          Input orientation:
 ---------------------------------------------------------------------
 Center     Atomic      Atomic             Coordinates (Angstroms)
 Number     Number       Type             X           Y           Z
 ---------------------------------------------------------------------
      1          1           0        0.000000    0.000000    0.000000
      2          1           0       -1.250000    0.000000    0.000000
      3          9           0        1.200000    0.000000    0.000000
 ---------------------------------------------------------------------

 SCF Done:  E(UB3LYP) =  -100.938480064     a.u. after    7 cycles

 Alpha  occ. eigenvalues --  -24.64252  -1.13095  -0.52049  -0.37815  -0.37663
 Alpha  occ. eigenvalues --   -0.37663
 Alpha virt. eigenvalues --    0.04352   0.19598   0.31947   0.92127   0.92127
 Alpha virt. eigenvalues --    1.00207   1.10455   1.10455   1.19216   1.49615
 Alpha virt. eigenvalues --    1.49615   1.56794   2.07440   2.31264   2.45382

  Beta  occ. eigenvalues --  -24.63291  -1.10636  -0.46814  -0.36777  -0.36777
  Beta virt. eigenvalues --   -0.20415   0.07421   0.22822   0.35382   0.92750
  Beta virt. eigenvalues --    0.92750   1.02367   1.17320   1.17320   1.25479
  Beta virt. eigenvalues --    1.53484   1.53484   1.59745   2.18218   2.31133

 Mulliken charges and spin densities:
               1          2
     1  H    0.283790  -0.063731
     2  H    0.055008   0.784102
     3  F   -0.338797   0.279629
 Sum of Mulliken charges =   0.00000   1.00000

 Dipole moment (field-independent basis, Debye):
    X=             -2.5175    Y=              0.0000    Z=             -0.0000  Tot=              2.5175
 Quadrupole moment (field-independent basis, Debye-Ang):
   XX=             -7.8528   YY=             -6.9254   ZZ=             -6.9254
   XY=              0.0000   XZ=             -0.0000   YZ=              0.0000

  Exact polarizability:      21.517       0.000       2.489       0.000      -0.000       2.489
 Approx polarizability:      28.040       0.000       2.474      -0.000      -0.000       2.474

 ******    1 imaginary frequencies (negative Signs) ******

                      1                      2                      3
                      A                      A                      A
 Frequencies --  -2154.1118               813.3493              1093.4326
 Red. masses --      1.0190                 1.0952                 1.0184
 Frc consts  --      2.7860                 0.4269                 0.7174
 IR Inten    --     31.9229                40.3778                46.7772

                      4
                      A
 Frequencies --   1093.4326
 Red. masses --      1.0184
 Frc consts  --      0.7174
 IR Inten    --     46.7772

 - Thermochemistry -
 -------------------
 Temperature   298.150 Kelvin.  Pressure   1.00000 Atm.
 Atom     1 has atomic number  1 and mass   1.00783

 Molecular mass:    21.01405 amu.
 Principal axes and moments of inertia in atomic units:
                           1         2         3
     Eigenvalues --     0.00000  24.48607  24.48607
           X            1.00000  -0.00000   0.00000
           Y            0.00000   1.00000   0.00000
           Z            0.00000   0.00000   1.00000
 This molecule is a prolate symmetric top.
 Rotational symmetry number  1.
 Rotational temperature (Kelvin)      3.53727
 Rotational constant (GHZ):          73.704826
    1 imaginary frequencies ignored.
 Zero-point vibrational energy      17945.3 (Joules/Mol)
                                    4.28902 (Kcal/Mol)
 Vibrational temperatures:   1170.23  1573.21  1573.21
          (Kelvin)

 Zero-point correction=                           0.006835 (Hartree/Particle)
 Thermal correction to Energy=                    0.009321
 Thermal correction to Enthalpy=                  0.010265
 Thermal correction to Gibbs Free Energy=        -0.012336
 Sum of electronic and zero-point Energies=           -100.931645
 Sum of electronic and thermal Energies=              -100.929159
 Sum of electronic and thermal Enthalpies=            -100.928215
 Sum of electronic and thermal Free Energies=         -100.950816

                     E (Thermal)             CV                S
                      KCal/Mol        Cal/Mol-Kelvin    Cal/Mol-Kelvin
 Total                    5.849              6.168             47.569
 Electronic               0.000              0.000              1.377
 Translational            0.889              2.981             35.068
 Rotational               0.592              1.987             10.799
 Vibrational              4.368              1.200              0.325

 Normal termination of Gaussian 16 at Fri Aug 22 16:09:37 2025.
