 Gaussian 16, Revision C.01,
 Gaussian 16:  ES64L-G16RevC.01  3-Jul-2019

 -----------------------------------------
 # sp b3lyp/6-311g** Force nosymm scf=(qc)
 -----------------------------------------

 -------------------
 Title Card Required
 -------------------
 Symbolic Z-matrix:
 Charge =  0 Multiplicity = 2

                          Input orientation:
 ---------------------------------------------------------------------
 Center     Atomic      Atomic             Coordinates (Angstroms)
 Number     Number       Type             X           Y           Z
 ---------------------------------------------------------------------
      1          1           0        0.000000    0.000000    0.000000
      2          1           0       -3.350000    0.000000    0.000000
      3          9           0        0.900000    0.000000    0.000000
 ---------------------------------------------------------------------

 SCF Done:  E(UB3LYP) =  -100.971491853     a.u. after    5 cycles

 Alpha  occ. eigenvalues --  -24.63992  -1.19043  -0.53857  -0.39652  -0.39652
 Alpha  occ. eigenvalues --   -0.33737
 Alpha virt. eigenvalues --    0.03195   0.24628   0.39518   0.94337   0.94337
 Alpha virt. eigenvalues --    0.97754   1.23491   1.23781   1.23781   1.30192
 Alpha virt. eigenvalues --    1.37269   1.37269   2.00800   2.14434   2.37264

  Beta  occ. eigenvalues --  -24.63990  -1.19038  -0.53852  -0.39650  -0.39650
  Beta virt. eigenvalues --   -0.05901   0.03915   0.38397   0.40073   0.94337
  Beta virt. eigenvalues --    0.94337   0.97748   1.29626   1.37268   1.37268
  Beta virt. eigenvalues --    1.50322   1.50590   1.50590   2.00842   2.37222

 Mulliken charges and spin densities:
               1          2
     1  H    0.295178   0.000790
     2  H    0.001198   0.998512
     3  F   -0.296376   0.000697
 Sum of Mulliken charges =   0.00000   1.00000

 Dipole moment (field-independent basis, Debye):
    X=             -1.8991    Y=             -0.0000    Z=              0.0000  Tot=              1.8991
 Quadrupole moment (field-independent basis, Debye-Ang):
   XX=             -7.8865   YY=             -6.8687   ZZ=             -6.8687
   XY=             -0.0000   XZ=              0.0000   YZ=             -0.0000

  Exact polarizability:       5.763       0.000       2.428      -0.000       0.000       2.428
 Approx polarizability:       6.662       0.000       2.406      -0.000       0.000       2.406

 ******    3 imaginary frequencies (negative Signs) ******

                      1                      2                      3
                      A                      A                      A
 Frequencies --   -624.7497              -624.7497               -52.2128
 Red. masses --      1.0379                 1.0379                 1.0532
 Frc consts  --      0.2387                 0.2387                 0.0017
 IR Inten    --    180.3068               180.3068                 0.0646

                      4
                      A
 Frequencies --   4431.6652
 Red. masses --      1.0583
 Frc consts  --     12.2463
 IR Inten    --    101.7820

 - Thermochemistry -
 -------------------
 Temperature   298.150 Kelvin.  Pressure   1.00000 Atm.
 Atom     1 has atomic number  1 and mass   1.00783

 Molecular mass:    21.01405 amu.
 Principal axes and moments of inertia in atomic units:
                           1         2         3
     Eigenvalues --     0.00000  63.34432  63.34432
           X            1.00000  -0.00000   0.00000
           Y            0.00000   1.00000   0.00000
           Z            0.00000   0.00000   1.00000
 This molecule is a prolate symmetric top.
 Rotational symmetry number  1.
 Rotational temperature (Kelvin)      1.36735
 Rotational constant (GHZ):          28.490971
    3 imaginary frequencies ignored.
 Zero-point vibrational energy      26507.2 (Joules/Mol)
                                    6.33538 (Kcal/Mol)
 Vibrational temperatures:   6376.18
          (Kelvin)

 Zero-point correction=                           0.010096 (Hartree/Particle)
 Thermal correction to Energy=                    0.012457
 Thermal correction to Enthalpy=                  0.013401
 Thermal correction to Gibbs Free Energy=        -0.009944
 Sum of electronic and zero-point Energies=           -100.961396
 Sum of electronic and thermal Energies=              -100.959035
 Sum of electronic and thermal Enthalpies=            -100.958091
 Sum of electronic and thermal Free Energies=         -100.981436

                     E (Thermal)             CV                S
                      KCal/Mol        Cal/Mol-Kelvin    Cal/Mol-Kelvin
 Total                    7.817              4.968             49.133
 Electronic               0.000              0.000              1.377
 Translational            0.889              2.981             35.068
 Rotational               0.592              1.987             12.688
 Vibrational              6.335              0.000              0.000

 Normal termination of Gaussian 16 at Fri Aug 22 15:56:41 2025.
