 Gaussian 16, Revision C.01,
 Gaussian 16:  ES64L-G16RevC.01  3-Jul-2019

 -----------------------------------------
 # sp b3lyp/6-311g** Force nosymm scf=(qc)
 -----------------------------------------

 -------------------
 Title Card Required
 -------------------
 Symbolic Z-matrix:
 Charge =  0 Multiplicity = 2

                          Input orientation:
 ---------------------------------------------------------------------
 Center     Atomic      Atomic             Coordinates (Angstroms)
 Number     Number       Type             X           Y           Z
 ---------------------------------------------------------------------
      1          1           0        0.000000    0.000000    0.000000
      2          1           0       -3.450000    0.000000    0.000000
      3          9           0        2.800000    0.000000    0.000000
 ---------------------------------------------------------------------

 SCF Done:  E(UB3LYP) =  -100.762862598     a.u. after   21 cycles

 Alpha  occ. eigenvalues --  -24.73281  -1.19398  -0.52397  -0.44001  -0.44001
 Alpha  occ. eigenvalues --   -0.32682
 Alpha virt. eigenvalues --   -0.08947   0.23890   0.35774   0.89889   0.92752
 Alpha virt. eigenvalues --    0.92752   1.05073   1.24827   1.24827   1.25028
 Alpha virt. eigenvalues --    1.42900   1.42900   1.43647   2.14764   2.38702

  Beta  occ. eigenvalues --  -24.70312  -1.10907  -0.41033  -0.41033  -0.34289
  Beta virt. eigenvalues --   -0.24305  -0.06722   0.24048   0.37798   0.94192
  Beta virt. eigenvalues --    0.94192   0.98127   1.08479   1.23032   1.23032
  Beta virt. eigenvalues --    1.24644   1.45671   1.45940   1.45940   2.14452

 Mulliken charges and spin densities:
               1          2
     1  H    0.053566  -0.937781
     2  H    0.000687   0.997671
     3  F   -0.054252   0.940110
 Sum of Mulliken charges =  -0.00000   1.00000

 Dipole moment (field-independent basis, Debye):
    X=             -0.7900    Y=             -0.0000    Z=              0.0000  Tot=              0.7900
 Quadrupole moment (field-independent basis, Debye-Ang):
   XX=             -8.7059   YY=             -7.5992   ZZ=             -7.5992
   XY=             -0.0000   XZ=              0.0000   YZ=              0.0000

  Exact polarizability:      32.531      -0.000       2.023       0.000       0.000       2.023
 Approx polarizability:      36.305      -0.000       1.923       0.000      -0.000       1.923

 ******    2 imaginary frequencies (negative Signs) ******

                      1                      2                      3
                      A                      A                      A
 Frequencies --   -462.0117              -126.6587               169.1312
 Red. masses --      1.0495                 1.0621                 1.0207
 Frc consts  --      0.1320                 0.0100                 0.0172
 IR Inten    --     54.4845                 0.5848                 2.7070

                      4
                      A
 Frequencies --    169.1312
 Red. masses --      1.0207
 Frc consts  --      0.0172
 IR Inten    --      2.7070

 - Thermochemistry -
 -------------------
 Temperature   298.150 Kelvin.  Pressure   1.00000 Atm.
 Atom     1 has atomic number  1 and mass   1.00783

 Molecular mass:    21.01405 amu.
 Principal axes and moments of inertia in atomic units:
                           1         2         3
     Eigenvalues --     0.00000 154.66556 154.66556
           X            1.00000  -0.00000   0.00000
           Y            0.00000   1.00000   0.00000
           Z            0.00000   0.00000   1.00000
 This molecule is a prolate symmetric top.
 Rotational symmetry number  1.
 Rotational temperature (Kelvin)      0.56001
 Rotational constant (GHZ):          11.668669
    2 imaginary frequencies ignored.
 Zero-point vibrational energy       2023.3 (Joules/Mol)
                                    0.48357 (Kcal/Mol)
 Warning -- explicit consideration of   2 degrees of freedom as
           vibrations may cause significant error
 Vibrational temperatures:    243.34   243.34
          (Kelvin)

 Zero-point correction=                           0.000771 (Hartree/Particle)
 Thermal correction to Energy=                    0.004353
 Thermal correction to Enthalpy=                  0.005297
 Thermal correction to Gibbs Free Energy=        -0.021214
 Sum of electronic and zero-point Energies=           -100.762092
 Sum of electronic and thermal Energies=              -100.758510
 Sum of electronic and thermal Enthalpies=            -100.757566
 Sum of electronic and thermal Free Energies=         -100.784077

                     E (Thermal)             CV                S
                      KCal/Mol        Cal/Mol-Kelvin    Cal/Mol-Kelvin
 Total                    2.731              8.729             55.797
 Electronic               0.000              0.000              1.377
 Translational            0.889              2.981             35.068
 Rotational               0.592              1.987             14.462
 Vibrational              1.250              3.761              4.890
 Vibration     1          0.625              1.880              2.445
 Vibration     2          0.625              1.880              2.445

 Normal termination of Gaussian 16 at Fri Aug 22 18:44:34 2025.
