 Gaussian 16, Revision C.01,
 Gaussian 16:  ES64L-G16RevC.01  3-Jul-2019

 -----------------------------------------
 # sp b3lyp/6-311g** Force nosymm scf=(qc)
 -----------------------------------------

 -------------------
 Title Card Required
 -------------------
 Symbolic Z-matrix:
 Charge =  0 Multiplicity = 2

                          Input orientation:
 ---------------------------------------------------------------------
 Center     Atomic      Atomic             Coordinates (Angstroms)
 Number     Number       Type             X           Y           Z
 ---------------------------------------------------------------------
      1          1           0        0.000000    0.000000    0.000000
      2          1           0       -1.850000    0.000000    0.000000
      3          9           0        0.600000    0.000000    0.000000
 ---------------------------------------------------------------------

 SCF Done:  E(UB3LYP) =  -100.686416871     a.u. after    7 cycles

 Alpha  occ. eigenvalues --  -24.62690  -1.34740  -0.61200  -0.42945  -0.42945
 Alpha  occ. eigenvalues --   -0.35320
 Alpha virt. eigenvalues --    0.11885   0.23591   0.54745   0.92116   0.92116
 Alpha virt. eigenvalues --    0.93608   1.21802   1.21802   1.25010   1.50632
 Alpha virt. eigenvalues --    1.50632   1.59150   1.99820   2.18440   3.38338

  Beta  occ. eigenvalues --  -24.62650  -1.34616  -0.61027  -0.42920  -0.42920
  Beta virt. eigenvalues --   -0.10417   0.13234   0.33869   0.57023   0.92122
  Beta virt. eigenvalues --    0.92122   0.93719   1.33384   1.40975   1.40975
  Beta virt. eigenvalues --    1.51397   1.51397   1.67228   2.02637   2.43420

 Mulliken charges and spin densities:
               1          2
     1  H    0.217454   0.012559
     2  H    0.010662   0.983390
     3  F   -0.228115   0.004051
 Sum of Mulliken charges =   0.00000   1.00000

 Dipole moment (field-independent basis, Debye):
    X=             -1.5052    Y=             -0.0000    Z=             -0.0000  Tot=              1.5052
 Quadrupole moment (field-independent basis, Debye-Ang):
   XX=             -6.7476   YY=             -6.5095   ZZ=             -6.5095
   XY=             -0.0000   XZ=             -0.0000   YZ=             -0.0000

  Exact polarizability:       5.950       0.000       2.490      -0.000       0.000       2.490
 Approx polarizability:       5.740       0.000       2.487       0.000       0.000       2.487

 ******    2 imaginary frequencies (negative Signs) ******

                      1                      2                      3
                      A                      A                      A
 Frequencies --  -5783.4516             -5783.4516               492.4020
 Red. masses --      1.0350                 1.0350                 1.0533
 Frc consts  --     20.3973                20.3973                 0.1505
 IR Inten    --    195.3577               195.3577                 0.1086

                      4
                      A
 Frequencies --  13069.9156
 Red. masses --      1.0583
 Frc consts  --    106.5086
 IR Inten    --    118.6481

 - Thermochemistry -
 -------------------
 Temperature   298.150 Kelvin.  Pressure   1.00000 Atm.
 Atom     1 has atomic number  1 and mass   1.00783

 Molecular mass:    21.01405 amu.
 Principal axes and moments of inertia in atomic units:
                           1         2         3
     Eigenvalues --     0.00000  21.29302  21.29302
           X            1.00000  -0.00000   0.00000
           Y            0.00000   1.00000   0.00000
           Z            0.00000   0.00000   1.00000
 This molecule is a prolate symmetric top.
 Rotational symmetry number  1.
 Rotational temperature (Kelvin)      4.06772
 Rotational constant (GHZ):          84.757425
    2 imaginary frequencies ignored.
 Zero-point vibrational energy      81120.7 (Joules/Mol)
                                   19.38831 (Kcal/Mol)
 Warning -- explicit consideration of   1 degrees of freedom as
           vibrations may cause significant error
 Vibrational temperatures:    708.46 18804.69
          (Kelvin)

 Zero-point correction=                           0.030897 (Hartree/Particle)
 Thermal correction to Energy=                    0.033487
 Thermal correction to Enthalpy=                  0.034432
 Thermal correction to Gibbs Free Energy=         0.011794
 Sum of electronic and zero-point Energies=           -100.655520
 Sum of electronic and thermal Energies=              -100.652929
 Sum of electronic and thermal Enthalpies=            -100.651985
 Sum of electronic and thermal Free Energies=         -100.674622

                     E (Thermal)             CV                S
                      KCal/Mol        Cal/Mol-Kelvin    Cal/Mol-Kelvin
 Total                   21.014              6.235             47.644
 Electronic               0.000              0.000              1.377
 Translational            0.889              2.981             35.068
 Rotational               0.592              1.987             10.521
 Vibrational             19.532              1.267              0.677
 Vibration     1          0.848              1.267              0.677

 Normal termination of Gaussian 16 at Fri Aug 22 15:41:36 2025.
