 Gaussian 16, Revision C.01,
 Gaussian 16:  ES64L-G16RevC.01  3-Jul-2019

 -----------------------------------------
 # sp b3lyp/6-311g** Force nosymm scf=(qc)
 -----------------------------------------

 -------------------
 Title Card Required
 -------------------
 Symbolic Z-matrix:
 Charge =  0 Multiplicity = 2

                          Input orientation:
 ---------------------------------------------------------------------
 Center     Atomic      Atomic             Coordinates (Angstroms)
 Number     Number       Type             X           Y           Z
 ---------------------------------------------------------------------
      1          1           0        0.000000    0.000000    0.000000
      2          1           0       -3.500000    0.000000    0.000000
      3          9           0        1.150000    0.000000    0.000000
 ---------------------------------------------------------------------

 SCF Done:  E(UB3LYP) =  -100.937363494     a.u. after    6 cycles

 Alpha  occ. eigenvalues --  -24.64324  -1.13001  -0.48653  -0.37796  -0.37796
 Alpha  occ. eigenvalues --   -0.33812
 Alpha virt. eigenvalues --   -0.04090   0.22726   0.30220   0.93355   0.93355
 Alpha virt. eigenvalues --    1.00189   1.23648   1.23704   1.23704   1.27800
 Alpha virt. eigenvalues --    1.34934   1.34934   1.75626   2.13913   2.30276

  Beta  occ. eigenvalues --  -24.64321  -1.12993  -0.48643  -0.37793  -0.37793
  Beta virt. eigenvalues --   -0.07002  -0.03001   0.28078   0.38863   0.93355
  Beta virt. eigenvalues --    0.93355   1.00198   1.27744   1.34928   1.34928
  Beta virt. eigenvalues --    1.48290   1.48290   1.48681   1.75655   2.29953

 Mulliken charges and spin densities:
               1          2
     1  H    0.347556   0.000245
     2  H    0.001184   0.998667
     3  F   -0.348740   0.001088
 Sum of Mulliken charges =   0.00000   1.00000

 Dipole moment (field-independent basis, Debye):
    X=             -2.2358    Y=             -0.0000    Z=             -0.0000  Tot=              2.2358
 Quadrupole moment (field-independent basis, Debye-Ang):
   XX=             -8.7008   YY=             -7.0891   ZZ=             -7.0891
   XY=             -0.0000   XZ=             -0.0000   YZ=             -0.0000

  Exact polarizability:       8.791      -0.000       2.345       0.000      -0.000       2.345
 Approx polarizability:      11.926      -0.000       2.304      -0.000       0.000       2.304

 ******    1 imaginary frequencies (negative Signs) ******

                      1                      2                      3
                      A                      A                      A
 Frequencies --    -54.9948              1206.7908              1206.7908
 Red. masses --      1.0530                 1.0348                 1.0348
 Frc consts  --      0.0019                 0.8879                 0.8879
 IR Inten    --      0.0920               151.5473               151.5473

                      4
                      A
 Frequencies --   1466.1915
 Red. masses --      1.0585
 Frc consts  --      1.3407
 IR Inten    --     73.2594

 - Thermochemistry -
 -------------------
 Temperature   298.150 Kelvin.  Pressure   1.00000 Atm.
 Atom     1 has atomic number  1 and mass   1.00783

 Molecular mass:    21.01405 amu.
 Principal axes and moments of inertia in atomic units:
                           1         2         3
     Eigenvalues --     0.00000  76.77275  76.77275
           X            1.00000  -0.00000   0.00000
           Y            0.00000   1.00000   0.00000
           Z            0.00000   0.00000   1.00000
 This molecule is a prolate symmetric top.
 Rotational symmetry number  1.
 Rotational temperature (Kelvin)      1.12819
 Rotational constant (GHZ):          23.507574
    1 imaginary frequencies ignored.
 Zero-point vibrational energy      23206.2 (Joules/Mol)
                                    5.54641 (Kcal/Mol)
 Vibrational temperatures:   1736.30  1736.30  2109.52
          (Kelvin)

 Zero-point correction=                           0.008839 (Hartree/Particle)
 Thermal correction to Energy=                    0.011238
 Thermal correction to Enthalpy=                  0.012182
 Thermal correction to Gibbs Free Energy=        -0.011389
 Sum of electronic and zero-point Energies=           -100.928525
 Sum of electronic and thermal Energies=              -100.926126
 Sum of electronic and thermal Enthalpies=            -100.925182
 Sum of electronic and thermal Free Energies=         -100.948753

                     E (Thermal)             CV                S
                      KCal/Mol        Cal/Mol-Kelvin    Cal/Mol-Kelvin
 Total                    7.052              5.453             49.609
 Electronic               0.000              0.000              1.377
 Translational            0.889              2.981             35.068
 Rotational               0.592              1.987             13.070
 Vibrational              5.570              0.485              0.094

 Normal termination of Gaussian 16 at Fri Aug 22 16:08:43 2025.
