 Gaussian 16, Revision C.01,
 Gaussian 16:  ES64L-G16RevC.01  3-Jul-2019

 -----------------------------------------
 # sp b3lyp/6-311g** Force nosymm scf=(qc)
 -----------------------------------------

 -------------------
 Title Card Required
 -------------------
 Symbolic Z-matrix:
 Charge =  0 Multiplicity = 2

                          Input orientation:
 ---------------------------------------------------------------------
 Center     Atomic      Atomic             Coordinates (Angstroms)
 Number     Number       Type             X           Y           Z
 ---------------------------------------------------------------------
      1          1           0        0.000000    0.000000    0.000000
      2          1           0       -3.350000    0.000000    0.000000
      3          9           0        3.850000    0.000000    0.000000
 ---------------------------------------------------------------------

 SCF Done:  E(UB3LYP) =  -100.758883551     a.u. after   34 cycles

 Alpha  occ. eigenvalues --  -24.75794  -1.21728  -0.54919  -0.46111  -0.46111
 Alpha  occ. eigenvalues --   -0.32293
 Alpha virt. eigenvalues --   -0.06973   0.24531   0.37324   0.86770   0.91224
 Alpha virt. eigenvalues --    0.91224   1.01207   1.25217   1.25217   1.25468
 Alpha virt. eigenvalues --    1.45171   1.45406   1.45406   2.15301   2.40750

  Beta  occ. eigenvalues --  -24.72654  -1.12700  -0.42963  -0.42963  -0.32534
  Beta virt. eigenvalues --   -0.25690  -0.06707   0.24355   0.37720   0.92722
  Beta virt. eigenvalues --    0.92722   0.96099   1.05313   1.24951   1.24951
  Beta virt. eigenvalues --    1.25185   1.45588   1.45815   1.45815   2.15335

 Mulliken charges and spin densities:
               1          2
     1  H    0.003852  -0.992457
     2  H    0.000132   0.996883
     3  F   -0.003984   0.995574
 Sum of Mulliken charges =   0.00000   1.00000

 Dipole moment (field-independent basis, Debye):
    X=             -0.0814    Y=             -0.0000    Z=              0.0000  Tot=              0.0814
 Quadrupole moment (field-independent basis, Debye-Ang):
   XX=             -6.9856   YY=             -7.6263   ZZ=             -7.6263
   XY=             -0.0000   XZ=              0.0000   YZ=             -0.0000

  Exact polarizability:      14.649      -0.000       2.032       0.000      -0.000       2.032
 Approx polarizability:      10.843      -0.000       1.935       0.000       0.000       1.935

 ******    2 imaginary frequencies (negative Signs) ******

                      1                      2                      3
                      A                      A                      A
 Frequencies --   -230.6434               -82.6776                78.2604
 Red. masses --      1.0106                 1.1052                 1.0163
 Frc consts  --      0.0317                 0.0045                 0.0037
 IR Inten    --      1.6931                 0.9363                 0.0138

                      4
                      A
 Frequencies --     78.2604
 Red. masses --      1.0163
 Frc consts  --      0.0037
 IR Inten    --      0.0138

 - Thermochemistry -
 -------------------
 Temperature   298.150 Kelvin.  Pressure   1.00000 Atm.
 Atom     1 has atomic number  1 and mass   1.00783

 Molecular mass:    21.01405 amu.
 Principal axes and moments of inertia in atomic units:
                           1         2         3
     Eigenvalues --     0.00000 218.84317 218.84317
           X            1.00000  -0.00000   0.00000
           Y            0.00000   1.00000   0.00000
           Z            0.00000   0.00000   1.00000
 This molecule is a prolate symmetric top.
 Rotational symmetry number  1.
 Rotational temperature (Kelvin)      0.39578
 Rotational constant (GHZ):           8.246733
    2 imaginary frequencies ignored.
 Zero-point vibrational energy        936.2 (Joules/Mol)
                                    0.22376 (Kcal/Mol)
 Warning -- explicit consideration of   2 degrees of freedom as
           vibrations may cause significant error
 Vibrational temperatures:    112.60   112.60
          (Kelvin)

 Zero-point correction=                           0.000357 (Hartree/Particle)
 Thermal correction to Energy=                    0.004271
 Thermal correction to Enthalpy=                  0.005215
 Thermal correction to Gibbs Free Energy=        -0.023038
 Sum of electronic and zero-point Energies=           -100.758527
 Sum of electronic and thermal Energies=              -100.754612
 Sum of electronic and thermal Enthalpies=            -100.753668
 Sum of electronic and thermal Free Energies=         -100.781922

                     E (Thermal)             CV                S
                      KCal/Mol        Cal/Mol-Kelvin    Cal/Mol-Kelvin
 Total                    2.680              8.896             59.465
 Electronic               0.000              0.000              1.377
 Translational            0.889              2.981             35.068
 Rotational               0.592              1.987             15.151
 Vibrational              1.199              3.928              7.868
 Vibration     1          0.600              1.964              3.934
 Vibration     2          0.600              1.964              3.934

 Normal termination of Gaussian 16 at Sat Aug 23 01:10:41 2025.
