 Gaussian 16, Revision C.01,
 Gaussian 16:  ES64L-G16RevC.01  3-Jul-2019

 -----------------------------------------
 # sp b3lyp/6-311g** Force nosymm scf=(qc)
 -----------------------------------------

 -------------------
 Title Card Required
 -------------------
 Symbolic Z-matrix:
 Charge =  0 Multiplicity = 2

                          Input orientation:
 ---------------------------------------------------------------------
 Center     Atomic      Atomic             Coordinates (Angstroms)
 Number     Number       Type             X           Y           Z
 ---------------------------------------------------------------------
      1          1           0        0.000000    0.000000    0.000000
      2          1           0       -0.550000    0.000000    0.000000
      3          9           0        0.700000    0.000000    0.000000
 ---------------------------------------------------------------------

 SCF Done:  E(UB3LYP) =  -100.647773091     a.u. after    7 cycles

 Alpha  occ. eigenvalues --  -24.69495  -1.39727  -0.73359  -0.47788  -0.47788
 Alpha  occ. eigenvalues --   -0.26814
 Alpha virt. eigenvalues --    0.17070   0.17534   0.81936   0.84449   0.84449
 Alpha virt. eigenvalues --    0.91563   1.11442   1.11442   1.44856   1.61903
 Alpha virt. eigenvalues --    1.97416   1.97416   2.02888   3.36782   3.73190

  Beta  occ. eigenvalues --  -24.68357  -1.36280  -0.68797  -0.46805  -0.46805
  Beta virt. eigenvalues --   -0.09139   0.17579   0.22395   0.85061   0.86217
  Beta virt. eigenvalues --    0.86217   0.95629   1.16214   1.16214   1.46576
  Beta virt. eigenvalues --    1.66581   2.02725   2.02725   2.09841   3.42652

 Mulliken charges and spin densities:
               1          2
     1  H    0.284820  -0.089703
     2  H   -0.178643   0.916139
     3  F   -0.106178   0.173564
 Sum of Mulliken charges =   0.00000   1.00000

 Dipole moment (field-independent basis, Debye):
    X=             -0.4101    Y=             -0.0000    Z=              0.0000  Tot=              0.4101
 Quadrupole moment (field-independent basis, Debye-Ang):
   XX=             -7.5462   YY=             -6.4363   ZZ=             -6.4363
   XY=             -0.0000   XZ=              0.0000   YZ=              0.0000

  Exact polarizability:       8.982       0.000       2.448       0.000      -0.000       2.448
 Approx polarizability:       9.031      -0.000       2.555      -0.000      -0.000       2.555

 ******    2 imaginary frequencies (negative Signs) ******

                      1                      2                      3
                      A                      A                      A
 Frequencies --  -5631.5503             -5631.5503              5238.5248
 Red. masses --      1.0153                 1.0153                 1.0899
 Frc consts  --     18.9711                18.9711                17.6226
 IR Inten    --    118.4803               118.4803               425.9835

                      4
                      A
 Frequencies --  10755.5526
 Red. masses --      1.0237
 Frc consts  --     69.7724
 IR Inten    --     16.0696

 - Thermochemistry -
 -------------------
 Temperature   298.150 Kelvin.  Pressure   1.00000 Atm.
 Atom     1 has atomic number  1 and mass   1.00783

 Molecular mass:    21.01405 amu.
 Principal axes and moments of inertia in atomic units:
                           1         2         3
     Eigenvalues --     0.00000   6.73063   6.73063
           X            1.00000  -0.00000   0.00000
           Y            0.00000   1.00000   0.00000
           Z            0.00000   0.00000   1.00000
 This molecule is a prolate symmetric top.
 Rotational symmetry number  1.
 Rotational temperature (Kelvin)     12.86863
 Rotational constant (GHZ):         268.138636
    2 imaginary frequencies ignored.
 Zero-point vibrational energy      95665.8 (Joules/Mol)
                                   22.86468 (Kcal/Mol)
 Vibrational temperatures:   7537.07 15474.84
          (Kelvin)

 Zero-point correction=                           0.036437 (Hartree/Particle)
 Thermal correction to Energy=                    0.038798
 Thermal correction to Enthalpy=                  0.039742
 Thermal correction to Gibbs Free Energy=         0.018514
 Sum of electronic and zero-point Energies=           -100.611336
 Sum of electronic and thermal Energies=              -100.608975
 Sum of electronic and thermal Enthalpies=            -100.608031
 Sum of electronic and thermal Free Energies=         -100.629259

                     E (Thermal)             CV                S
                      KCal/Mol        Cal/Mol-Kelvin    Cal/Mol-Kelvin
 Total                   24.346              4.968             44.678
 Electronic               0.000              0.000              1.377
 Translational            0.889              2.981             35.068
 Rotational               0.592              1.987              8.233
 Vibrational             22.865              0.000              0.000

 Normal termination of Gaussian 16 at Fri Aug 22 15:45:24 2025.
