 Gaussian 16, Revision C.01,
 Gaussian 16:  ES64L-G16RevC.01  3-Jul-2019

 -----------------------------------------
 # sp b3lyp/6-311g** Force nosymm scf=(qc)
 -----------------------------------------

 -------------------
 Title Card Required
 -------------------
 Symbolic Z-matrix:
 Charge =  0 Multiplicity = 2

                          Input orientation:
 ---------------------------------------------------------------------
 Center     Atomic      Atomic             Coordinates (Angstroms)
 Number     Number       Type             X           Y           Z
 ---------------------------------------------------------------------
      1          1           0        0.000000    0.000000    0.000000
      2          1           0       -1.400000    0.000000    0.000000
      3          9           0        3.950000    0.000000    0.000000
 ---------------------------------------------------------------------

 SCF Done:  E(UB3LYP) =  -100.836365605     a.u. after   70 cycles

 Alpha  occ. eigenvalues --  -24.76222  -1.22125  -0.55328  -0.46503  -0.46485
 Alpha  occ. eigenvalues --   -0.34386
 Alpha virt. eigenvalues --   -0.08141   0.24255   0.31394   0.86038   0.90915
 Alpha virt. eigenvalues --    0.91280   1.00859   1.10698   1.17906   1.17908
 Alpha virt. eigenvalues --    1.45103   1.45104   1.89795   2.25375   2.49568

  Beta  occ. eigenvalues --  -24.73067  -1.13052  -0.43340  -0.43321  -0.34386
  Beta virt. eigenvalues --   -0.25979  -0.08140   0.24258   0.31403   0.92416
  Beta virt. eigenvalues --    0.92775   0.95504   1.05008   1.10703   1.17906
  Beta virt. eigenvalues --    1.17908   1.45103   1.45104   1.89796   2.25376

 Mulliken charges and spin densities:
               1          2
     1  H    0.001076   0.000036
     2  H   -0.001899  -0.000127
     3  F    0.000823   1.000092
 Sum of Mulliken charges =   0.00000   1.00000

 Dipole moment (field-independent basis, Debye):
    X=              0.0219    Y=              0.0000    Z=             -0.0000  Tot=              0.0219
 Quadrupole moment (field-independent basis, Debye-Ang):
   XX=             -6.3251   YY=             -7.2448   ZZ=             -7.2526
   XY=              0.0000   XZ=             -0.0000   YZ=             -0.4323

  Exact polarizability:      20.176       0.000       2.293      -0.000      -0.233       2.289
 Approx polarizability:      35.829       0.000       2.356      -0.000      -0.291       2.351

 ******    2 imaginary frequencies (negative Signs) ******

                      1                      2                      3
                      A                      A                      A
 Frequencies --  -1168.1919               -60.3144              1313.6777
 Red. masses --      1.0078                 1.1085                 1.0101
 Frc consts  --      0.8103                 0.0024                 1.0270
 IR Inten    --      0.0584                 0.0400                 0.0015

                      4
                      A
 Frequencies --   1313.7115
 Red. masses --      1.0101
 Frc consts  --      1.0271
 IR Inten    --      0.0014

 - Thermochemistry -
 -------------------
 Temperature   298.150 Kelvin.  Pressure   1.00000 Atm.
 Atom     1 has atomic number  1 and mass   1.00783

 Molecular mass:    21.01405 amu.
 Principal axes and moments of inertia in atomic units:
                           1         2         3
     Eigenvalues --     0.00000 144.23738 144.23738
           X            1.00000  -0.00000   0.00000
           Y            0.00000   1.00000   0.00000
           Z            0.00000   0.00000   1.00000
 This molecule is a prolate symmetric top.
 Rotational symmetry number  1.
 Rotational temperature (Kelvin)      0.60050
 Rotational constant (GHZ):          12.512299
    2 imaginary frequencies ignored.
 Zero-point vibrational energy      15715.3 (Joules/Mol)
                                    3.75604 (Kcal/Mol)
 Vibrational temperatures:   1890.09  1890.14
          (Kelvin)

 Zero-point correction=                           0.005986 (Hartree/Particle)
 Thermal correction to Energy=                    0.008367
 Thermal correction to Enthalpy=                  0.009311
 Thermal correction to Gibbs Free Energy=        -0.014835
 Sum of electronic and zero-point Energies=           -100.830380
 Sum of electronic and thermal Energies=              -100.827998
 Sum of electronic and thermal Enthalpies=            -100.827054
 Sum of electronic and thermal Free Energies=         -100.851200

                     E (Thermal)             CV                S
                      KCal/Mol        Cal/Mol-Kelvin    Cal/Mol-Kelvin
 Total                    5.251              5.251             50.820
 Electronic               0.000              0.000              1.377
 Translational            0.889              2.981             35.068
 Rotational               0.592              1.987             14.323
 Vibrational              3.769              0.283              0.052

 Normal termination of Gaussian 16 at Sat Aug 23 01:33:01 2025.
