 Gaussian 16, Revision C.01,
 Gaussian 16:  ES64L-G16RevC.01  3-Jul-2019

 -----------------------------------------
 # sp b3lyp/6-311g** Force nosymm scf=(qc)
 -----------------------------------------

 -------------------
 Title Card Required
 -------------------
 Symbolic Z-matrix:
 Charge =  0 Multiplicity = 2

                          Input orientation:
 ---------------------------------------------------------------------
 Center     Atomic      Atomic             Coordinates (Angstroms)
 Number     Number       Type             X           Y           Z
 ---------------------------------------------------------------------
      1          1           0        0.000000    0.000000    0.000000
      2          1           0       -0.700000    0.000000    0.000000
      3          9           0        3.800000    0.000000    0.000000
 ---------------------------------------------------------------------

 SCF Done:  E(UB3LYP) =  -100.932329966     a.u. after  183 cycles

 Alpha  occ. eigenvalues --  -24.76223  -1.22106  -0.55309  -0.46491  -0.46465
 Alpha  occ. eigenvalues --   -0.44240
 Alpha virt. eigenvalues --    0.06685   0.19484   0.48280   0.86073   0.90950
 Alpha virt. eigenvalues --    0.92069   1.01284   1.08914   1.08916   1.57400
 Alpha virt. eigenvalues --    1.85813   1.85816   1.89368   2.37744   3.56858

  Beta  occ. eigenvalues --  -24.73067  -1.13031  -0.44258  -0.43307  -0.43300
  Beta virt. eigenvalues --   -0.25955   0.06694   0.19489   0.48316   0.92450
  Beta virt. eigenvalues --    0.93560   0.95538   1.05399   1.08914   1.08916
  Beta virt. eigenvalues --    1.57404   1.85813   1.85816   1.89380   2.37745

 Mulliken charges and spin densities:
               1          2
     1  H   -0.000373  -0.000246
     2  H   -0.001728   0.000016
     3  F    0.002100   1.000229
 Sum of Mulliken charges =   0.00000   1.00000

 Dipole moment (field-independent basis, Debye):
    X=              0.0287    Y=              0.0000    Z=              0.0000  Tot=              0.0287
 Quadrupole moment (field-independent basis, Debye-Ang):
   XX=             -6.2536   YY=             -6.8719   ZZ=             -6.0264
   XY=             -0.0000   XZ=              0.0000   YZ=             -0.0900

  Exact polarizability:       7.466       0.000       1.934       0.000      -0.048       2.390
 Approx polarizability:       8.466      -0.000       2.014       0.000      -0.061       2.583

 ******    3 imaginary frequencies (negative Signs) ******

                      1                      2                      3
                      A                      A                      A
 Frequencies --  -1181.1529             -1180.0244               -56.4860
 Red. masses --      1.0085                 1.0085                 1.1085
 Frc consts  --      0.8290                 0.8274                 0.0021
 IR Inten    --      0.0000                 0.0000                 0.0750

                      4
                      A
 Frequencies --   5087.7222
 Red. masses --      1.0078
 Frc consts  --     15.3703
 IR Inten    --      0.0312

 - Thermochemistry -
 -------------------
 Temperature   298.150 Kelvin.  Pressure   1.00000 Atm.
 Atom     1 has atomic number  1 and mass   1.00783

 Molecular mass:    21.01405 amu.
 Principal axes and moments of inertia in atomic units:
                           1         2         3
     Eigenvalues --     0.00000 112.95872 112.95872
           X            1.00000  -0.00000   0.00000
           Y            0.00000   1.00000   0.00000
           Z            0.00000   0.00000   1.00000
 This molecule is a prolate symmetric top.
 Rotational symmetry number  1.
 Rotational temperature (Kelvin)      0.76678
 Rotational constant (GHZ):          15.976998
    3 imaginary frequencies ignored.
 Zero-point vibrational energy      30431.3 (Joules/Mol)
                                    7.27326 (Kcal/Mol)
 Vibrational temperatures:   7320.10
          (Kelvin)

 Zero-point correction=                           0.011591 (Hartree/Particle)
 Thermal correction to Energy=                    0.013951
 Thermal correction to Enthalpy=                  0.014895
 Thermal correction to Gibbs Free Energy=        -0.008996
 Sum of electronic and zero-point Energies=           -100.920739
 Sum of electronic and thermal Energies=              -100.918379
 Sum of electronic and thermal Enthalpies=            -100.917435
 Sum of electronic and thermal Free Energies=         -100.941326

                     E (Thermal)             CV                S
                      KCal/Mol        Cal/Mol-Kelvin    Cal/Mol-Kelvin
 Total                    8.754              4.968             50.283
 Electronic               0.000              0.000              1.377
 Translational            0.889              2.981             35.068
 Rotational               0.592              1.987             13.837
 Vibrational              7.273              0.000              0.000

 Normal termination of Gaussian 16 at Sat Aug 23 00:30:12 2025.
