 Gaussian 16, Revision C.01,
 Gaussian 16:  ES64L-G16RevC.01  3-Jul-2019

 -----------------------------------------
 # sp b3lyp/6-311g** Force nosymm scf=(qc)
 -----------------------------------------

 -------------------
 Title Card Required
 -------------------
 Symbolic Z-matrix:
 Charge =  0 Multiplicity = 2

                          Input orientation:
 ---------------------------------------------------------------------
 Center     Atomic      Atomic             Coordinates (Angstroms)
 Number     Number       Type             X           Y           Z
 ---------------------------------------------------------------------
      1          1           0        0.000000    0.000000    0.000000
      2          1           0       -3.700000    0.000000    0.000000
      3          9           0        2.900000    0.000000    0.000000
 ---------------------------------------------------------------------

 SCF Done:  E(UB3LYP) =  -100.761704907     a.u. after   20 cycles

 Alpha  occ. eigenvalues --  -24.73698  -1.19787  -0.52817  -0.44351  -0.44351
 Alpha  occ. eigenvalues --   -0.32552
 Alpha virt. eigenvalues --   -0.08313   0.23835   0.36073   0.89647   0.92506
 Alpha virt. eigenvalues --    0.92506   1.04459   1.24949   1.24949   1.25022
 Alpha virt. eigenvalues --    1.43678   1.43678   1.44281   2.14522   2.39914

  Beta  occ. eigenvalues --  -24.70698  -1.11197  -0.41350  -0.41350  -0.33990
  Beta virt. eigenvalues --   -0.24550  -0.06289   0.23839   0.38053   0.93958
  Beta virt. eigenvalues --    0.93958   0.98145   1.08044   1.23325   1.23325
  Beta virt. eigenvalues --    1.24140   1.46180   1.46400   1.46400   2.14412

 Mulliken charges and spin densities:
               1          2
     1  H    0.044917  -0.949047
     2  H    0.000311   0.998744
     3  F   -0.045228   0.950303
 Sum of Mulliken charges =  -0.00000   1.00000

 Dipole moment (field-independent basis, Debye):
    X=             -0.6785    Y=             -0.0000    Z=             -0.0000  Tot=              0.6785
 Quadrupole moment (field-independent basis, Debye-Ang):
   XX=             -8.5336   YY=             -7.6020   ZZ=             -7.6020
   XY=             -0.0000   XZ=             -0.0000   YZ=             -0.0000

  Exact polarizability:      31.683      -0.000       2.025      -0.000      -0.000       2.025
 Approx polarizability:      34.114      -0.000       1.925      -0.000       0.000       1.925

 ******    2 imaginary frequencies (negative Signs) ******

                      1                      2                      3
                      A                      A                      A
 Frequencies --   -408.4536               -96.3352               145.7041
 Red. masses --      1.0521                 1.0595                 1.0212
 Frc consts  --      0.1034                 0.0058                 0.0128
 IR Inten    --     46.9362                 0.2247                 1.9264

                      4
                      A
 Frequencies --    145.7041
 Red. masses --      1.0212
 Frc consts  --      0.0128
 IR Inten    --      1.9264

 - Thermochemistry -
 -------------------
 Temperature   298.150 Kelvin.  Pressure   1.00000 Atm.
 Atom     1 has atomic number  1 and mass   1.00783

 Molecular mass:    21.01405 amu.
 Principal axes and moments of inertia in atomic units:
                           1         2         3
     Eigenvalues --     0.00000 171.46270 171.46270
           X            1.00000  -0.00000   0.00000
           Y            0.00000   1.00000   0.00000
           Z            0.00000   0.00000   1.00000
 This molecule is a prolate symmetric top.
 Rotational symmetry number  1.
 Rotational temperature (Kelvin)      0.50515
 Rotational constant (GHZ):          10.525562
    2 imaginary frequencies ignored.
 Zero-point vibrational energy       1743.0 (Joules/Mol)
                                    0.41659 (Kcal/Mol)
 Warning -- explicit consideration of   2 degrees of freedom as
           vibrations may cause significant error
 Vibrational temperatures:    209.64   209.64
          (Kelvin)

 Zero-point correction=                           0.000664 (Hartree/Particle)
 Thermal correction to Energy=                    0.004326
 Thermal correction to Enthalpy=                  0.005270
 Thermal correction to Gibbs Free Energy=        -0.021607
 Sum of electronic and zero-point Energies=           -100.761041
 Sum of electronic and thermal Energies=              -100.757379
 Sum of electronic and thermal Enthalpies=            -100.756435
 Sum of electronic and thermal Free Energies=         -100.783312

                     E (Thermal)             CV                S
                      KCal/Mol        Cal/Mol-Kelvin    Cal/Mol-Kelvin
 Total                    2.715              8.783             56.567
 Electronic               0.000              0.000              1.377
 Translational            0.889              2.981             35.068
 Rotational               0.592              1.987             14.667
 Vibrational              1.233              3.815              5.455
 Vibration     1          0.617              1.907              2.728
 Vibration     2          0.617              1.907              2.728

 Normal termination of Gaussian 16 at Fri Aug 22 19:04:59 2025.
