 Gaussian 16, Revision C.01,
 Gaussian 16:  ES64L-G16RevC.01  3-Jul-2019

 -----------------------------------------
 # sp b3lyp/6-311g** Force nosymm scf=(qc)
 -----------------------------------------

 -------------------
 Title Card Required
 -------------------
 Symbolic Z-matrix:
 Charge =  0 Multiplicity = 2

                          Input orientation:
 ---------------------------------------------------------------------
 Center     Atomic      Atomic             Coordinates (Angstroms)
 Number     Number       Type             X           Y           Z
 ---------------------------------------------------------------------
      1          1           0        0.000000    0.000000    0.000000
      2          1           0       -2.400000    0.000000    0.000000
      3          9           0        2.550000    0.000000    0.000000
 ---------------------------------------------------------------------

 SCF Done:  E(UB3LYP) =  -100.771306068     a.u. after   17 cycles

 Alpha  occ. eigenvalues --  -24.72048  -1.18237  -0.51150  -0.42959  -0.42959
 Alpha  occ. eigenvalues --   -0.33873
 Alpha virt. eigenvalues --   -0.12003   0.24954   0.32998   0.90225   0.93467
 Alpha virt. eigenvalues --    0.93467   1.06455   1.23826   1.23826   1.26769
 Alpha virt. eigenvalues --    1.37543   1.37543   1.42342   2.14253   2.33553

  Beta  occ. eigenvalues --  -24.69180  -1.10063  -0.40097  -0.40097  -0.35099
  Beta virt. eigenvalues --   -0.23585  -0.09974   0.25996   0.34248   0.94852
  Beta virt. eigenvalues --    0.94852   0.97552   1.09546   1.22545   1.22545
  Beta virt. eigenvalues --    1.28916   1.40807   1.40807   1.43315   2.14338

 Mulliken charges and spin densities:
               1          2
     1  H    0.068559  -0.867753
     2  H    0.013015   0.960828
     3  F   -0.081573   0.906926
 Sum of Mulliken charges =   0.00000   1.00000

 Dipole moment (field-independent basis, Debye):
    X=             -1.2093    Y=              0.0000    Z=              0.0000  Tot=              1.2093
 Quadrupole moment (field-independent basis, Debye-Ang):
   XX=             -8.6448   YY=             -7.6255   ZZ=             -7.6255
   XY=              0.0000   XZ=              0.0000   YZ=              0.0000

  Exact polarizability:      46.919       0.000       2.013       0.000      -0.000       2.013
 Approx polarizability:      48.852       0.000       1.918      -0.000      -0.000       1.918

 ******    2 imaginary frequencies (negative Signs) ******

                      1                      2                      3
                      A                      A                      A
 Frequencies --   -874.3594              -347.5606               343.4876
 Red. masses --      1.0151                 1.0999                 1.0172
 Frc consts  --      0.4572                 0.0783                 0.0707
 IR Inten    --     45.5732                31.5579                 3.6561

                      4
                      A
 Frequencies --    343.4876
 Red. masses --      1.0172
 Frc consts  --      0.0707
 IR Inten    --      3.6561

 - Thermochemistry -
 -------------------
 Temperature   298.150 Kelvin.  Pressure   1.00000 Atm.
 Atom     1 has atomic number  1 and mass   1.00783

 Molecular mass:    21.01405 amu.
 Principal axes and moments of inertia in atomic units:
                           1         2         3
     Eigenvalues --     0.00000 101.87812 101.87812
           X            1.00000  -0.00000   0.00000
           Y            0.00000   1.00000   0.00000
           Z            0.00000   0.00000   1.00000
 This molecule is a prolate symmetric top.
 Rotational symmetry number  1.
 Rotational temperature (Kelvin)      0.85017
 Rotational constant (GHZ):          17.714708
    2 imaginary frequencies ignored.
 Zero-point vibrational energy       4109.0 (Joules/Mol)
                                    0.98208 (Kcal/Mol)
 Warning -- explicit consideration of   2 degrees of freedom as
           vibrations may cause significant error
 Vibrational temperatures:    494.20   494.20
          (Kelvin)

 Zero-point correction=                           0.001565 (Hartree/Particle)
 Thermal correction to Energy=                    0.004663
 Thermal correction to Enthalpy=                  0.005607
 Thermal correction to Gibbs Free Energy=        -0.019323
 Sum of electronic and zero-point Energies=           -100.769741
 Sum of electronic and thermal Energies=              -100.766643
 Sum of electronic and thermal Enthalpies=            -100.765699
 Sum of electronic and thermal Free Energies=         -100.790629

                     E (Thermal)             CV                S
                      KCal/Mol        Cal/Mol-Kelvin    Cal/Mol-Kelvin
 Total                    2.926              8.145             52.469
 Electronic               0.000              0.000              1.377
 Translational            0.889              2.981             35.068
 Rotational               0.592              1.987             13.632
 Vibrational              1.445              3.177              2.392
 Vibration     1          0.722              1.589              1.196
 Vibration     2          0.722              1.589              1.196

 Normal termination of Gaussian 16 at Fri Aug 22 17:54:14 2025.
