 Gaussian 16, Revision C.01,
 Gaussian 16:  ES64L-G16RevC.01  3-Jul-2019

 -----------------------------------------
 # sp b3lyp/6-311g** Force nosymm scf=(qc)
 -----------------------------------------

 -------------------
 Title Card Required
 -------------------
 Symbolic Z-matrix:
 Charge =  0 Multiplicity = 2

                          Input orientation:
 ---------------------------------------------------------------------
 Center     Atomic      Atomic             Coordinates (Angstroms)
 Number     Number       Type             X           Y           Z
 ---------------------------------------------------------------------
      1          1           0        0.000000    0.000000    0.000000
      2          1           0       -1.900000    0.000000    0.000000
      3          9           0        0.900000    0.000000    0.000000
 ---------------------------------------------------------------------

 SCF Done:  E(UB3LYP) =  -100.971783012     a.u. after    5 cycles

 Alpha  occ. eigenvalues --  -24.63658  -1.18808  -0.53970  -0.39380  -0.39380
 Alpha  occ. eigenvalues --   -0.36086
 Alpha virt. eigenvalues --    0.07303   0.23724   0.38202   0.94564   0.94564
 Alpha virt. eigenvalues --    0.97860   1.14938   1.20984   1.20984   1.37940
 Alpha virt. eigenvalues --    1.37940   1.52125   1.95644   2.23103   2.38756

  Beta  occ. eigenvalues --  -24.63582  -1.18614  -0.53532  -0.39315  -0.39315
  Beta virt. eigenvalues --   -0.12320   0.09348   0.33390   0.39085   0.94581
  Beta virt. eigenvalues --    0.94581   0.98238   1.24422   1.35896   1.35896
  Beta virt. eigenvalues --    1.42287   1.42287   1.59517   2.02064   2.34327

 Mulliken charges and spin densities:
               1          2
     1  H    0.279945   0.007749
     2  H    0.016388   0.973040
     3  F   -0.296333   0.019211
 Sum of Mulliken charges =   0.00000   1.00000

 Dipole moment (field-independent basis, Debye):
    X=             -2.0505    Y=             -0.0000    Z=              0.0000  Tot=              2.0505
 Quadrupole moment (field-independent basis, Debye-Ang):
   XX=             -7.5059   YY=             -6.8188   ZZ=             -6.8188
   XY=             -0.0000   XZ=              0.0000   YZ=              0.0000

  Exact polarizability:       9.260      -0.000       2.493      -0.000      -0.000       2.493
 Approx polarizability:       9.693      -0.000       2.483       0.000      -0.000       2.483

 ******    2 imaginary frequencies (negative Signs) ******

                      1                      2                      3
                      A                      A                      A
 Frequencies --   -650.9672              -650.9672               271.3762
 Red. masses --      1.0289                 1.0289                 1.0528
 Frc consts  --      0.2569                 0.2569                 0.0457
 IR Inten    --    142.4369               142.4369                 1.2584

                      4
                      A
 Frequencies --   4395.5989
 Red. masses --      1.0588
 Frc consts  --     12.0526
 IR Inten    --    185.6803

 - Thermochemistry -
 -------------------
 Temperature   298.150 Kelvin.  Pressure   1.00000 Atm.
 Atom     1 has atomic number  1 and mass   1.00783

 Molecular mass:    21.01405 amu.
 Principal axes and moments of inertia in atomic units:
                           1         2         3
     Eigenvalues --     0.00000  28.76844  28.76844
           X            1.00000  -0.00000   0.00000
           Y            0.00000   1.00000   0.00000
           Z            0.00000   0.00000   1.00000
 This molecule is a prolate symmetric top.
 Rotational symmetry number  1.
 Rotational temperature (Kelvin)      3.01073
 Rotational constant (GHZ):          62.733381
    2 imaginary frequencies ignored.
 Zero-point vibrational energy      27914.7 (Joules/Mol)
                                    6.67178 (Kcal/Mol)
 Warning -- explicit consideration of   1 degrees of freedom as
           vibrations may cause significant error
 Vibrational temperatures:    390.45  6324.29
          (Kelvin)

 Zero-point correction=                           0.010632 (Hartree/Particle)
 Thermal correction to Energy=                    0.013450
 Thermal correction to Enthalpy=                  0.014394
 Thermal correction to Gibbs Free Energy=        -0.008960
 Sum of electronic and zero-point Energies=           -100.961151
 Sum of electronic and thermal Energies=              -100.958333
 Sum of electronic and thermal Enthalpies=            -100.957389
 Sum of electronic and thermal Free Energies=         -100.980743

                     E (Thermal)             CV                S
                      KCal/Mol        Cal/Mol-Kelvin    Cal/Mol-Kelvin
 Total                    8.440              6.694             49.152
 Electronic               0.000              0.000              1.377
 Translational            0.889              2.981             35.068
 Rotational               0.592              1.987             11.119
 Vibrational              6.959              1.726              1.587
 Vibration     1          0.675              1.726              1.587

 Normal termination of Gaussian 16 at Fri Aug 22 15:55:45 2025.
