 Gaussian 16, Revision C.01,
 Gaussian 16:  ES64L-G16RevC.01  3-Jul-2019

 -----------------------------------------
 # sp b3lyp/6-311g** Force nosymm scf=(qc)
 -----------------------------------------

 -------------------
 Title Card Required
 -------------------
 Symbolic Z-matrix:
 Charge =  0 Multiplicity = 2

                          Input orientation:
 ---------------------------------------------------------------------
 Center     Atomic      Atomic             Coordinates (Angstroms)
 Number     Number       Type             X           Y           Z
 ---------------------------------------------------------------------
      1          1           0        0.000000    0.000000    0.000000
      2          1           0       -0.650000    0.000000    0.000000
      3          9           0        0.600000    0.000000    0.000000
 ---------------------------------------------------------------------

 SCF Done:  E(UB3LYP) =  -100.512743256     a.u. after    6 cycles

 Alpha  occ. eigenvalues --  -24.69076  -1.46061  -0.72728  -0.49028  -0.49028
 Alpha  occ. eigenvalues --   -0.27369
 Alpha virt. eigenvalues --    0.16751   0.19289   0.83600   0.84005   0.84005
 Alpha virt. eigenvalues --    0.94802   1.11096   1.11096   1.41358   1.57960
 Alpha virt. eigenvalues --    1.97228   1.97228   2.13416   3.29099   3.71982

  Beta  occ. eigenvalues --  -24.68284  -1.43401  -0.69662  -0.48371  -0.48371
  Beta virt. eigenvalues --   -0.08750   0.17362   0.25280   0.85213   0.85561
  Beta virt. eigenvalues --    0.85561   0.99611   1.16830   1.16830   1.44135
  Beta virt. eigenvalues --    1.62563   2.02879   2.02879   2.21164   3.36399

 Mulliken charges and spin densities:
               1          2
     1  H    0.270241  -0.079341
     2  H   -0.153506   1.000044
     3  F   -0.116735   0.079297
 Sum of Mulliken charges =   0.00000   1.00000

 Dipole moment (field-independent basis, Debye):
    X=             -0.2905    Y=              0.0000    Z=             -0.0000  Tot=              0.2905
 Quadrupole moment (field-independent basis, Debye-Ang):
   XX=             -7.5734   YY=             -6.4445   ZZ=             -6.4445
   XY=              0.0000   XZ=             -0.0000   YZ=              0.0000

  Exact polarizability:       7.782      -0.000       2.437       0.000      -0.000       2.437
 Approx polarizability:       7.532       0.000       2.541       0.000      -0.000       2.541

 ******    2 imaginary frequencies (negative Signs) ******

                      1                      2                      3
                      A                      A                      A
 Frequencies --  -6352.3822             -6352.3822              4624.8684
 Red. masses --      1.0189                 1.0189                 1.0635
 Frc consts  --     24.2256                24.2256                13.4028
 IR Inten    --    157.5612               157.5612               397.2944

                      4
                      A
 Frequencies --  13511.1123
 Red. masses --      1.0481
 Frc consts  --    112.7325
 IR Inten    --     19.4199

 - Thermochemistry -
 -------------------
 Temperature   298.150 Kelvin.  Pressure   1.00000 Atm.
 Atom     1 has atomic number  1 and mass   1.00783

 Molecular mass:    21.01405 amu.
 Principal axes and moments of inertia in atomic units:
                           1         2         3
     Eigenvalues --     0.00000   6.32835   6.32835
           X            1.00000  -0.00000   0.00000
           Y            0.00000   1.00000   0.00000
           Z            0.00000   0.00000   1.00000
 This molecule is a prolate symmetric top.
 Rotational symmetry number  1.
 Rotational temperature (Kelvin)     13.68666
 Rotational constant (GHZ):         285.183678
    2 imaginary frequencies ignored.
 Zero-point vibrational energy     108477.3 (Joules/Mol)
                                   25.92669 (Kcal/Mol)
 Vibrational temperatures:   6654.15 19439.48
          (Kelvin)

 Zero-point correction=                           0.041317 (Hartree/Particle)
 Thermal correction to Energy=                    0.043677
 Thermal correction to Enthalpy=                  0.044621
 Thermal correction to Gibbs Free Energy=         0.023452
 Sum of electronic and zero-point Energies=           -100.471426
 Sum of electronic and thermal Energies=              -100.469066
 Sum of electronic and thermal Enthalpies=            -100.468122
 Sum of electronic and thermal Free Energies=         -100.489292

                     E (Thermal)             CV                S
                      KCal/Mol        Cal/Mol-Kelvin    Cal/Mol-Kelvin
 Total                   27.408              4.968             44.556
 Electronic               0.000              0.000              1.377
 Translational            0.889              2.981             35.068
 Rotational               0.592              1.987              8.110
 Vibrational             25.927              0.000              0.000

 Normal termination of Gaussian 16 at Fri Aug 22 15:40:45 2025.
