 Gaussian 16, Revision C.01,
 Gaussian 16:  ES64L-G16RevC.01  3-Jul-2019

 -----------------------------------------
 # sp b3lyp/6-311g** Force nosymm scf=(qc)
 -----------------------------------------

 -------------------
 Title Card Required
 -------------------
 Symbolic Z-matrix:
 Charge =  0 Multiplicity = 2

                          Input orientation:
 ---------------------------------------------------------------------
 Center     Atomic      Atomic             Coordinates (Angstroms)
 Number     Number       Type             X           Y           Z
 ---------------------------------------------------------------------
      1          1           0        0.000000    0.000000    0.000000
      2          1           0       -3.300000    0.000000    0.000000
      3          9           0        3.350000    0.000000    0.000000
 ---------------------------------------------------------------------

 SCF Done:  E(UB3LYP) =  -100.759713388     a.u. after   24 cycles

 Alpha  occ. eigenvalues --  -24.75100  -1.21084  -0.54221  -0.45525  -0.45525
 Alpha  occ. eigenvalues --   -0.32425
 Alpha virt. eigenvalues --   -0.07604   0.24443   0.36407   0.88115   0.91658
 Alpha virt. eigenvalues --    0.91658   1.02273   1.25089   1.25089   1.25393
 Alpha virt. eigenvalues --    1.44467   1.44486   1.44486   2.15257   2.40517

  Beta  occ. eigenvalues --  -24.72004  -1.12195  -0.42424  -0.42424  -0.33047
  Beta virt. eigenvalues --   -0.25334  -0.06860   0.24227   0.37565   0.93141
  Beta virt. eigenvalues --    0.93141   0.97151   1.06224   1.24367   1.24367
  Beta virt. eigenvalues --    1.24651   1.45432   1.45666   1.45666   2.15589

 Mulliken charges and spin densities:
               1          2
     1  H    0.016571  -0.977876
     2  H    0.000410   0.996541
     3  F   -0.016981   0.981336
 Sum of Mulliken charges =  -0.00000   1.00000

 Dipole moment (field-independent basis, Debye):
    X=             -0.2989    Y=             -0.0000    Z=              0.0000  Tot=              0.2989
 Quadrupole moment (field-independent basis, Debye-Ang):
   XX=             -7.6092   YY=             -7.6234   ZZ=             -7.6234
   XY=              0.0000   XZ=             -0.0000   YZ=             -0.0000

  Exact polarizability:      28.005       0.000       2.030      -0.000       0.000       2.030
 Approx polarizability:      23.522       0.000       1.931      -0.000       0.000       1.931

 ******    2 imaginary frequencies (negative Signs) ******

                      1                      2                      3
                      A                      A                      A
 Frequencies --   -302.3726              -127.9957               101.2455
 Red. masses --      1.0252                 1.0883                 1.0178
 Frc consts  --      0.0552                 0.0105                 0.0061
 IR Inten    --     16.0739                 2.4342                 0.2443

                      4
                      A
 Frequencies --    101.2455
 Red. masses --      1.0178
 Frc consts  --      0.0061
 IR Inten    --      0.2443

 - Thermochemistry -
 -------------------
 Temperature   298.150 Kelvin.  Pressure   1.00000 Atm.
 Atom     1 has atomic number  1 and mass   1.00783

 Molecular mass:    21.01405 amu.
 Principal axes and moments of inertia in atomic units:
                           1         2         3
     Eigenvalues --     0.00000 182.28634 182.28634
           X            1.00000  -0.00000   0.00000
           Y            0.00000   1.00000   0.00000
           Z            0.00000   0.00000   1.00000
 This molecule is a prolate symmetric top.
 Rotational symmetry number  1.
 Rotational temperature (Kelvin)      0.47515
 Rotational constant (GHZ):           9.900584
    2 imaginary frequencies ignored.
 Zero-point vibrational energy       1211.2 (Joules/Mol)
                                    0.28948 (Kcal/Mol)
 Warning -- explicit consideration of   2 degrees of freedom as
           vibrations may cause significant error
 Vibrational temperatures:    145.67   145.67
          (Kelvin)

 Zero-point correction=                           0.000461 (Hartree/Particle)
 Thermal correction to Energy=                    0.004286
 Thermal correction to Enthalpy=                  0.005230
 Thermal correction to Gibbs Free Energy=        -0.022372
 Sum of electronic and zero-point Energies=           -100.759252
 Sum of electronic and thermal Energies=              -100.755427
 Sum of electronic and thermal Enthalpies=            -100.754483
 Sum of electronic and thermal Free Energies=         -100.782085

                     E (Thermal)             CV                S
                      KCal/Mol        Cal/Mol-Kelvin    Cal/Mol-Kelvin
 Total                    2.690              8.864             58.094
 Electronic               0.000              0.000              1.377
 Translational            0.889              2.981             35.068
 Rotational               0.592              1.987             14.788
 Vibrational              1.208              3.896              6.860
 Vibration     1          0.604              1.948              3.430
 Vibration     2          0.604              1.948              3.430

 Normal termination of Gaussian 16 at Fri Aug 22 21:02:58 2025.
