 Gaussian 16, Revision C.01,
 Gaussian 16:  ES64L-G16RevC.01  3-Jul-2019

 -----------------------------------------
 # sp b3lyp/6-311g** Force nosymm scf=(qc)
 -----------------------------------------

 -------------------
 Title Card Required
 -------------------
 Symbolic Z-matrix:
 Charge =  0 Multiplicity = 2

                          Input orientation:
 ---------------------------------------------------------------------
 Center     Atomic      Atomic             Coordinates (Angstroms)
 Number     Number       Type             X           Y           Z
 ---------------------------------------------------------------------
      1          1           0        0.000000    0.000000    0.000000
      2          1           0       -3.650000    0.000000    0.000000
      3          9           0        3.450000    0.000000    0.000000
 ---------------------------------------------------------------------

 SCF Done:  E(UB3LYP) =  -100.759122923     a.u. after   31 cycles

 Alpha  occ. eigenvalues --  -24.75293  -1.21263  -0.54415  -0.45688  -0.45688
 Alpha  occ. eigenvalues --   -0.32335
 Alpha virt. eigenvalues --   -0.06840   0.24168   0.37033   0.87754   0.91539
 Alpha virt. eigenvalues --    0.91539   1.01951   1.25166   1.25166   1.25253
 Alpha virt. eigenvalues --    1.45467   1.45467   1.45640   2.14814   2.41617

  Beta  occ. eigenvalues --  -24.72185  -1.12334  -0.42573  -0.42573  -0.32883
  Beta virt. eigenvalues --   -0.25434  -0.06252   0.23923   0.38070   0.93026
  Beta virt. eigenvalues --    0.93026   0.96853   1.05937   1.24536   1.24536
  Beta virt. eigenvalues --    1.24608   1.46171   1.46378   1.46378   2.15022

 Mulliken charges and spin densities:
               1          2
     1  H    0.013136  -0.983976
     2  H    0.000135   0.998543
     3  F   -0.013271   0.985433
 Sum of Mulliken charges =  -0.00000   1.00000

 Dipole moment (field-independent basis, Debye):
    X=             -0.2378    Y=             -0.0000    Z=             -0.0000  Tot=              0.2378
 Quadrupole moment (field-independent basis, Debye-Ang):
   XX=             -7.4869   YY=             -7.6192   ZZ=             -7.6192
   XY=             -0.0000   XZ=             -0.0000   YZ=              0.0000

  Exact polarizability:      24.538      -0.000       2.034      -0.000      -0.000       2.034
 Approx polarizability:      19.887      -0.000       1.933      -0.000      -0.000       1.933

 ******    2 imaginary frequencies (negative Signs) ******

                      1                      2                      3
                      A                      A                      A
 Frequencies --   -240.3162               -93.6291                73.1979
 Red. masses --      1.0361                 1.0762                 1.0186
 Frc consts  --      0.0353                 0.0056                 0.0032
 IR Inten    --     12.8913                 0.7218                 0.1559

                      4
                      A
 Frequencies --     73.1979
 Red. masses --      1.0186
 Frc consts  --      0.0032
 IR Inten    --      0.1559

 - Thermochemistry -
 -------------------
 Temperature   298.150 Kelvin.  Pressure   1.00000 Atm.
 Atom     1 has atomic number  1 and mass   1.00783

 Molecular mass:    21.01405 amu.
 Principal axes and moments of inertia in atomic units:
                           1         2         3
     Eigenvalues --     0.00000 205.05164 205.05164
           X            1.00000  -0.00000   0.00000
           Y            0.00000   1.00000   0.00000
           Z            0.00000   0.00000   1.00000
 This molecule is a prolate symmetric top.
 Rotational symmetry number  1.
 Rotational temperature (Kelvin)      0.42240
 Rotational constant (GHZ):           8.801399
    2 imaginary frequencies ignored.
 Zero-point vibrational energy        875.6 (Joules/Mol)
                                    0.20928 (Kcal/Mol)
 Warning -- explicit consideration of   2 degrees of freedom as
           vibrations may cause significant error
 Vibrational temperatures:    105.32   105.32
          (Kelvin)

 Zero-point correction=                           0.000334 (Hartree/Particle)
 Thermal correction to Energy=                    0.004268
 Thermal correction to Enthalpy=                  0.005213
 Thermal correction to Gibbs Free Energy=        -0.023105
 Sum of electronic and zero-point Energies=           -100.758789
 Sum of electronic and thermal Energies=              -100.754854
 Sum of electronic and thermal Enthalpies=            -100.753910
 Sum of electronic and thermal Free Energies=         -100.782227

                     E (Thermal)             CV                S
                      KCal/Mol        Cal/Mol-Kelvin    Cal/Mol-Kelvin
 Total                    2.678              8.901             59.598
 Electronic               0.000              0.000              1.377
 Translational            0.889              2.981             35.068
 Rotational               0.592              1.987             15.022
 Vibrational              1.197              3.933              8.131
 Vibration     1          0.599              1.967              4.065
 Vibration     2          0.599              1.967              4.065

 Normal termination of Gaussian 16 at Fri Aug 22 21:43:32 2025.
