 Gaussian 16, Revision C.01,
 Gaussian 16:  ES64L-G16RevC.01  3-Jul-2019

 -----------------------------------------
 # sp b3lyp/6-311g** Force nosymm scf=(qc)
 -----------------------------------------

 -------------------
 Title Card Required
 -------------------
 Symbolic Z-matrix:
 Charge =  0 Multiplicity = 2

                          Input orientation:
 ---------------------------------------------------------------------
 Center     Atomic      Atomic             Coordinates (Angstroms)
 Number     Number       Type             X           Y           Z
 ---------------------------------------------------------------------
      1          1           0        0.000000    0.000000    0.000000
      2          1           0       -3.450000    0.000000    0.000000
      3          9           0        1.400000    0.000000    0.000000
 ---------------------------------------------------------------------

 SCF Done:  E(UB3LYP) =  -100.877348528     a.u. after    7 cycles

 Alpha  occ. eigenvalues --  -24.64360  -1.10273  -0.44555  -0.36701  -0.36701
 Alpha  occ. eigenvalues --   -0.34001
 Alpha virt. eigenvalues --   -0.11857   0.20835   0.27983   0.93123   0.93123
 Alpha virt. eigenvalues --    1.03164   1.15342   1.23513   1.23513   1.23572
 Alpha virt. eigenvalues --    1.32630   1.32630   1.71607   2.13574   2.21273

  Beta  occ. eigenvalues --  -24.64347  -1.10239  -0.44521  -0.36689  -0.36689
  Beta virt. eigenvalues --   -0.12297  -0.06407   0.24050   0.38245   0.93118
  Beta virt. eigenvalues --    0.93118   1.03200   1.15392   1.32581   1.32581
  Beta virt. eigenvalues --    1.45880   1.46354   1.46354   1.71628   2.20864

 Mulliken charges and spin densities:
               1          2
     1  H    0.355764  -0.002219
     2  H    0.001859   0.998004
     3  F   -0.357623   0.004214
 Sum of Mulliken charges =   0.00000   1.00000

 Dipole moment (field-independent basis, Debye):
    X=             -2.5221    Y=             -0.0000    Z=              0.0000  Tot=              2.5221
 Quadrupole moment (field-independent basis, Debye-Ang):
   XX=             -9.5239   YY=             -7.2642   ZZ=             -7.2642
   XY=             -0.0000   XZ=              0.0000   YZ=             -0.0000

  Exact polarizability:      13.468      -0.000       2.234       0.000      -0.000       2.234
 Approx polarizability:      22.686      -0.000       2.168       0.000       0.000       2.168

 ******    2 imaginary frequencies (negative Signs) ******

                      1                      2                      3
                      A                      A                      A
 Frequencies --  -1018.2454               -77.5688              1091.1104
 Red. masses --      1.0573                 1.0542                 1.0314
 Frc consts  --      0.6459                 0.0037                 0.7235
 IR Inten    --     52.7280                 0.1597               125.9244

                      4
                      A
 Frequencies --   1091.1104
 Red. masses --      1.0314
 Frc consts  --      0.7235
 IR Inten    --    125.9244

 - Thermochemistry -
 -------------------
 Temperature   298.150 Kelvin.  Pressure   1.00000 Atm.
 Atom     1 has atomic number  1 and mass   1.00783

 Molecular mass:    21.01405 amu.
 Principal axes and moments of inertia in atomic units:
                           1         2         3
     Eigenvalues --     0.00000  84.96928  84.96928
           X            1.00000  -0.00000   0.00000
           Y            0.00000   1.00000   0.00000
           Z            0.00000   0.00000   1.00000
 This molecule is a prolate symmetric top.
 Rotational symmetry number  1.
 Rotational temperature (Kelvin)      1.01936
 Rotational constant (GHZ):          21.239926
    2 imaginary frequencies ignored.
 Zero-point vibrational energy      13052.6 (Joules/Mol)
                                    3.11964 (Kcal/Mol)
 Vibrational temperatures:   1569.86  1569.86
          (Kelvin)

 Zero-point correction=                           0.004971 (Hartree/Particle)
 Thermal correction to Energy=                    0.007384
 Thermal correction to Enthalpy=                  0.008328
 Thermal correction to Gibbs Free Energy=        -0.015356
 Sum of electronic and zero-point Energies=           -100.872377
 Sum of electronic and thermal Energies=              -100.869965
 Sum of electronic and thermal Enthalpies=            -100.869021
 Sum of electronic and thermal Free Energies=         -100.892704

                     E (Thermal)             CV                S
                      KCal/Mol        Cal/Mol-Kelvin    Cal/Mol-Kelvin
 Total                    4.633              5.543             49.846
 Electronic               0.000              0.000              1.377
 Translational            0.889              2.981             35.068
 Rotational               0.592              1.987             13.271
 Vibrational              3.152              0.575              0.129

 Normal termination of Gaussian 16 at Fri Aug 22 16:21:10 2025.
