 Gaussian 16, Revision C.01,
 Gaussian 16:  ES64L-G16RevC.01  3-Jul-2019

 -----------------------------------------
 # sp b3lyp/6-311g** Force nosymm scf=(qc)
 -----------------------------------------

 -------------------
 Title Card Required
 -------------------
 Symbolic Z-matrix:
 Charge =  0 Multiplicity = 2

                          Input orientation:
 ---------------------------------------------------------------------
 Center     Atomic      Atomic             Coordinates (Angstroms)
 Number     Number       Type             X           Y           Z
 ---------------------------------------------------------------------
      1          1           0        0.000000    0.000000    0.000000
      2          1           0       -2.300000    0.000000    0.000000
      3          9           0        2.300000    0.000000    0.000000
 ---------------------------------------------------------------------

 SCF Done:  E(UB3LYP) =  -100.779077165     a.u. after   21 cycles

 Alpha  occ. eigenvalues --  -24.70427  -1.16699  -0.49504  -0.41594  -0.41594
 Alpha  occ. eigenvalues --   -0.34627
 Alpha virt. eigenvalues --   -0.12980   0.24637   0.32334   0.89355   0.94284
 Alpha virt. eigenvalues --    0.94284   1.06502   1.23129   1.23129   1.27187
 Alpha virt. eigenvalues --    1.35892   1.35892   1.47052   2.12997   2.31266

  Beta  occ. eigenvalues --  -24.67715  -1.09019  -0.38899  -0.38899  -0.36064
  Beta virt. eigenvalues --   -0.22563  -0.10606   0.26111   0.33669   0.94491
  Beta virt. eigenvalues --    0.95513   0.95513   1.09099   1.22123   1.22123
  Beta virt. eigenvalues --    1.36976   1.39653   1.39653   1.43267   2.12769

 Mulliken charges and spin densities:
               1          2
     1  H    0.100730  -0.802990
     2  H    0.021050   0.947858
     3  F   -0.121780   0.855133
 Sum of Mulliken charges =   0.00000   1.00000

 Dipole moment (field-independent basis, Debye):
    X=             -1.6450    Y=              0.0000    Z=              0.0000  Tot=              1.6450
 Quadrupole moment (field-independent basis, Debye-Ang):
   XX=             -8.8823   YY=             -7.5984   ZZ=             -7.5984
   XY=              0.0000   XZ=              0.0000   YZ=             -0.0000

  Exact polarizability:      47.379       0.000       2.022       0.000       0.000       2.022
 Approx polarizability:      51.963       0.000       1.925       0.000       0.000       1.925

 ******    2 imaginary frequencies (negative Signs) ******

                      1                      2                      3
                      A                      A                      A
 Frequencies --  -1055.1363              -427.1089               429.2934
 Red. masses --      1.0193                 1.0950                 1.0179
 Frc consts  --      0.6686                 0.1177                 0.1105
 IR Inten    --     60.7011                36.8113                 7.6330

                      4
                      A
 Frequencies --    429.2934
 Red. masses --      1.0179
 Frc consts  --      0.1105
 IR Inten    --      7.6330

 - Thermochemistry -
 -------------------
 Temperature   298.150 Kelvin.  Pressure   1.00000 Atm.
 Atom     1 has atomic number  1 and mass   1.00783

 Molecular mass:    21.01405 amu.
 Principal axes and moments of inertia in atomic units:
                           1         2         3
     Eigenvalues --     0.00000  86.97596  86.97596
           X            1.00000  -0.00000   0.00000
           Y            0.00000   1.00000   0.00000
           Z            0.00000   0.00000   1.00000
 This molecule is a prolate symmetric top.
 Rotational symmetry number  1.
 Rotational temperature (Kelvin)      0.99584
 Rotational constant (GHZ):          20.749885
    2 imaginary frequencies ignored.
 Zero-point vibrational energy       5135.5 (Joules/Mol)
                                    1.22741 (Kcal/Mol)
 Warning -- explicit consideration of   2 degrees of freedom as
           vibrations may cause significant error
 Vibrational temperatures:    617.66   617.66
          (Kelvin)

 Zero-point correction=                           0.001956 (Hartree/Particle)
 Thermal correction to Energy=                    0.004880
 Thermal correction to Enthalpy=                  0.005825
 Thermal correction to Gibbs Free Energy=        -0.018638
 Sum of electronic and zero-point Energies=           -100.777121
 Sum of electronic and thermal Energies=              -100.774197
 Sum of electronic and thermal Enthalpies=            -100.773253
 Sum of electronic and thermal Free Energies=         -100.797715

                     E (Thermal)             CV                S
                      KCal/Mol        Cal/Mol-Kelvin    Cal/Mol-Kelvin
 Total                    3.062              7.781             51.485
 Electronic               0.000              0.000              1.377
 Translational            0.889              2.981             35.068
 Rotational               0.592              1.987             13.318
 Vibrational              1.581              2.813              1.722
 Vibration     1          0.791              1.406              0.861
 Vibration     2          0.791              1.406              0.861

 Normal termination of Gaussian 16 at Fri Aug 22 17:22:11 2025.
