 Gaussian 16, Revision C.01,
 Gaussian 16:  ES64L-G16RevC.01  3-Jul-2019

 -----------------------------------------
 # sp b3lyp/6-311g** Force nosymm scf=(qc)
 -----------------------------------------

 -------------------
 Title Card Required
 -------------------
 Symbolic Z-matrix:
 Charge =  0 Multiplicity = 2

                          Input orientation:
 ---------------------------------------------------------------------
 Center     Atomic      Atomic             Coordinates (Angstroms)
 Number     Number       Type             X           Y           Z
 ---------------------------------------------------------------------
      1          1           0        0.000000    0.000000    0.000000
      2          1           0       -1.600000    0.000000    0.000000
      3          9           0        2.800000    0.000000    0.000000
 ---------------------------------------------------------------------

 SCF Done:  E(UB3LYP) =  -100.808082619     a.u. after   27 cycles

 Alpha  occ. eigenvalues --  -24.74333  -1.20376  -0.53471  -0.44893  -0.44893
 Alpha  occ. eigenvalues --   -0.34758
 Alpha virt. eigenvalues --   -0.11264   0.24513   0.30377   0.89992   0.92081
 Alpha virt. eigenvalues --    0.92081   1.04039   1.07677   1.20879   1.20879
 Alpha virt. eigenvalues --    1.38121   1.38121   1.73367   2.17984   2.44121

  Beta  occ. eigenvalues --  -24.71308  -1.11708  -0.41866  -0.41866  -0.34483
  Beta virt. eigenvalues --   -0.25185  -0.10858   0.25341   0.30469   0.93534
  Beta virt. eigenvalues --    0.93534   0.98081   1.05659   1.10880   1.21207
  Beta virt. eigenvalues --    1.21207   1.38457   1.38457   1.73866   2.18916

 Mulliken charges and spin densities:
               1          2
     1  H    0.009048  -0.459569
     2  H    0.026314   0.501658
     3  F   -0.035362   0.957911
 Sum of Mulliken charges =  -0.00000   1.00000

 Dipole moment (field-independent basis, Debye):
    X=             -0.7052    Y=             -0.0000    Z=              0.0000  Tot=              0.7052
 Quadrupole moment (field-independent basis, Debye-Ang):
   XX=             -6.7090   YY=             -7.7263   ZZ=             -7.7263
   XY=             -0.0000   XZ=              0.0000   YZ=              0.0000

  Exact polarizability:      59.818      -0.000       2.029       0.000       0.000       2.029
 Approx polarizability:      74.420      -0.000       1.998       0.000      -0.000       1.998

 ******    2 imaginary frequencies (negative Signs) ******

                      1                      2                      3
                      A                      A                      A
 Frequencies --  -2054.4652              -251.3312              1025.6897
 Red. masses --      1.0080                 1.1083                 1.0126
 Frc consts  --      2.5067                 0.0412                 0.6276
 IR Inten    --    260.5265                30.0529                 0.0020

                      4
                      A
 Frequencies --   1025.6897
 Red. masses --      1.0126
 Frc consts  --      0.6276
 IR Inten    --      0.0020

 - Thermochemistry -
 -------------------
 Temperature   298.150 Kelvin.  Pressure   1.00000 Atm.
 Atom     1 has atomic number  1 and mass   1.00783

 Molecular mass:    21.01405 amu.
 Principal axes and moments of inertia in atomic units:
                           1         2         3
     Eigenvalues --     0.00000  88.94509  88.94509
           X            1.00000  -0.00000   0.00000
           Y            0.00000   1.00000   0.00000
           Z            0.00000   0.00000   1.00000
 This molecule is a prolate symmetric top.
 Rotational symmetry number  1.
 Rotational temperature (Kelvin)      0.97379
 Rotational constant (GHZ):          20.290510
    2 imaginary frequencies ignored.
 Zero-point vibrational energy      12270.0 (Joules/Mol)
                                    2.93259 (Kcal/Mol)
 Vibrational temperatures:   1475.74  1475.74
          (Kelvin)

 Zero-point correction=                           0.004673 (Hartree/Particle)
 Thermal correction to Energy=                    0.007101
 Thermal correction to Enthalpy=                  0.008045
 Thermal correction to Gibbs Free Energy=        -0.015701
 Sum of electronic and zero-point Energies=           -100.803409
 Sum of electronic and thermal Energies=              -100.800982
 Sum of electronic and thermal Enthalpies=            -100.800038
 Sum of electronic and thermal Free Energies=         -100.823783

                     E (Thermal)             CV                S
                      KCal/Mol        Cal/Mol-Kelvin    Cal/Mol-Kelvin
 Total                    4.456              5.668             49.976
 Electronic               0.000              0.000              1.377
 Translational            0.889              2.981             35.068
 Rotational               0.592              1.987             13.362
 Vibrational              2.974              0.700              0.169

 Normal termination of Gaussian 16 at Fri Aug 22 18:42:29 2025.
