 Gaussian 16, Revision C.01,
 Gaussian 16:  ES64L-G16RevC.01  3-Jul-2019

 -----------------------------------------
 # sp b3lyp/6-311g** Force nosymm scf=(qc)
 -----------------------------------------

 -------------------
 Title Card Required
 -------------------
 Symbolic Z-matrix:
 Charge =  0 Multiplicity = 2

                          Input orientation:
 ---------------------------------------------------------------------
 Center     Atomic      Atomic             Coordinates (Angstroms)
 Number     Number       Type             X           Y           Z
 ---------------------------------------------------------------------
      1          1           0        0.000000    0.000000    0.000000
      2          1           0       -0.600000    0.000000    0.000000
      3          9           0        3.250000    0.000000    0.000000
 ---------------------------------------------------------------------

 SCF Done:  E(UB3LYP) =  -100.914996749     a.u. after   41 cycles

 Alpha  occ. eigenvalues --  -24.76460  -1.22285  -0.55483  -0.46888  -0.46634
 Alpha  occ. eigenvalues --   -0.46305
 Alpha virt. eigenvalues --    0.08594   0.18948   0.51830   0.85958   0.90832
 Alpha virt. eigenvalues --    0.93768   1.04168   1.10283   1.10288   1.61003
 Alpha virt. eigenvalues --    1.83182   1.92830   1.92836   2.37346   3.64758

  Beta  occ. eigenvalues --  -24.73300  -1.13201  -0.46541  -0.43480  -0.43466
  Beta virt. eigenvalues --   -0.26112   0.08633   0.18969   0.51931   0.92331
  Beta virt. eigenvalues --    0.95418   0.95478   1.07942   1.10282   1.10287
  Beta virt. eigenvalues --    1.61018   1.83222   1.92829   1.92835   2.37349

 Mulliken charges and spin densities:
               1          2
     1  H   -0.005332  -0.001055
     2  H   -0.001799   0.000163
     3  F    0.007131   1.000892
 Sum of Mulliken charges =   0.00000   1.00000

 Dipole moment (field-independent basis, Debye):
    X=              0.0698    Y=              0.0000    Z=             -0.0000  Tot=              0.0698
 Quadrupole moment (field-independent basis, Debye-Ang):
   XX=             -6.0640   YY=             -6.5694   ZZ=             -6.0528
   XY=             -0.0000   XZ=              0.0000   YZ=             -0.3462

  Exact polarizability:       6.671      -0.000       1.963       0.000      -0.185       2.240
 Approx polarizability:       7.207      -0.000       2.069       0.000      -0.232       2.415

 ******    2 imaginary frequencies (negative Signs) ******

                      1                      2                      3
                      A                      A                      A
 Frequencies --  -2758.9006             -2758.4590                48.6288
 Red. masses --      1.0085                 1.0085                 1.1085
 Frc consts  --      4.5229                 4.5214                 0.0015
 IR Inten    --      0.0181                 0.0166                 0.1538

                      4
                      A
 Frequencies --   7042.2942
 Red. masses --      1.0078
 Frc consts  --     29.4485
 IR Inten    --      0.1168

 - Thermochemistry -
 -------------------
 Temperature   298.150 Kelvin.  Pressure   1.00000 Atm.
 Atom     1 has atomic number  1 and mass   1.00783

 Molecular mass:    21.01405 amu.
 Principal axes and moments of inertia in atomic units:
                           1         2         3
     Eigenvalues --     0.00000  82.65972  82.65972
           X            1.00000  -0.00000   0.00000
           Y            0.00000   1.00000   0.00000
           Z            0.00000   0.00000   1.00000
 This molecule is a prolate symmetric top.
 Rotational symmetry number  1.
 Rotational temperature (Kelvin)      1.04784
 Rotational constant (GHZ):          21.833382
    2 imaginary frequencies ignored.
 Zero-point vibrational energy      42413.1 (Joules/Mol)
                                   10.13698 (Kcal/Mol)
 Warning -- explicit consideration of   1 degrees of freedom as
           vibrations may cause significant error
 Vibrational temperatures:     69.97 10132.29
          (Kelvin)

 Zero-point correction=                           0.016154 (Hartree/Particle)
 Thermal correction to Energy=                    0.019353
 Thermal correction to Enthalpy=                  0.020297
 Thermal correction to Gibbs Free Energy=        -0.005614
 Sum of electronic and zero-point Energies=           -100.898842
 Sum of electronic and thermal Energies=              -100.895644
 Sum of electronic and thermal Enthalpies=            -100.894700
 Sum of electronic and thermal Free Energies=         -100.920611

                     E (Thermal)             CV                S
                      KCal/Mol        Cal/Mol-Kelvin    Cal/Mol-Kelvin
 Total                   12.144              6.946             54.534
 Electronic               0.000              0.000              1.377
 Translational            0.889              2.981             35.068
 Rotational               0.592              1.987             13.217
 Vibrational             10.663              1.978              4.872
 Vibration     1          0.595              1.978              4.872

 Normal termination of Gaussian 16 at Fri Aug 22 20:26:16 2025.
