 Gaussian 16, Revision C.01,
 Gaussian 16:  ES64L-G16RevC.01  3-Jul-2019

 -----------------------------------------
 # sp b3lyp/6-311g** Force nosymm scf=(qc)
 -----------------------------------------

 -------------------
 Title Card Required
 -------------------
 Symbolic Z-matrix:
 Charge =  0 Multiplicity = 2

                          Input orientation:
 ---------------------------------------------------------------------
 Center     Atomic      Atomic             Coordinates (Angstroms)
 Number     Number       Type             X           Y           Z
 ---------------------------------------------------------------------
      1          1           0        0.000000    0.000000    0.000000
      2          1           0       -1.750000    0.000000    0.000000
      3          9           0        3.250000    0.000000    0.000000
 ---------------------------------------------------------------------

 SCF Done:  E(UB3LYP) =  -100.790754608     a.u. after   33 cycles

 Alpha  occ. eigenvalues --  -24.75347  -1.21314  -0.54471  -0.45742  -0.45742
 Alpha  occ. eigenvalues --   -0.33661
 Alpha virt. eigenvalues --   -0.11313   0.25430   0.30576   0.88539   0.91477
 Alpha virt. eigenvalues --    0.91477   1.02551   1.08039   1.23644   1.23644
 Alpha virt. eigenvalues --    1.37183   1.37183   1.63931   2.15251   2.40591

  Beta  occ. eigenvalues --  -24.72246  -1.12408  -0.42635  -0.42635  -0.33612
  Beta virt. eigenvalues --   -0.25578  -0.11099   0.25562   0.30940   0.92961
  Beta virt. eigenvalues --    0.92961   0.97533   1.06516   1.08184   1.23699
  Beta virt. eigenvalues --    1.23699   1.37413   1.37413   1.64195   2.15972

 Mulliken charges and spin densities:
               1          2
     1  H    0.002206  -0.663525
     2  H    0.012104   0.680560
     3  F   -0.014310   0.982965
 Sum of Mulliken charges =   0.00000   1.00000

 Dipole moment (field-independent basis, Debye):
    X=             -0.3380    Y=              0.0000    Z=              0.0000  Tot=              0.3380
 Quadrupole moment (field-independent basis, Debye-Ang):
   XX=             -6.4403   YY=             -7.7529   ZZ=             -7.7529
   XY=              0.0000   XZ=              0.0000   YZ=              0.0000

  Exact polarizability:      52.200      -0.000       1.974      -0.000       0.000       1.974
 Approx polarizability:      55.390       0.000       1.965       0.000      -0.000       1.965

 ******    2 imaginary frequencies (negative Signs) ******

                      1                      2                      3
                      A                      A                      A
 Frequencies --  -1826.6287              -167.6511               829.7459
 Red. masses --      1.0078                 1.1085                 1.0122
 Frc consts  --      1.9813                 0.0184                 0.4106
 IR Inten    --     45.7411                13.4189                 0.0091

                      4
                      A
 Frequencies --    829.7459
 Red. masses --      1.0122
 Frc consts  --      0.4106
 IR Inten    --      0.0091

 - Thermochemistry -
 -------------------
 Temperature   298.150 Kelvin.  Pressure   1.00000 Atm.
 Atom     1 has atomic number  1 and mass   1.00783

 Molecular mass:    21.01405 amu.
 Principal axes and moments of inertia in atomic units:
                           1         2         3
     Eigenvalues --     0.00000 116.24168 116.24168
           X            1.00000  -0.00000   0.00000
           Y            0.00000   1.00000   0.00000
           Z            0.00000   0.00000   1.00000
 This molecule is a prolate symmetric top.
 Rotational symmetry number  1.
 Rotational temperature (Kelvin)      0.74512
 Rotational constant (GHZ):          15.525766
    2 imaginary frequencies ignored.
 Zero-point vibrational energy       9926.0 (Joules/Mol)
                                    2.37236 (Kcal/Mol)
 Vibrational temperatures:   1193.82  1193.82
          (Kelvin)

 Zero-point correction=                           0.003781 (Hartree/Particle)
 Thermal correction to Energy=                    0.006282
 Thermal correction to Enthalpy=                  0.007226
 Thermal correction to Gibbs Free Energy=        -0.016867
 Sum of electronic and zero-point Energies=           -100.786974
 Sum of electronic and thermal Energies=              -100.784473
 Sum of electronic and thermal Enthalpies=            -100.783529
 Sum of electronic and thermal Free Energies=         -100.807622

                     E (Thermal)             CV                S
                      KCal/Mol        Cal/Mol-Kelvin    Cal/Mol-Kelvin
 Total                    3.942              6.174             50.708
 Electronic               0.000              0.000              1.377
 Translational            0.889              2.981             35.068
 Rotational               0.592              1.987             13.894
 Vibrational              2.461              1.206              0.369

 Normal termination of Gaussian 16 at Fri Aug 22 20:34:00 2025.
