 Gaussian 16, Revision C.01,
 Gaussian 16:  ES64L-G16RevC.01  3-Jul-2019

 -----------------------------------------
 # sp b3lyp/6-311g** Force nosymm scf=(qc)
 -----------------------------------------

 -------------------
 Title Card Required
 -------------------
 Symbolic Z-matrix:
 Charge =  0 Multiplicity = 2

                          Input orientation:
 ---------------------------------------------------------------------
 Center     Atomic      Atomic             Coordinates (Angstroms)
 Number     Number       Type             X           Y           Z
 ---------------------------------------------------------------------
      1          1           0        0.000000    0.000000    0.000000
      2          1           0       -0.550000    0.000000    0.000000
      3          9           0        1.250000    0.000000    0.000000
 ---------------------------------------------------------------------

 SCF Done:  E(UB3LYP) =  -100.881163037     a.u. after    7 cycles

 Alpha  occ. eigenvalues --  -24.69894  -1.18831  -0.62857  -0.42470  -0.42470
 Alpha  occ. eigenvalues --   -0.40529
 Alpha virt. eigenvalues --    0.12682   0.19021   0.57842   0.87371   0.87371
 Alpha virt. eigenvalues --    0.95325   1.12973   1.12973   1.50880   1.61064
 Alpha virt. eigenvalues --    1.85257   1.91934   1.91934   2.46823   3.78367

  Beta  occ. eigenvalues --  -24.67386  -1.12251  -0.54675  -0.40103  -0.40103
  Beta virt. eigenvalues --   -0.20430   0.13873   0.19692   0.61236   0.88768
  Beta virt. eigenvalues --    0.88768   1.00736   1.15759   1.15759   1.54332
  Beta virt. eigenvalues --    1.65222   1.86427   1.94043   1.94043   2.51421

 Mulliken charges and spin densities:
               1          2
     1  H    0.216165  -0.015772
     2  H   -0.036014   0.304300
     3  F   -0.180152   0.711472
 Sum of Mulliken charges =   0.00000   1.00000

 Dipole moment (field-independent basis, Debye):
    X=             -1.1400    Y=              0.0000    Z=             -0.0000  Tot=              1.1400
 Quadrupole moment (field-independent basis, Debye-Ang):
   XX=             -6.9597   YY=             -6.4621   ZZ=             -6.4621
   XY=              0.0000   XZ=             -0.0000   YZ=              0.0000

  Exact polarizability:      13.510      -0.000       2.357      -0.000       0.000       2.357
 Approx polarizability:      16.323      -0.000       2.417       0.000      -0.000       2.417

 ******    2 imaginary frequencies (negative Signs) ******

                      1                      2                      3
                      A                      A                      A
 Frequencies --  -3945.6268             -3945.6268              1105.7212
 Red. masses --      1.0110                 1.0110                 1.1085
 Frc consts  --      9.2734                 9.2734                 0.7985
 IR Inten    --      2.2448                 2.2448                34.1665

                      4
                      A
 Frequencies --   8059.8801
 Red. masses --      1.0079
 Frc consts  --     38.5754
 IR Inten    --    419.8963

 - Thermochemistry -
 -------------------
 Temperature   298.150 Kelvin.  Pressure   1.00000 Atm.
 Atom     1 has atomic number  1 and mass   1.00783

 Molecular mass:    21.01405 amu.
 Principal axes and moments of inertia in atomic units:
                           1         2         3
     Eigenvalues --     0.00000  15.67856  15.67856
           X            1.00000  -0.00000   0.00000
           Y            0.00000   1.00000   0.00000
           Z            0.00000   0.00000   1.00000
 This molecule is a prolate symmetric top.
 Rotational symmetry number  1.
 Rotational temperature (Kelvin)      5.52435
 Rotational constant (GHZ):         115.108843
    2 imaginary frequencies ignored.
 Zero-point vibrational energy      54822.5 (Joules/Mol)
                                   13.10288 (Kcal/Mol)
 Vibrational temperatures:   1590.89 11596.37
          (Kelvin)

 Zero-point correction=                           0.020881 (Hartree/Particle)
 Thermal correction to Energy=                    0.023266
 Thermal correction to Enthalpy=                  0.024210
 Thermal correction to Gibbs Free Energy=         0.002154
 Sum of electronic and zero-point Energies=           -100.860282
 Sum of electronic and thermal Energies=              -100.857897
 Sum of electronic and thermal Enthalpies=            -100.856953
 Sum of electronic and thermal Free Energies=         -100.879009

                     E (Thermal)             CV                S
                      KCal/Mol        Cal/Mol-Kelvin    Cal/Mol-Kelvin
 Total                   14.599              5.243             46.419
 Electronic               0.000              0.000              1.377
 Translational            0.889              2.981             35.068
 Rotational               0.592              1.987              9.913
 Vibrational             13.118              0.275              0.061

 Normal termination of Gaussian 16 at Fri Aug 22 16:11:31 2025.
