 Gaussian 16, Revision C.01,
 Gaussian 16:  ES64L-G16RevC.01  3-Jul-2019

 -----------------------------------------
 # sp b3lyp/6-311g** Force nosymm scf=(qc)
 -----------------------------------------

 -------------------
 Title Card Required
 -------------------
 Symbolic Z-matrix:
 Charge =  0 Multiplicity = 2

                          Input orientation:
 ---------------------------------------------------------------------
 Center     Atomic      Atomic             Coordinates (Angstroms)
 Number     Number       Type             X           Y           Z
 ---------------------------------------------------------------------
      1          1           0        0.000000    0.000000    0.000000
      2          1           0       -3.650000    0.000000    0.000000
      3          9           0        2.550000    0.000000    0.000000
 ---------------------------------------------------------------------

 SCF Done:  E(UB3LYP) =  -100.766375342     a.u. after   23 cycles

 Alpha  occ. eigenvalues --  -24.72021  -1.18221  -0.51127  -0.42947  -0.42947
 Alpha  occ. eigenvalues --   -0.32801
 Alpha virt. eigenvalues --   -0.09933   0.23490   0.35429   0.89768   0.93464
 Alpha virt. eigenvalues --    0.93464   1.06127   1.24704   1.24704   1.24793
 Alpha virt. eigenvalues --    1.40983   1.40983   1.44443   2.14347   2.37416

  Beta  occ. eigenvalues --  -24.69153  -1.10053  -0.40087  -0.40087  -0.35157
  Beta virt. eigenvalues --   -0.23521  -0.06479   0.23830   0.38022   0.94846
  Beta virt. eigenvalues --    0.94846   0.96530   1.08613   1.22246   1.22246
  Beta virt. eigenvalues --    1.28361   1.46012   1.46263   1.46263   2.12878

 Mulliken charges and spin densities:
               1          2
     1  H    0.082916  -0.904882
     2  H    0.000571   0.998574
     3  F   -0.083487   0.906308
 Sum of Mulliken charges =  -0.00000   1.00000

 Dipole moment (field-independent basis, Debye):
    X=             -1.0947    Y=              0.0000    Z=             -0.0000  Tot=              1.0947
 Quadrupole moment (field-independent basis, Debye-Ang):
   XX=             -9.2307   YY=             -7.5748   ZZ=             -7.5748
   XY=              0.0000   XZ=             -0.0000   YZ=              0.0000

  Exact polarizability:      30.810       0.000       2.025      -0.000       0.000       2.025
 Approx polarizability:      38.418       0.000       1.921      -0.000      -0.000       1.921

 ******    2 imaginary frequencies (negative Signs) ******

                      1                      2                      3
                      A                      A                      A
 Frequencies --   -584.5985              -102.1782               226.0865
 Red. masses --      1.0550                 1.0565                 1.0228
 Frc consts  --      0.2124                 0.0065                 0.0308
 IR Inten    --     76.1043                 0.1593                 6.6213

                      4
                      A
 Frequencies --    226.0865
 Red. masses --      1.0228
 Frc consts  --      0.0308
 IR Inten    --      6.6213

 - Thermochemistry -
 -------------------
 Temperature   298.150 Kelvin.  Pressure   1.00000 Atm.
 Atom     1 has atomic number  1 and mass   1.00783

 Molecular mass:    21.01405 amu.
 Principal axes and moments of inertia in atomic units:
                           1         2         3
     Eigenvalues --     0.00000 148.53322 148.53322
           X            1.00000  -0.00000   0.00000
           Y            0.00000   1.00000   0.00000
           Z            0.00000   0.00000   1.00000
 This molecule is a prolate symmetric top.
 Rotational symmetry number  1.
 Rotational temperature (Kelvin)      0.58313
 Rotational constant (GHZ):          12.150421
    2 imaginary frequencies ignored.
 Zero-point vibrational energy       2704.6 (Joules/Mol)
                                    0.64641 (Kcal/Mol)
 Warning -- explicit consideration of   2 degrees of freedom as
           vibrations may cause significant error
 Vibrational temperatures:    325.29   325.29
          (Kelvin)

 Zero-point correction=                           0.001030 (Hartree/Particle)
 Thermal correction to Energy=                    0.004433
 Thermal correction to Enthalpy=                  0.005377
 Thermal correction to Gibbs Free Energy=        -0.020588
 Sum of electronic and zero-point Energies=           -100.765345
 Sum of electronic and thermal Energies=              -100.761943
 Sum of electronic and thermal Enthalpies=            -100.760999
 Sum of electronic and thermal Free Energies=         -100.786963

                     E (Thermal)             CV                S
                      KCal/Mol        Cal/Mol-Kelvin    Cal/Mol-Kelvin
 Total                    2.781              8.571             54.646
 Electronic               0.000              0.000              1.377
 Translational            0.889              2.981             35.068
 Rotational               0.592              1.987             14.381
 Vibrational              1.300              3.603              3.820
 Vibration     1          0.650              1.801              1.910
 Vibration     2          0.650              1.801              1.910

 Normal termination of Gaussian 16 at Fri Aug 22 17:55:27 2025.
