 Gaussian 16, Revision C.01,
 Gaussian 16:  ES64L-G16RevC.01  3-Jul-2019

 -----------------------------------------
 # sp b3lyp/6-311g** Force nosymm scf=(qc)
 -----------------------------------------

 -------------------
 Title Card Required
 -------------------
 Symbolic Z-matrix:
 Charge =  0 Multiplicity = 2

                          Input orientation:
 ---------------------------------------------------------------------
 Center     Atomic      Atomic             Coordinates (Angstroms)
 Number     Number       Type             X           Y           Z
 ---------------------------------------------------------------------
      1          1           0        0.000000    0.000000    0.000000
      2          1           0       -0.700000    0.000000    0.000000
      3          9           0        0.800000    0.000000    0.000000
 ---------------------------------------------------------------------

 SCF Done:  E(UB3LYP) =  -100.852359628     a.u. after    6 cycles

 Alpha  occ. eigenvalues --  -24.66976  -1.28623  -0.67304  -0.43859  -0.43859
 Alpha  occ. eigenvalues --   -0.31862
 Alpha virt. eigenvalues --    0.16280   0.17756   0.72390   0.86486   0.86486
 Alpha virt. eigenvalues --    0.93398   1.10003   1.10003   1.43290   1.72448
 Alpha virt. eigenvalues --    1.82078   1.82078   2.03198   2.63908   3.77073

  Beta  occ. eigenvalues --  -24.65892  -1.25656  -0.61807  -0.42913  -0.42913
  Beta virt. eigenvalues --   -0.13605   0.17592   0.21126   0.77353   0.88526
  Beta virt. eigenvalues --    0.88526   0.95759   1.14910   1.14910   1.45394
  Beta virt. eigenvalues --    1.79633   1.87277   1.87277   2.07449   2.71123

 Mulliken charges and spin densities:
               1          2
     1  H    0.269221  -0.030710
     2  H   -0.073419   0.812788
     3  F   -0.195802   0.217922
 Sum of Mulliken charges =   0.00000   1.00000

 Dipole moment (field-independent basis, Debye):
    X=             -1.0772    Y=             -0.0000    Z=              0.0000  Tot=              1.0772
 Quadrupole moment (field-independent basis, Debye-Ang):
   XX=             -7.4986   YY=             -6.4598   ZZ=             -6.4598
   XY=              0.0000   XZ=              0.0000   YZ=              0.0000

  Exact polarizability:       9.984      -0.000       2.527       0.000      -0.000       2.527
 Approx polarizability:      10.624       0.000       2.606      -0.000      -0.000       2.606

 ******    2 imaginary frequencies (negative Signs) ******

                      1                      2                      3
                      A                      A                      A
 Frequencies --  -3308.0176             -3308.0176              3535.8683
 Red. masses --      1.0164                 1.0164                 1.0824
 Frc consts  --      6.5532                 6.5532                 7.9733
 IR Inten    --     79.5775                79.5775               183.7728

                      4
                      A
 Frequencies --   6765.2966
 Red. masses --      1.0304
 Frc consts  --     27.7863
 IR Inten    --     12.4488

 - Thermochemistry -
 -------------------
 Temperature   298.150 Kelvin.  Pressure   1.00000 Atm.
 Atom     1 has atomic number  1 and mass   1.00783

 Molecular mass:    21.01405 amu.
 Principal axes and moments of inertia in atomic units:
                           1         2         3
     Eigenvalues --     0.00000   9.48804   9.48804
           X            1.00000  -0.00000   0.00000
           Y            0.00000   1.00000   0.00000
           Z            0.00000   0.00000   1.00000
 This molecule is a prolate symmetric top.
 Rotational symmetry number  1.
 Rotational temperature (Kelvin)      9.12874
 Rotational constant (GHZ):         190.212143
    2 imaginary frequencies ignored.
 Zero-point vibrational energy      61614.6 (Joules/Mol)
                                   14.72625 (Kcal/Mol)
 Vibrational temperatures:   5087.33  9733.75
          (Kelvin)

 Zero-point correction=                           0.023468 (Hartree/Particle)
 Thermal correction to Energy=                    0.025828
 Thermal correction to Enthalpy=                  0.026772
 Thermal correction to Gibbs Free Energy=         0.005220
 Sum of electronic and zero-point Energies=           -100.828892
 Sum of electronic and thermal Energies=              -100.826531
 Sum of electronic and thermal Enthalpies=            -100.825587
 Sum of electronic and thermal Free Energies=         -100.847139

                     E (Thermal)             CV                S
                      KCal/Mol        Cal/Mol-Kelvin    Cal/Mol-Kelvin
 Total                   16.207              4.968             45.360
 Electronic               0.000              0.000              1.377
 Translational            0.889              2.981             35.068
 Rotational               0.592              1.987              8.915
 Vibrational             14.726              0.000              0.000

 Normal termination of Gaussian 16 at Fri Aug 22 15:50:11 2025.
