 Gaussian 16, Revision C.01,
 Gaussian 16:  ES64L-G16RevC.01  3-Jul-2019

 -----------------------------------------
 # sp b3lyp/6-311g** Force nosymm scf=(qc)
 -----------------------------------------

 -------------------
 Title Card Required
 -------------------
 Symbolic Z-matrix:
 Charge =  0 Multiplicity = 2

                          Input orientation:
 ---------------------------------------------------------------------
 Center     Atomic      Atomic             Coordinates (Angstroms)
 Number     Number       Type             X           Y           Z
 ---------------------------------------------------------------------
      1          1           0        0.000000    0.000000    0.000000
      2          1           0       -0.500000    0.000000    0.000000
      3          9           0        3.100000    0.000000    0.000000
 ---------------------------------------------------------------------

 SCF Done:  E(UB3LYP) =  -100.862120711     a.u. after   50 cycles

 Alpha  occ. eigenvalues --  -24.76514  -1.22321  -0.55517  -0.49224  -0.46670
 Alpha  occ. eigenvalues --   -0.46667
 Alpha virt. eigenvalues --    0.10261   0.18431   0.56135   0.85940   0.90813
 Alpha virt. eigenvalues --    0.94018   1.06402   1.12152   1.12159   1.61938
 Alpha virt. eigenvalues --    1.86221   1.99686   1.99694   2.36626   3.64739

  Beta  occ. eigenvalues --  -24.73353  -1.13234  -0.49199  -0.43521  -0.43497
  Beta virt. eigenvalues --   -0.26141   0.10319   0.18463   0.56261   0.92312
  Beta virt. eigenvalues --    0.95399   0.95867   1.09991   1.12152   1.12158
  Beta virt. eigenvalues --    1.61964   1.86260   1.99685   1.99693   2.36629

 Mulliken charges and spin densities:
               1          2
     1  H   -0.008606  -0.001643
     2  H   -0.000598   0.000418
     3  F    0.009204   1.001225
 Sum of Mulliken charges =   0.00000   1.00000

 Dipole moment (field-independent basis, Debye):
    X=              0.0816    Y=             -0.0000    Z=              0.0000  Tot=              0.0816
 Quadrupole moment (field-independent basis, Debye-Ang):
   XX=             -5.9808   YY=             -6.4015   ZZ=             -5.9247
   XY=             -0.0000   XZ=              0.0000   YZ=             -0.3601

  Exact polarizability:       5.768      -0.000       1.908      -0.000      -0.192       2.163
 Approx polarizability:       6.038       0.000       2.016      -0.000      -0.241       2.335

 ******    2 imaginary frequencies (negative Signs) ******

                      1                      2                      3
                      A                      A                      A
 Frequencies --  -4824.8006             -4824.6068                60.4335
 Red. masses --      1.0084                 1.0084                 1.1085
 Frc consts  --     13.8304                13.8293                 0.0024
 IR Inten    --      0.0577                 0.0569                 0.1410

                      4
                      A
 Frequencies --   9960.3900
 Red. masses --      1.0078
 Frc consts  --     58.9099
 IR Inten    --      0.1890

 - Thermochemistry -
 -------------------
 Temperature   298.150 Kelvin.  Pressure   1.00000 Atm.
 Atom     1 has atomic number  1 and mass   1.00783

 Molecular mass:    21.01405 amu.
 Principal axes and moments of inertia in atomic units:
                           1         2         3
     Eigenvalues --     0.00000  73.48130  73.48130
           X            1.00000  -0.00000   0.00000
           Y            0.00000   1.00000   0.00000
           Z            0.00000   0.00000   1.00000
 This molecule is a prolate symmetric top.
 Rotational symmetry number  1.
 Rotational temperature (Kelvin)      1.17872
 Rotational constant (GHZ):          24.560551
    2 imaginary frequencies ignored.
 Zero-point vibrational energy      59937.8 (Joules/Mol)
                                   14.32549 (Kcal/Mol)
 Warning -- explicit consideration of   1 degrees of freedom as
           vibrations may cause significant error
 Vibrational temperatures:     86.95 14330.78
          (Kelvin)

 Zero-point correction=                           0.022829 (Hartree/Particle)
 Thermal correction to Energy=                    0.026003
 Thermal correction to Enthalpy=                  0.026947
 Thermal correction to Gibbs Free Energy=         0.001351
 Sum of electronic and zero-point Energies=           -100.839292
 Sum of electronic and thermal Energies=              -100.836118
 Sum of electronic and thermal Enthalpies=            -100.835174
 Sum of electronic and thermal Free Energies=         -100.860770

                     E (Thermal)             CV                S
                      KCal/Mol        Cal/Mol-Kelvin    Cal/Mol-Kelvin
 Total                   16.317              6.941             53.871
 Electronic               0.000              0.000              1.377
 Translational            0.889              2.981             35.068
 Rotational               0.592              1.987             12.983
 Vibrational             14.836              1.973              4.443
 Vibration     1          0.597              1.973              4.443

 Normal termination of Gaussian 16 at Fri Aug 22 19:46:02 2025.
