 Gaussian 16, Revision C.01,
 Gaussian 16:  ES64L-G16RevC.01  3-Jul-2019

 -----------------------------------------
 # sp b3lyp/6-311g** Force nosymm scf=(qc)
 -----------------------------------------

 -------------------
 Title Card Required
 -------------------
 Symbolic Z-matrix:
 Charge =  0 Multiplicity = 2

                          Input orientation:
 ---------------------------------------------------------------------
 Center     Atomic      Atomic             Coordinates (Angstroms)
 Number     Number       Type             X           Y           Z
 ---------------------------------------------------------------------
      1          1           0        0.000000    0.000000    0.000000
      2          1           0       -1.450000    0.000000    0.000000
      3          9           0        3.100000    0.000000    0.000000
 ---------------------------------------------------------------------

 SCF Done:  E(UB3LYP) =  -100.828646122     a.u. after  114 cycles

 Alpha  occ. eigenvalues --  -24.76636  -1.22473  -0.55664  -0.46900  -0.46816
 Alpha  occ. eigenvalues --   -0.33843
 Alpha virt. eigenvalues --   -0.08889   0.24724   0.31016   0.85776   0.90650
 Alpha virt. eigenvalues --    0.92932   1.02706   1.09000   1.19258   1.19263
 Alpha virt. eigenvalues --    1.43271   1.43276   1.86475   2.24296   2.48982

  Beta  occ. eigenvalues --  -24.73476  -1.13390  -0.43736  -0.43648  -0.33836
  Beta virt. eigenvalues --   -0.26295  -0.08879   0.24741   0.31075   0.92149
  Beta virt. eigenvalues --    0.94530   0.95236   1.06684   1.09003   1.19257
  Beta virt. eigenvalues --    1.19262   1.43269   1.43275   1.86483   2.24295

 Mulliken charges and spin densities:
               1          2
     1  H   -0.000286   0.003091
     2  H   -0.005913  -0.003913
     3  F    0.006200   1.000822
 Sum of Mulliken charges =   0.00000   1.00000

 Dipole moment (field-independent basis, Debye):
    X=              0.0974    Y=             -0.0000    Z=              0.0000  Tot=              0.0974
 Quadrupole moment (field-independent basis, Debye-Ang):
   XX=             -6.1692   YY=             -7.5350   ZZ=             -7.0613
   XY=             -0.0000   XZ=              0.0000   YZ=             -0.3612

  Exact polarizability:      22.089      -0.000       2.156      -0.000      -0.194       2.411
 Approx polarizability:      40.190      -0.000       2.184       0.000      -0.243       2.503

 ******    1 imaginary frequencies (negative Signs) ******

                      1                      2                      3
                      A                      A                      A
 Frequencies --  -1222.0503                18.7713              1263.6639
 Red. masses --      1.0078                 1.1085                 1.0113
 Frc consts  --      0.8868                 0.0002                 0.9515
 IR Inten    --      0.9129                 0.5752                 0.0075

                      4
                      A
 Frequencies --   1265.9712
 Red. masses --      1.0113
 Frc consts  --      0.9550
 IR Inten    --      0.0051

 - Thermochemistry -
 -------------------
 Temperature   298.150 Kelvin.  Pressure   1.00000 Atm.
 Atom     1 has atomic number  1 and mass   1.00783

 Molecular mass:    21.01405 amu.
 Principal axes and moments of inertia in atomic units:
                           1         2         3
     Eigenvalues --     0.00000  98.99356  98.99356
           X            1.00000  -0.00000   0.00000
           Y            0.00000   1.00000   0.00000
           Z            0.00000   0.00000   1.00000
 This molecule is a prolate symmetric top.
 Rotational symmetry number  1.
 Rotational temperature (Kelvin)      0.87495
 Rotational constant (GHZ):          18.230895
    1 imaginary frequencies ignored.
 Zero-point vibrational energy      15242.9 (Joules/Mol)
                                    3.64313 (Kcal/Mol)
 Warning -- explicit consideration of   1 degrees of freedom as
           vibrations may cause significant error
 Vibrational temperatures:     27.01  1818.13  1821.45
          (Kelvin)

 Zero-point correction=                           0.005806 (Hartree/Particle)
 Thermal correction to Energy=                    0.009094
 Thermal correction to Enthalpy=                  0.010038
 Thermal correction to Gibbs Free Energy=        -0.016970
 Sum of electronic and zero-point Energies=           -100.822840
 Sum of electronic and thermal Energies=              -100.819552
 Sum of electronic and thermal Enthalpies=            -100.818608
 Sum of electronic and thermal Free Energies=         -100.845616

                     E (Thermal)             CV                S
                      KCal/Mol        Cal/Mol-Kelvin    Cal/Mol-Kelvin
 Total                    5.707              7.286             56.844
 Electronic               0.000              0.000              1.377
 Translational            0.889              2.981             35.068
 Rotational               0.592              1.987             13.575
 Vibrational              4.225              2.318              6.823
 Vibration     1          0.593              1.986              6.760

 Normal termination of Gaussian 16 at Fri Aug 22 19:53:10 2025.
