 Gaussian 16, Revision C.01,
 Gaussian 16:  ES64L-G16RevC.01  3-Jul-2019

 -----------------------------------------
 # sp b3lyp/6-311g** Force nosymm scf=(qc)
 -----------------------------------------

 -------------------
 Title Card Required
 -------------------
 Symbolic Z-matrix:
 Charge =  0 Multiplicity = 2

                          Input orientation:
 ---------------------------------------------------------------------
 Center     Atomic      Atomic             Coordinates (Angstroms)
 Number     Number       Type             X           Y           Z
 ---------------------------------------------------------------------
      1          1           0        0.000000    0.000000    0.000000
      2          1           0       -3.100000    0.000000    0.000000
      3          9           0        3.550000    0.000000    0.000000
 ---------------------------------------------------------------------

 SCF Done:  E(UB3LYP) =  -100.759645593     a.u. after   30 cycles

 Alpha  occ. eigenvalues --  -24.75477  -1.21433  -0.54600  -0.45843  -0.45843
 Alpha  occ. eigenvalues --   -0.32403
 Alpha virt. eigenvalues --   -0.07750   0.24810   0.36298   0.87457   0.91424
 Alpha virt. eigenvalues --    0.91424   1.01690   1.25124   1.25124   1.25671
 Alpha virt. eigenvalues --    1.44194   1.44304   1.44304   2.15604   2.39885

  Beta  occ. eigenvalues --  -24.72358  -1.12469  -0.42716  -0.42716  -0.32805
  Beta virt. eigenvalues --   -0.25532  -0.07258   0.24590   0.37081   0.92915
  Beta virt. eigenvalues --    0.92915   0.96636   1.05725   1.24661   1.24661
  Beta virt. eigenvalues --    1.25175   1.44956   1.45089   1.45089   2.15852

 Mulliken charges and spin densities:
               1          2
     1  H    0.009416  -0.983252
     2  H    0.000464   0.994176
     3  F   -0.009880   0.989075
 Sum of Mulliken charges =  -0.00000   1.00000

 Dipole moment (field-independent basis, Debye):
    X=             -0.1873    Y=             -0.0000    Z=             -0.0000  Tot=              0.1873
 Quadrupole moment (field-independent basis, Debye-Ang):
   XX=             -7.2666   YY=             -7.6313   ZZ=             -7.6313
   XY=             -0.0000   XZ=             -0.0000   YZ=             -0.0000

  Exact polarizability:      24.126       0.000       2.034      -0.000      -0.000       2.034
 Approx polarizability:      18.538       0.000       1.932       0.000       0.000       1.932

 ******    2 imaginary frequencies (negative Signs) ******

                      1                      2                      3
                      A                      A                      A
 Frequencies --   -322.3206              -122.6199               107.8082
 Red. masses --      1.0120                 1.1035                 1.0164
 Frc consts  --      0.0619                 0.0098                 0.0070
 IR Inten    --      6.6599                 3.1590                 0.0717

                      4
                      A
 Frequencies --    107.8083
 Red. masses --      1.0164
 Frc consts  --      0.0070
 IR Inten    --      0.0717

 - Thermochemistry -
 -------------------
 Temperature   298.150 Kelvin.  Pressure   1.00000 Atm.
 Atom     1 has atomic number  1 and mass   1.00783

 Molecular mass:    21.01405 amu.
 Principal axes and moments of inertia in atomic units:
                           1         2         3
     Eigenvalues --     0.00000 186.55564 186.55564
           X            1.00000  -0.00000   0.00000
           Y            0.00000   1.00000   0.00000
           Z            0.00000   0.00000   1.00000
 This molecule is a prolate symmetric top.
 Rotational symmetry number  1.
 Rotational temperature (Kelvin)      0.46428
 Rotational constant (GHZ):           9.674011
    2 imaginary frequencies ignored.
 Zero-point vibrational energy       1289.7 (Joules/Mol)
                                    0.30824 (Kcal/Mol)
 Warning -- explicit consideration of   2 degrees of freedom as
           vibrations may cause significant error
 Vibrational temperatures:    155.11   155.11
          (Kelvin)

 Zero-point correction=                           0.000491 (Hartree/Particle)
 Thermal correction to Energy=                    0.004291
 Thermal correction to Enthalpy=                  0.005235
 Thermal correction to Gibbs Free Energy=        -0.022273
 Sum of electronic and zero-point Energies=           -100.759154
 Sum of electronic and thermal Energies=              -100.755354
 Sum of electronic and thermal Enthalpies=            -100.754410
 Sum of electronic and thermal Free Energies=         -100.781918

                     E (Thermal)             CV                S
                      KCal/Mol        Cal/Mol-Kelvin    Cal/Mol-Kelvin
 Total                    2.693              8.854             57.896
 Electronic               0.000              0.000              1.377
 Translational            0.889              2.981             35.068
 Rotational               0.592              1.987             14.834
 Vibrational              1.212              3.886              6.616
 Vibration     1          0.606              1.943              3.308
 Vibration     2          0.606              1.943              3.308

 Normal termination of Gaussian 16 at Fri Aug 22 22:40:48 2025.
