 Gaussian 16, Revision C.01,
 Gaussian 16:  ES64L-G16RevC.01  3-Jul-2019

 -----------------------------------------
 # sp b3lyp/6-311g** Force nosymm scf=(qc)
 -----------------------------------------

 -------------------
 Title Card Required
 -------------------
 Symbolic Z-matrix:
 Charge =  0 Multiplicity = 2

                          Input orientation:
 ---------------------------------------------------------------------
 Center     Atomic      Atomic             Coordinates (Angstroms)
 Number     Number       Type             X           Y           Z
 ---------------------------------------------------------------------
      1          1           0        0.000000    0.000000    0.000000
      2          1           0       -2.250000    0.000000    0.000000
      3          9           0        3.450000    0.000000    0.000000
 ---------------------------------------------------------------------

 SCF Done:  E(UB3LYP) =  -100.766909554     a.u. after   30 cycles

 Alpha  occ. eigenvalues --  -24.75417  -1.21377  -0.54539  -0.45793  -0.45793
 Alpha  occ. eigenvalues --   -0.32901
 Alpha virt. eigenvalues --   -0.10421   0.25835   0.33374   0.87774   0.91456
 Alpha virt. eigenvalues --    0.91456   1.01893   1.24467   1.24901   1.24901
 Alpha virt. eigenvalues --    1.39483   1.39483   1.44397   2.14365   2.35570

  Beta  occ. eigenvalues --  -24.72304  -1.12432  -0.42673  -0.42673  -0.33112
  Beta virt. eigenvalues --   -0.25526  -0.09993   0.25703   0.34008   0.92945
  Beta virt. eigenvalues --    0.92945   0.96917   1.05928   1.24210   1.24637
  Beta virt. eigenvalues --    1.24637   1.40130   1.40130   1.44970   2.15032

 Mulliken charges and spin densities:
               1          2
     1  H    0.007108  -0.923063
     2  H    0.004360   0.936071
     3  F   -0.011467   0.986992
 Sum of Mulliken charges =  -0.00000   1.00000

 Dipole moment (field-independent basis, Debye):
    X=             -0.2496    Y=             -0.0000    Z=             -0.0000  Tot=              0.2496
 Quadrupole moment (field-independent basis, Debye-Ang):
   XX=             -6.9693   YY=             -7.6910   ZZ=             -7.6910
   XY=             -0.0000   XZ=             -0.0000   YZ=             -0.0000

  Exact polarizability:      40.434      -0.000       2.019      -0.000      -0.000       2.019
 Approx polarizability:      31.378      -0.000       1.929      -0.000       0.000       1.929

 ******    2 imaginary frequencies (negative Signs) ******

                      1                      2                      3
                      A                      A                      A
 Frequencies --   -955.3086              -145.7168               364.8982
 Red. masses --      1.0079                 1.1084                 1.0136
 Frc consts  --      0.5419                 0.0139                 0.0795
 IR Inten    --      7.9723                 8.0518                 0.0232

                      4
                      A
 Frequencies --    364.8982
 Red. masses --      1.0136
 Frc consts  --      0.0795
 IR Inten    --      0.0232

 - Thermochemistry -
 -------------------
 Temperature   298.150 Kelvin.  Pressure   1.00000 Atm.
 Atom     1 has atomic number  1 and mass   1.00783

 Molecular mass:    21.01405 amu.
 Principal axes and moments of inertia in atomic units:
                           1         2         3
     Eigenvalues --     0.00000 145.31790 145.31790
           X            1.00000  -0.00000   0.00000
           Y            0.00000   1.00000   0.00000
           Z            0.00000   0.00000   1.00000
 This molecule is a prolate symmetric top.
 Rotational symmetry number  1.
 Rotational temperature (Kelvin)      0.59603
 Rotational constant (GHZ):          12.419263
    2 imaginary frequencies ignored.
 Zero-point vibrational energy       4365.2 (Joules/Mol)
                                    1.04330 (Kcal/Mol)
 Warning -- explicit consideration of   2 degrees of freedom as
           vibrations may cause significant error
 Vibrational temperatures:    525.01   525.01
          (Kelvin)

 Zero-point correction=                           0.001663 (Hartree/Particle)
 Thermal correction to Energy=                    0.004713
 Thermal correction to Enthalpy=                  0.005657
 Thermal correction to Gibbs Free Energy=        -0.019518
 Sum of electronic and zero-point Energies=           -100.765247
 Sum of electronic and thermal Energies=              -100.762196
 Sum of electronic and thermal Enthalpies=            -100.761252
 Sum of electronic and thermal Free Energies=         -100.786427

                     E (Thermal)             CV                S
                      KCal/Mol        Cal/Mol-Kelvin    Cal/Mol-Kelvin
 Total                    2.958              8.057             52.986
 Electronic               0.000              0.000              1.377
 Translational            0.889              2.981             35.068
 Rotational               0.592              1.987             14.338
 Vibrational              1.476              3.089              2.202
 Vibration     1          0.738              1.545              1.101
 Vibration     2          0.738              1.545              1.101

 Normal termination of Gaussian 16 at Fri Aug 22 21:41:26 2025.
