 Gaussian 16, Revision C.01,
 Gaussian 16:  ES64L-G16RevC.01  3-Jul-2019

 -----------------------------------------
 # sp b3lyp/6-311g** Force nosymm scf=(qc)
 -----------------------------------------

 -------------------
 Title Card Required
 -------------------
 Symbolic Z-matrix:
 Charge =  0 Multiplicity = 2

                          Input orientation:
 ---------------------------------------------------------------------
 Center     Atomic      Atomic             Coordinates (Angstroms)
 Number     Number       Type             X           Y           Z
 ---------------------------------------------------------------------
      1          1           0        0.000000    0.000000    0.000000
      2          1           0       -2.700000    0.000000    0.000000
      3          9           0        2.600000    0.000000    0.000000
 ---------------------------------------------------------------------

 SCF Done:  E(UB3LYP) =  -100.767655660     a.u. after   20 cycles

 Alpha  occ. eigenvalues --  -24.72320  -1.18496  -0.51426  -0.43191  -0.43191
 Alpha  occ. eigenvalues --   -0.33360
 Alpha virt. eigenvalues --   -0.11086   0.24705   0.33782   0.90171   0.93308
 Alpha virt. eigenvalues --    0.93308   1.06243   1.24230   1.24230   1.26154
 Alpha virt. eigenvalues --    1.39465   1.39465   1.42454   2.15247   2.35225

  Beta  occ. eigenvalues --  -24.69428  -1.10249  -0.40305  -0.40305  -0.34962
  Beta virt. eigenvalues --   -0.23731  -0.08758   0.25377   0.35539   0.94708
  Beta virt. eigenvalues --    0.94708   0.97678   1.09312   1.22510   1.22510
  Beta virt. eigenvalues --    1.27750   1.43028   1.43028   1.43797   2.14931

 Mulliken charges and spin densities:
               1          2
     1  H    0.069780  -0.897866
     2  H    0.006001   0.983343
     3  F   -0.075781   0.914523
 Sum of Mulliken charges =   0.00000   1.00000

 Dipole moment (field-independent basis, Debye):
    X=             -1.0829    Y=             -0.0000    Z=             -0.0000  Tot=              1.0829
 Quadrupole moment (field-independent basis, Debye-Ang):
   XX=             -8.8193   YY=             -7.6085   ZZ=             -7.6085
   XY=             -0.0000   XZ=              0.0000   YZ=             -0.0000

  Exact polarizability:      39.519      -0.000       2.017       0.000      -0.000       2.017
 Approx polarizability:      43.264      -0.000       1.918       0.000      -0.000       1.918

 ******    2 imaginary frequencies (negative Signs) ******

                      1                      2                      3
                      A                      A                      A
 Frequencies --   -673.9279              -280.4853               262.9507
 Red. masses --      1.0268                 1.0864                 1.0184
 Frc consts  --      0.2748                 0.0504                 0.0415
 IR Inten    --     57.1558                13.2685                 4.2071

                      4
                      A
 Frequencies --    262.9507
 Red. masses --      1.0184
 Frc consts  --      0.0415
 IR Inten    --      4.2071

 - Thermochemistry -
 -------------------
 Temperature   298.150 Kelvin.  Pressure   1.00000 Atm.
 Atom     1 has atomic number  1 and mass   1.00783

 Molecular mass:    21.01405 amu.
 Principal axes and moments of inertia in atomic units:
                           1         2         3
     Eigenvalues --     0.00000 114.65305 114.65305
           X            1.00000  -0.00000   0.00000
           Y            0.00000   1.00000   0.00000
           Z            0.00000   0.00000   1.00000
 This molecule is a prolate symmetric top.
 Rotational symmetry number  1.
 Rotational temperature (Kelvin)      0.75544
 Rotational constant (GHZ):          15.740891
    2 imaginary frequencies ignored.
 Zero-point vibrational energy       3145.6 (Joules/Mol)
                                    0.75181 (Kcal/Mol)
 Warning -- explicit consideration of   2 degrees of freedom as
           vibrations may cause significant error
 Vibrational temperatures:    378.33   378.33
          (Kelvin)

 Zero-point correction=                           0.001198 (Hartree/Particle)
 Thermal correction to Energy=                    0.004496
 Thermal correction to Enthalpy=                  0.005440
 Thermal correction to Gibbs Free Energy=        -0.020026
 Sum of electronic and zero-point Energies=           -100.766458
 Sum of electronic and thermal Energies=              -100.763160
 Sum of electronic and thermal Enthalpies=            -100.762216
 Sum of electronic and thermal Free Energies=         -100.787681

                     E (Thermal)             CV                S
                      KCal/Mol        Cal/Mol-Kelvin    Cal/Mol-Kelvin
 Total                    2.821              8.449             53.596
 Electronic               0.000              0.000              1.377
 Translational            0.889              2.981             35.068
 Rotational               0.592              1.987             13.867
 Vibrational              1.340              3.481              3.284
 Vibration     1          0.670              1.741              1.642
 Vibration     2          0.670              1.741              1.642

 Normal termination of Gaussian 16 at Fri Aug 22 18:04:25 2025.
