 Gaussian 16, Revision C.01,
 Gaussian 16:  ES64L-G16RevC.01  3-Jul-2019

 -----------------------------------------
 # sp b3lyp/6-311g** Force nosymm scf=(qc)
 -----------------------------------------

 -------------------
 Title Card Required
 -------------------
 Symbolic Z-matrix:
 Charge =  0 Multiplicity = 2

                          Input orientation:
 ---------------------------------------------------------------------
 Center     Atomic      Atomic             Coordinates (Angstroms)
 Number     Number       Type             X           Y           Z
 ---------------------------------------------------------------------
      1          1           0        0.000000    0.000000    0.000000
      2          1           0       -1.600000    0.000000    0.000000
      3          9           0        2.400000    0.000000    0.000000
 ---------------------------------------------------------------------

 SCF Done:  E(UB3LYP) =  -100.812681140     a.u. after   17 cycles

 Alpha  occ. eigenvalues --  -24.72260  -1.18446  -0.51438  -0.43154  -0.43154
 Alpha  occ. eigenvalues --   -0.36025
 Alpha virt. eigenvalues --   -0.11665   0.23761   0.31122   0.88085   0.93229
 Alpha virt. eigenvalues --    0.93229   1.02886   1.16270   1.19624   1.19624
 Alpha virt. eigenvalues --    1.37134   1.37134   1.72249   2.16844   2.42952

  Beta  occ. eigenvalues --  -24.69399  -1.10300  -0.40302  -0.40302  -0.35576
  Beta virt. eigenvalues --   -0.24247  -0.10859   0.25442   0.30801   0.93766
  Beta virt. eigenvalues --    0.94585   0.94585   1.06109   1.20085   1.20410
  Beta virt. eigenvalues --    1.20410   1.37755   1.37755   1.72991   2.17868

 Mulliken charges and spin densities:
               1          2
     1  H    0.036895  -0.460521
     2  H    0.043817   0.557180
     3  F   -0.080711   0.903341
 Sum of Mulliken charges =  -0.00000   1.00000

 Dipole moment (field-independent basis, Debye):
    X=             -1.3157    Y=              0.0000    Z=              0.0000  Tot=              1.3157
 Quadrupole moment (field-independent basis, Debye-Ang):
   XX=             -7.3724   YY=             -7.6620   ZZ=             -7.6620
   XY=              0.0000   XZ=              0.0000   YZ=             -0.0000

  Exact polarizability:      60.524       0.000       2.042       0.000      -0.000       2.042
 Approx polarizability:      82.642      -0.000       2.001      -0.000       0.000       2.001

 ******    2 imaginary frequencies (negative Signs) ******

                      1                      2                      3
                      A                      A                      A
 Frequencies --  -2047.7020              -373.3148               998.2030
 Red. masses --      1.0087                 1.1075                 1.0138
 Frc consts  --      2.4919                 0.0909                 0.5952
 IR Inten    --    439.2403                41.7483                 0.2183

                      4
                      A
 Frequencies --    998.2030
 Red. masses --      1.0138
 Frc consts  --      0.5952
 IR Inten    --      0.2183

 - Thermochemistry -
 -------------------
 Temperature   298.150 Kelvin.  Pressure   1.00000 Atm.
 Atom     1 has atomic number  1 and mass   1.00783

 Molecular mass:    21.01405 amu.
 Principal axes and moments of inertia in atomic units:
                           1         2         3
     Eigenvalues --     0.00000  71.24445  71.24445
           X            1.00000  -0.00000   0.00000
           Y            0.00000   1.00000   0.00000
           Z            0.00000   0.00000   1.00000
 This molecule is a prolate symmetric top.
 Rotational symmetry number  1.
 Rotational temperature (Kelvin)      1.21573
 Rotational constant (GHZ):          25.331676
    2 imaginary frequencies ignored.
 Zero-point vibrational energy      11941.2 (Joules/Mol)
                                    2.85401 (Kcal/Mol)
 Vibrational temperatures:   1436.19  1436.19
          (Kelvin)

 Zero-point correction=                           0.004548 (Hartree/Particle)
 Thermal correction to Energy=                    0.006983
 Thermal correction to Enthalpy=                  0.007927
 Thermal correction to Gibbs Free Energy=        -0.015618
 Sum of electronic and zero-point Energies=           -100.808133
 Sum of electronic and thermal Energies=              -100.805698
 Sum of electronic and thermal Enthalpies=            -100.804754
 Sum of electronic and thermal Free Energies=         -100.828299

                     E (Thermal)             CV                S
                      KCal/Mol        Cal/Mol-Kelvin    Cal/Mol-Kelvin
 Total                    4.382              5.726             49.555
 Electronic               0.000              0.000              1.377
 Translational            0.889              2.981             35.068
 Rotational               0.592              1.987             12.921
 Vibrational              2.901              0.758              0.188

 Normal termination of Gaussian 16 at Fri Aug 22 17:31:45 2025.
