 Gaussian 16, Revision C.01,
 Gaussian 16:  ES64L-G16RevC.01  3-Jul-2019

 -----------------------------------------
 # sp b3lyp/6-311g** Force nosymm scf=(qc)
 -----------------------------------------

 -------------------
 Title Card Required
 -------------------
 Symbolic Z-matrix:
 Charge =  0 Multiplicity = 2

                          Input orientation:
 ---------------------------------------------------------------------
 Center     Atomic      Atomic             Coordinates (Angstroms)
 Number     Number       Type             X           Y           Z
 ---------------------------------------------------------------------
      1          1           0        0.000000    0.000000    0.000000
      2          1           0       -3.600000    0.000000    0.000000
      3          9           0        3.900000    0.000000    0.000000
 ---------------------------------------------------------------------

 SCF Done:  E(UB3LYP) =  -100.758608500     a.u. after   35 cycles

 Alpha  occ. eigenvalues --  -24.75825  -1.21756  -0.54949  -0.46137  -0.46137
 Alpha  occ. eigenvalues --   -0.32258
 Alpha virt. eigenvalues --   -0.06524   0.24302   0.37706   0.86691   0.91206
 Alpha virt. eigenvalues --    0.91206   1.01160   1.25243   1.25243   1.25347
 Alpha virt. eigenvalues --    1.45725   1.45949   1.45949   2.14959   2.41491

  Beta  occ. eigenvalues --  -24.72683  -1.12721  -0.42987  -0.42987  -0.32488
  Beta virt. eigenvalues --   -0.25704  -0.06287   0.24132   0.38071   0.92703
  Beta virt. eigenvalues --    0.92703   0.96038   1.05273   1.24992   1.24992
  Beta virt. eigenvalues --    1.25082   1.46108   1.46314   1.46314   2.14961

 Mulliken charges and spin densities:
               1          2
     1  H    0.003345  -0.994542
     2  H    0.000062   0.998323
     3  F   -0.003406   0.996219
 Sum of Mulliken charges =  -0.00000   1.00000

 Dipole moment (field-independent basis, Debye):
    X=             -0.0698    Y=              0.0000    Z=             -0.0000  Tot=              0.0698
 Quadrupole moment (field-independent basis, Debye-Ang):
   XX=             -6.9705   YY=             -7.6224   ZZ=             -7.6224
   XY=             -0.0000   XZ=             -0.0000   YZ=              0.0000

  Exact polarizability:      12.742      -0.000       2.032      -0.000       0.000       2.032
 Approx polarizability:       9.433      -0.000       1.936      -0.000      -0.000       1.936

 ******    2 imaginary frequencies (negative Signs) ******

                      1                      2                      3
                      A                      A                      A
 Frequencies --   -179.6834               -71.8434                59.7508
 Red. masses --      1.0136                 1.1016                 1.0170
 Frc consts  --      0.0193                 0.0034                 0.0021
 IR Inten    --      1.4403                 0.5642                 0.0109

                      4
                      A
 Frequencies --     59.7508
 Red. masses --      1.0170
 Frc consts  --      0.0021
 IR Inten    --      0.0109

 - Thermochemistry -
 -------------------
 Temperature   298.150 Kelvin.  Pressure   1.00000 Atm.
 Atom     1 has atomic number  1 and mass   1.00783

 Molecular mass:    21.01405 amu.
 Principal axes and moments of inertia in atomic units:
                           1         2         3
     Eigenvalues --     0.00000 234.75316 234.75316
           X            1.00000  -0.00000   0.00000
           Y            0.00000   1.00000   0.00000
           Z            0.00000   0.00000   1.00000
 This molecule is a prolate symmetric top.
 Rotational symmetry number  1.
 Rotational temperature (Kelvin)      0.36896
 Rotational constant (GHZ):           7.687825
    2 imaginary frequencies ignored.
 Zero-point vibrational energy        714.8 (Joules/Mol)
                                    0.17084 (Kcal/Mol)
 Warning -- explicit consideration of   2 degrees of freedom as
           vibrations may cause significant error
 Vibrational temperatures:     85.97    85.97
          (Kelvin)

 Zero-point correction=                           0.000272 (Hartree/Particle)
 Thermal correction to Energy=                    0.004262
 Thermal correction to Enthalpy=                  0.005206
 Thermal correction to Gibbs Free Energy=        -0.023619
 Sum of electronic and zero-point Energies=           -100.758336
 Sum of electronic and thermal Energies=              -100.754347
 Sum of electronic and thermal Enthalpies=            -100.753402
 Sum of electronic and thermal Free Energies=         -100.782227

                     E (Thermal)             CV                S
                      KCal/Mol        Cal/Mol-Kelvin    Cal/Mol-Kelvin
 Total                    2.674              8.915             60.667
 Electronic               0.000              0.000              1.377
 Translational            0.889              2.981             35.068
 Rotational               0.592              1.987             15.291
 Vibrational              1.193              3.947              8.931
 Vibration     1          0.597              1.973              4.465
 Vibration     2          0.597              1.973              4.465

 Normal termination of Gaussian 16 at Sat Aug 23 01:27:20 2025.
