 Gaussian 16, Revision C.01,
 Gaussian 16:  ES64L-G16RevC.01  3-Jul-2019

 -----------------------------------------
 # sp b3lyp/6-311g** Force nosymm scf=(qc)
 -----------------------------------------

 -------------------
 Title Card Required
 -------------------
 Symbolic Z-matrix:
 Charge =  0 Multiplicity = 2

                          Input orientation:
 ---------------------------------------------------------------------
 Center     Atomic      Atomic             Coordinates (Angstroms)
 Number     Number       Type             X           Y           Z
 ---------------------------------------------------------------------
      1          1           0        0.000000    0.000000    0.000000
      2          1           0       -1.950000    0.000000    0.000000
      3          9           0        2.150000    0.000000    0.000000
 ---------------------------------------------------------------------

 SCF Done:  E(UB3LYP) =  -100.794535286     a.u. after   15 cycles

 Alpha  occ. eigenvalues --  -24.69442  -1.15752  -0.48544  -0.40762  -0.40762
 Alpha  occ. eigenvalues --   -0.36059
 Alpha virt. eigenvalues --   -0.13292   0.24117   0.31405   0.87668   0.94636
 Alpha virt. eigenvalues --    0.94636   1.04694   1.21834   1.21834   1.26066
 Alpha virt. eigenvalues --    1.34097   1.34097   1.55972   2.11043   2.33278

  Beta  occ. eigenvalues --  -24.66851  -1.08450  -0.38195  -0.38195  -0.36578
  Beta virt. eigenvalues --   -0.22245  -0.11781   0.26415   0.31488   0.91450
  Beta virt. eigenvalues --    0.95696   0.95696   1.08132   1.22596   1.22596
  Beta virt. eigenvalues --    1.33639   1.36042   1.36042   1.54528   2.11755

 Mulliken charges and spin densities:
               1          2
     1  H    0.105036  -0.674986
     2  H    0.042760   0.859293
     3  F   -0.147796   0.815693
 Sum of Mulliken charges =   0.00000   1.00000

 Dipole moment (field-independent basis, Debye):
    X=             -1.9932    Y=              0.0000    Z=              0.0000  Tot=              1.9932
 Quadrupole moment (field-independent basis, Debye-Ang):
   XX=             -8.5051   YY=             -7.5946   ZZ=             -7.5946
   XY=              0.0000   XZ=              0.0000   YZ=             -0.0000

  Exact polarizability:      54.237       0.000       2.039       0.000       0.000       2.039
 Approx polarizability:      64.231       0.000       1.953       0.000       0.000       1.953

 ******    2 imaginary frequencies (negative Signs) ******

                      1                      2                      3
                      A                      A                      A
 Frequencies --  -1552.9063              -525.1212               641.3667
 Red. masses --      1.0132                 1.1021                 1.0168
 Frc consts  --      1.4396                 0.1791                 0.2464
 IR Inten    --    123.3678                45.7842                 6.2766

                      4
                      A
 Frequencies --    641.3667
 Red. masses --      1.0168
 Frc consts  --      0.2464
 IR Inten    --      6.2766

 - Thermochemistry -
 -------------------
 Temperature   298.150 Kelvin.  Pressure   1.00000 Atm.
 Atom     1 has atomic number  1 and mass   1.00783

 Molecular mass:    21.01405 amu.
 Principal axes and moments of inertia in atomic units:
                           1         2         3
     Eigenvalues --     0.00000  70.39329  70.39329
           X            1.00000  -0.00000   0.00000
           Y            0.00000   1.00000   0.00000
           Z            0.00000   0.00000   1.00000
 This molecule is a prolate symmetric top.
 Rotational symmetry number  1.
 Rotational temperature (Kelvin)      1.23043
 Rotational constant (GHZ):          25.637971
    2 imaginary frequencies ignored.
 Zero-point vibrational energy       7672.4 (Joules/Mol)
                                    1.83376 (Kcal/Mol)
 Vibrational temperatures:    922.78   922.78
          (Kelvin)

 Zero-point correction=                           0.002922 (Hartree/Particle)
 Thermal correction to Energy=                    0.005560
 Thermal correction to Enthalpy=                  0.006504
 Thermal correction to Gibbs Free Energy=        -0.017305
 Sum of electronic and zero-point Energies=           -100.791613
 Sum of electronic and thermal Energies=              -100.788975
 Sum of electronic and thermal Enthalpies=            -100.788031
 Sum of electronic and thermal Free Energies=         -100.811840

                     E (Thermal)             CV                S
                      KCal/Mol        Cal/Mol-Kelvin    Cal/Mol-Kelvin
 Total                    3.489              6.859             50.110
 Electronic               0.000              0.000              1.377
 Translational            0.889              2.981             35.068
 Rotational               0.592              1.987             12.897
 Vibrational              2.008              1.891              0.767

 Normal termination of Gaussian 16 at Fri Aug 22 17:07:36 2025.
