 Gaussian 16, Revision C.01,
 Gaussian 16:  ES64L-G16RevC.01  3-Jul-2019

 -----------------------------------------
 # sp b3lyp/6-311g** Force nosymm scf=(qc)
 -----------------------------------------

 -------------------
 Title Card Required
 -------------------
 Symbolic Z-matrix:
 Charge =  0 Multiplicity = 2

                          Input orientation:
 ---------------------------------------------------------------------
 Center     Atomic      Atomic             Coordinates (Angstroms)
 Number     Number       Type             X           Y           Z
 ---------------------------------------------------------------------
      1          1           0        0.000000    0.000000    0.000000
      2          1           0       -0.750000    0.000000    0.000000
      3          9           0        2.950000    0.000000    0.000000
 ---------------------------------------------------------------------

 SCF Done:  E(UB3LYP) =  -100.934429883     a.u. after  500 cycles

 Alpha  occ. eigenvalues --  -24.76644  -1.22445  -0.55636  -0.46922  -0.46785
 Alpha  occ. eigenvalues --   -0.42957
 Alpha virt. eigenvalues --    0.06144   0.20011   0.47090   0.85834   0.90706
 Alpha virt. eigenvalues --    0.93881   1.06449   1.08664   1.08672   1.55512
 Alpha virt. eigenvalues --    1.82522   1.82531   1.98602   2.38913   3.28377

  Beta  occ. eigenvalues --  -24.73482  -1.13357  -0.43981  -0.43615  -0.42725
  Beta virt. eigenvalues --   -0.26257   0.06192   0.20043   0.47195   0.92204
  Beta virt. eigenvalues --    0.95290   0.95731   1.08664   1.08671   1.10080
  Beta virt. eigenvalues --    1.55525   1.82521   1.82530   1.98632   2.38920

 Mulliken charges and spin densities:
               1          2
     1  H   -0.005956  -0.001266
     2  H   -0.004080  -0.000085
     3  F    0.010036   1.001351
 Sum of Mulliken charges =   0.00000   1.00000

 Dipole moment (field-independent basis, Debye):
    X=              0.0992    Y=             -0.0000    Z=              0.0000  Tot=              0.0992
 Quadrupole moment (field-independent basis, Debye-Ang):
   XX=             -6.0649   YY=             -6.2892   ZZ=             -6.7679
   XY=              0.0000   XZ=              0.0000   YZ=              0.3593

  Exact polarizability:       8.691      -0.000       2.321      -0.000       0.191       2.066
 Approx polarizability:       9.895       0.000       2.489       0.000       0.240       2.170

                      1                      2                      3
                      A                      A                      A
 Frequencies --     64.1539               433.1810               437.7534
 Red. masses --      1.1085                 1.0091                 1.0091
 Frc consts  --      0.0027                 0.1116                 0.1139
 IR Inten    --      0.2708                 0.0119                 0.0108

                      4
                      A
 Frequencies --   4338.1734
 Red. masses --      1.0078
 Frc consts  --     11.1750
 IR Inten    --      0.5365

 - Thermochemistry -
 -------------------
 Temperature   298.150 Kelvin.  Pressure   1.00000 Atm.
 Atom     1 has atomic number  1 and mass   1.00783

 Molecular mass:    21.01405 amu.
 Principal axes and moments of inertia in atomic units:
                           1         2         3
     Eigenvalues --     0.00000  72.95769  72.95769
           X            1.00000  -0.00000   0.00000
           Y            0.00000   1.00000   0.00000
           Z            0.00000   0.00000   1.00000
 This molecule is a prolate symmetric top.
 Rotational symmetry number  1.
 Rotational temperature (Kelvin)      1.18718
 Rotational constant (GHZ):          24.736820
 Zero-point vibrational energy      31541.1 (Joules/Mol)
                                    7.53851 (Kcal/Mol)
 Warning -- explicit consideration of   3 degrees of freedom as
           vibrations may cause significant error
 Vibrational temperatures:     92.30   623.25   629.83  6241.66
          (Kelvin)

 Zero-point correction=                           0.012013 (Hartree/Particle)
 Thermal correction to Energy=                    0.015732
 Thermal correction to Enthalpy=                  0.016676
 Thermal correction to Gibbs Free Energy=        -0.009656
 Sum of electronic and zero-point Energies=           -100.922417
 Sum of electronic and thermal Energies=              -100.918698
 Sum of electronic and thermal Enthalpies=            -100.917753
 Sum of electronic and thermal Free Energies=         -100.944086

                     E (Thermal)             CV                S
                      KCal/Mol        Cal/Mol-Kelvin    Cal/Mol-Kelvin
 Total                    9.872              9.725             55.421
 Electronic               0.000              0.000              1.377
 Translational            0.889              2.981             35.068
 Rotational               0.592              1.987             12.969
 Vibrational              8.391              4.757              6.007
 Vibration     1          0.597              1.971              4.325
 Vibration     2          0.794              1.398              0.848
 Vibration     3          0.798              1.388              0.834

 Normal termination of Gaussian 16 at Fri Aug 22 19:09:41 2025.
