 Gaussian 16, Revision C.01,
 Gaussian 16:  ES64L-G16RevC.01  3-Jul-2019

 -----------------------------------------
 # sp b3lyp/6-311g** Force nosymm scf=(qc)
 -----------------------------------------

 -------------------
 Title Card Required
 -------------------
 Symbolic Z-matrix:
 Charge =  0 Multiplicity = 2

                          Input orientation:
 ---------------------------------------------------------------------
 Center     Atomic      Atomic             Coordinates (Angstroms)
 Number     Number       Type             X           Y           Z
 ---------------------------------------------------------------------
      1          1           0        0.000000    0.000000    0.000000
      2          1           0       -4.000000    0.000000    0.000000
      3          9           0        1.000000    0.000000    0.000000
 ---------------------------------------------------------------------

 SCF Done:  E(UB3LYP) =  -100.966111472     a.u. after    6 cycles

 Alpha  occ. eigenvalues --  -24.64198  -1.16071  -0.51665  -0.38816  -0.38816
 Alpha  occ. eigenvalues --   -0.33357
 Alpha virt. eigenvalues --    0.00536   0.23448   0.34524   0.94025   0.94025
 Alpha virt. eigenvalues --    0.98560   1.24091   1.24148   1.24148   1.28887
 Alpha virt. eigenvalues --    1.35909   1.35909   1.89831   2.13872   2.33742

  Beta  occ. eigenvalues --  -24.64197  -1.16069  -0.51663  -0.38816  -0.38816
  Beta virt. eigenvalues --   -0.04943   0.00768   0.33174   0.39772   0.94025
  Beta virt. eigenvalues --    0.94025   0.98561   1.28862   1.35908   1.35908
  Beta virt. eigenvalues --    1.50389   1.50854   1.50854   1.89889   2.33330

 Mulliken charges and spin densities:
               1          2
     1  H    0.320407   0.000199
     2  H    0.000338   0.999631
     3  F   -0.320746   0.000170
 Sum of Mulliken charges =   0.00000   1.00000

 Dipole moment (field-independent basis, Debye):
    X=             -2.0257    Y=              0.0000    Z=             -0.0000  Tot=              2.0257
 Quadrupole moment (field-independent basis, Debye-Ang):
   XX=             -8.2760   YY=             -6.9622   ZZ=             -6.9622
   XY=              0.0000   XZ=             -0.0000   YZ=              0.0000

  Exact polarizability:       6.321      -0.000       2.395       0.000      -0.000       2.395
 Approx polarizability:       7.888      -0.000       2.367      -0.000      -0.000       2.367

 ******    1 imaginary frequencies (negative Signs) ******

                      1                      2                      3
                      A                      A                      A
 Frequencies --    -31.0278               988.3419               988.3419
 Red. masses --      1.0532                 1.0389                 1.0389
 Frc consts  --      0.0006                 0.5979                 0.5979
 IR Inten    --      0.0110               171.3751               171.3751

                      4
                      A
 Frequencies --   3027.6279
 Red. masses --      1.0583
 Frc consts  --      5.7157
 IR Inten    --     85.8664

 - Thermochemistry -
 -------------------
 Temperature   298.150 Kelvin.  Pressure   1.00000 Atm.
 Atom     1 has atomic number  1 and mass   1.00783

 Molecular mass:    21.01405 amu.
 Principal axes and moments of inertia in atomic units:
                           1         2         3
     Eigenvalues --     0.00000  87.36037  87.36037
           X            1.00000  -0.00000   0.00000
           Y            0.00000   1.00000   0.00000
           Z            0.00000   0.00000   1.00000
 This molecule is a prolate symmetric top.
 Rotational symmetry number  1.
 Rotational temperature (Kelvin)      0.99146
 Rotational constant (GHZ):          20.658579
    1 imaginary frequencies ignored.
 Zero-point vibrational energy      29932.4 (Joules/Mol)
                                    7.15402 (Kcal/Mol)
 Vibrational temperatures:   1422.00  1422.00  4356.08
          (Kelvin)

 Zero-point correction=                           0.011401 (Hartree/Particle)
 Thermal correction to Energy=                    0.013838
 Thermal correction to Enthalpy=                  0.014782
 Thermal correction to Gibbs Free Energy=        -0.008959
 Sum of electronic and zero-point Energies=           -100.954711
 Sum of electronic and thermal Energies=              -100.952273
 Sum of electronic and thermal Enthalpies=            -100.951329
 Sum of electronic and thermal Free Energies=         -100.975071

                     E (Thermal)             CV                S
                      KCal/Mol        Cal/Mol-Kelvin    Cal/Mol-Kelvin
 Total                    8.684              5.749             49.968
 Electronic               0.000              0.000              1.377
 Translational            0.889              2.981             35.068
 Rotational               0.592              1.987             13.327
 Vibrational              7.202              0.781              0.196

 Normal termination of Gaussian 16 at Fri Aug 22 16:01:50 2025.
