 Gaussian 16, Revision C.01,
 Gaussian 16:  ES64L-G16RevC.01  3-Jul-2019

 -----------------------------------------
 # sp b3lyp/6-311g** Force nosymm scf=(qc)
 -----------------------------------------

 -------------------
 Title Card Required
 -------------------
 Symbolic Z-matrix:
 Charge =  0 Multiplicity = 2

                          Input orientation:
 ---------------------------------------------------------------------
 Center     Atomic      Atomic             Coordinates (Angstroms)
 Number     Number       Type             X           Y           Z
 ---------------------------------------------------------------------
      1          1           0        0.000000    0.000000    0.000000
      2          1           0       -1.600000    0.000000    0.000000
      3          9           0        2.700000    0.000000    0.000000
 ---------------------------------------------------------------------

 SCF Done:  E(UB3LYP) =  -100.808842640     a.u. after   23 cycles

 Alpha  occ. eigenvalues --  -24.73905  -1.19979  -0.53049  -0.44534  -0.44534
 Alpha  occ. eigenvalues --   -0.35029
 Alpha virt. eigenvalues --   -0.11380   0.24354   0.30559   0.89953   0.92334
 Alpha virt. eigenvalues --    0.92334   1.03758   1.09285   1.20605   1.20605
 Alpha virt. eigenvalues --    1.37890   1.37890   1.73025   2.17677   2.43952

  Beta  occ. eigenvalues --  -24.70911  -1.11410  -0.41540  -0.41540  -0.34705
  Beta virt. eigenvalues --   -0.24988  -0.10893   0.25396   0.30547   0.93773
  Beta virt. eigenvalues --    0.93773   0.97565   1.05652   1.12644   1.21014
  Beta virt. eigenvalues --    1.21014   1.38293   1.38293   1.73586   2.18659

 Mulliken charges and spin densities:
               1          2
     1  H    0.013867  -0.460207
     2  H    0.030352   0.512636
     3  F   -0.044219   0.947571
 Sum of Mulliken charges =  -0.00000   1.00000

 Dipole moment (field-independent basis, Debye):
    X=             -0.8395    Y=             -0.0000    Z=             -0.0000  Tot=              0.8395
 Quadrupole moment (field-independent basis, Debye-Ang):
   XX=             -6.8756   YY=             -7.7142   ZZ=             -7.7142
   XY=             -0.0000   XZ=             -0.0000   YZ=             -0.0000

  Exact polarizability:      60.964      -0.000       2.030      -0.000      -0.000       2.030
 Approx polarizability:      77.480      -0.000       1.997      -0.000       0.000       1.997

 ******    2 imaginary frequencies (negative Signs) ******

                      1                      2                      3
                      A                      A                      A
 Frequencies --  -2051.9048              -279.4136              1019.7316
 Red. masses --      1.0081                 1.1082                 1.0129
 Frc consts  --      2.5007                 0.0510                 0.6205
 IR Inten    --    309.2386                34.5759                 0.0010

                      4
                      A
 Frequencies --   1019.7316
 Red. masses --      1.0129
 Frc consts  --      0.6205
 IR Inten    --      0.0010

 - Thermochemistry -
 -------------------
 Temperature   298.150 Kelvin.  Pressure   1.00000 Atm.
 Atom     1 has atomic number  1 and mass   1.00783

 Molecular mass:    21.01405 amu.
 Principal axes and moments of inertia in atomic units:
                           1         2         3
     Eigenvalues --     0.00000  84.32470  84.32470
           X            1.00000  -0.00000   0.00000
           Y            0.00000   1.00000   0.00000
           Z            0.00000   0.00000   1.00000
 This molecule is a prolate symmetric top.
 Rotational symmetry number  1.
 Rotational temperature (Kelvin)      1.02715
 Rotational constant (GHZ):          21.402284
    2 imaginary frequencies ignored.
 Zero-point vibrational energy      12198.7 (Joules/Mol)
                                    2.91556 (Kcal/Mol)
 Vibrational temperatures:   1467.17  1467.17
          (Kelvin)

 Zero-point correction=                           0.004646 (Hartree/Particle)
 Thermal correction to Energy=                    0.007075
 Thermal correction to Enthalpy=                  0.008019
 Thermal correction to Gibbs Free Energy=        -0.015678
 Sum of electronic and zero-point Energies=           -100.804196
 Sum of electronic and thermal Energies=              -100.801768
 Sum of electronic and thermal Enthalpies=            -100.800823
 Sum of electronic and thermal Free Energies=         -100.824520

                     E (Thermal)             CV                S
                      KCal/Mol        Cal/Mol-Kelvin    Cal/Mol-Kelvin
 Total                    4.440              5.680             49.874
 Electronic               0.000              0.000              1.377
 Translational            0.889              2.981             35.068
 Rotational               0.592              1.987             13.256
 Vibrational              2.958              0.712              0.173

 Normal termination of Gaussian 16 at Fri Aug 22 18:24:55 2025.
