 Gaussian 16, Revision C.01,
 Gaussian 16:  ES64L-G16RevC.01  3-Jul-2019

 -----------------------------------------
 # sp b3lyp/6-311g** Force nosymm scf=(qc)
 -----------------------------------------

 -------------------
 Title Card Required
 -------------------
 Symbolic Z-matrix:
 Charge =  0 Multiplicity = 2

                          Input orientation:
 ---------------------------------------------------------------------
 Center     Atomic      Atomic             Coordinates (Angstroms)
 Number     Number       Type             X           Y           Z
 ---------------------------------------------------------------------
      1          1           0        0.000000    0.000000    0.000000
      2          1           0       -2.350000    0.000000    0.000000
      3          9           0        1.700000    0.000000    0.000000
 ---------------------------------------------------------------------

 SCF Done:  E(UB3LYP) =  -100.821570224     a.u. after   16 cycles

 Alpha  occ. eigenvalues --  -24.65457  -1.11543  -0.44345  -0.37344  -0.37344
 Alpha  occ. eigenvalues --   -0.36056
 Alpha virt. eigenvalues --   -0.14271   0.23546   0.28390   0.94794   0.94794
 Alpha virt. eigenvalues --    0.96795   1.06621   1.21584   1.21584   1.25787
 Alpha virt. eigenvalues --    1.33394   1.33394   1.73407   2.12090   2.24604

  Beta  occ. eigenvalues --  -24.63904  -1.07311  -0.39812  -0.35840  -0.35840
  Beta virt. eigenvalues --   -0.18841  -0.09890   0.24600   0.34032   0.94603
  Beta virt. eigenvalues --    0.94603   0.98175   1.08363   1.25915   1.25915
  Beta virt. eigenvalues --    1.39920   1.39920   1.42430   1.70160   2.13390

 Mulliken charges and spin densities:
               1          2
     1  H    0.264040  -0.448255
     2  H    0.028038   0.959677
     3  F   -0.292078   0.488578
 Sum of Mulliken charges =  -0.00000   1.00000

 Dipole moment (field-independent basis, Debye):
    X=             -2.7362    Y=             -0.0000    Z=             -0.0000  Tot=              2.7362
 Quadrupole moment (field-independent basis, Debye-Ang):
   XX=             -9.3467   YY=             -7.4290   ZZ=             -7.4290
   XY=             -0.0000   XZ=             -0.0000   YZ=              0.0000

  Exact polarizability:      33.618      -0.000       2.131      -0.000       0.000       2.131
 Approx polarizability:      44.800      -0.000       2.035      -0.000      -0.000       2.035

 ******    2 imaginary frequencies (negative Signs) ******

                      1                      2                      3
                      A                      A                      A
 Frequencies --  -1791.9312              -415.5948               771.7973
 Red. masses --      1.0475                 1.0642                 1.0223
 Frc consts  --      1.9817                 0.1083                 0.3588
 IR Inten    --     67.1238                12.5390                55.6813

                      4
                      A
 Frequencies --    771.7973
 Red. masses --      1.0223
 Frc consts  --      0.3588
 IR Inten    --     55.6813

 - Thermochemistry -
 -------------------
 Temperature   298.150 Kelvin.  Pressure   1.00000 Atm.
 Atom     1 has atomic number  1 and mass   1.00783

 Molecular mass:    21.01405 amu.
 Principal axes and moments of inertia in atomic units:
                           1         2         3
     Eigenvalues --     0.00000  63.72706  63.72706
           X            1.00000  -0.00000   0.00000
           Y            0.00000   1.00000   0.00000
           Z            0.00000   0.00000   1.00000
 This molecule is a prolate symmetric top.
 Rotational symmetry number  1.
 Rotational temperature (Kelvin)      1.35914
 Rotational constant (GHZ):          28.319858
    2 imaginary frequencies ignored.
 Zero-point vibrational energy       9232.7 (Joules/Mol)
                                    2.20668 (Kcal/Mol)
 Vibrational temperatures:   1110.44  1110.44
          (Kelvin)

 Zero-point correction=                           0.003517 (Hartree/Particle)
 Thermal correction to Energy=                    0.006051
 Thermal correction to Enthalpy=                  0.006995
 Thermal correction to Gibbs Free Energy=        -0.016575
 Sum of electronic and zero-point Energies=           -100.818054
 Sum of electronic and thermal Energies=              -100.815519
 Sum of electronic and thermal Enthalpies=            -100.814575
 Sum of electronic and thermal Free Energies=         -100.838146

                     E (Thermal)             CV                S
                      KCal/Mol        Cal/Mol-Kelvin    Cal/Mol-Kelvin
 Total                    3.797              6.365             49.608
 Electronic               0.000              0.000              1.377
 Translational            0.889              2.981             35.068
 Rotational               0.592              1.987             12.700
 Vibrational              2.316              1.397              0.463

 Normal termination of Gaussian 16 at Fri Aug 22 16:37:46 2025.
