 Gaussian 16, Revision C.01,
 Gaussian 16:  ES64L-G16RevC.01  3-Jul-2019

 -----------------------------------------
 # sp b3lyp/6-311g** Force nosymm scf=(qc)
 -----------------------------------------

 -------------------
 Title Card Required
 -------------------
 Symbolic Z-matrix:
 Charge =  0 Multiplicity = 2

                          Input orientation:
 ---------------------------------------------------------------------
 Center     Atomic      Atomic             Coordinates (Angstroms)
 Number     Number       Type             X           Y           Z
 ---------------------------------------------------------------------
      1          1           0        0.000000    0.000000    0.000000
      2          1           0       -2.650000    0.000000    0.000000
      3          9           0        1.950000    0.000000    0.000000
 ---------------------------------------------------------------------

 SCF Done:  E(UB3LYP) =  -100.793043114     a.u. after   13 cycles

 Alpha  occ. eigenvalues --  -24.67740  -1.14045  -0.46698  -0.39332  -0.39332
 Alpha  occ. eigenvalues --   -0.34640
 Alpha virt. eigenvalues --   -0.14050   0.23575   0.30650   0.90180   0.94961
 Alpha virt. eigenvalues --    0.94961   1.06155   1.22960   1.22960   1.24994
 Alpha virt. eigenvalues --    1.34740   1.34740   1.62909   2.14004   2.28591

  Beta  occ. eigenvalues --  -24.65459  -1.07688  -0.38106  -0.37088  -0.37088
  Beta virt. eigenvalues --   -0.20464  -0.09342   0.24243   0.35341   0.91840
  Beta virt. eigenvalues --    0.95465   0.95465   1.08564   1.22535   1.22535
  Beta virt. eigenvalues --    1.42289   1.42289   1.42770   1.57134   2.13225

 Mulliken charges and spin densities:
               1          2
     1  H    0.194122  -0.696637
     2  H    0.013397   0.979404
     3  F   -0.207519   0.717233
 Sum of Mulliken charges =   0.00000   1.00000

 Dipole moment (field-independent basis, Debye):
    X=             -2.1639    Y=             -0.0000    Z=              0.0000  Tot=              2.1639
 Quadrupole moment (field-independent basis, Debye-Ang):
   XX=             -9.5951   YY=             -7.5019   ZZ=             -7.5019
   XY=             -0.0000   XZ=             -0.0000   YZ=             -0.0000

  Exact polarizability:      33.822       0.000       2.067      -0.000       0.000       2.067
 Approx polarizability:      43.001      -0.000       1.958      -0.000       0.000       1.958

 ******    2 imaginary frequencies (negative Signs) ******

                      1                      2                      3
                      A                      A                      A
 Frequencies --  -1260.0589              -331.5566               530.1029
 Red. masses --      1.0493                 1.0623                 1.0221
 Frc consts  --      0.9816                 0.0688                 0.1692
 IR Inten    --    105.2233                 8.8336                32.1080

                      4
                      A
 Frequencies --    530.1029
 Red. masses --      1.0221
 Frc consts  --      0.1692
 IR Inten    --     32.1080

 - Thermochemistry -
 -------------------
 Temperature   298.150 Kelvin.  Pressure   1.00000 Atm.
 Atom     1 has atomic number  1 and mass   1.00783

 Molecular mass:    21.01405 amu.
 Principal axes and moments of inertia in atomic units:
                           1         2         3
     Eigenvalues --     0.00000  82.43498  82.43498
           X            1.00000  -0.00000   0.00000
           Y            0.00000   1.00000   0.00000
           Z            0.00000   0.00000   1.00000
 This molecule is a prolate symmetric top.
 Rotational symmetry number  1.
 Rotational temperature (Kelvin)      1.05069
 Rotational constant (GHZ):          21.892905
    2 imaginary frequencies ignored.
 Zero-point vibrational energy       6341.4 (Joules/Mol)
                                    1.51564 (Kcal/Mol)
 Warning -- explicit consideration of   2 degrees of freedom as
           vibrations may cause significant error
 Vibrational temperatures:    762.70   762.70
          (Kelvin)

 Zero-point correction=                           0.002415 (Hartree/Particle)
 Thermal correction to Energy=                    0.005181
 Thermal correction to Enthalpy=                  0.006126
 Thermal correction to Gibbs Free Energy=        -0.018026
 Sum of electronic and zero-point Energies=           -100.790628
 Sum of electronic and thermal Energies=              -100.787862
 Sum of electronic and thermal Enthalpies=            -100.786918
 Sum of electronic and thermal Free Energies=         -100.811069

                     E (Thermal)             CV                S
                      KCal/Mol        Cal/Mol-Kelvin    Cal/Mol-Kelvin
 Total                    3.251              7.335             50.831
 Electronic               0.000              0.000              1.377
 Translational            0.889              2.981             35.068
 Rotational               0.592              1.987             13.211
 Vibrational              1.770              2.367              1.174
 Vibration     1          0.885              1.183              0.587
 Vibration     2          0.885              1.183              0.587

 Normal termination of Gaussian 16 at Fri Aug 22 16:53:51 2025.
