 Gaussian 16, Revision C.01,
 Gaussian 16:  ES64L-G16RevC.01  3-Jul-2019

 -----------------------------------------
 # sp b3lyp/6-311g** Force nosymm scf=(qc)
 -----------------------------------------

 -------------------
 Title Card Required
 -------------------
 Symbolic Z-matrix:
 Charge =  0 Multiplicity = 2

                          Input orientation:
 ---------------------------------------------------------------------
 Center     Atomic      Atomic             Coordinates (Angstroms)
 Number     Number       Type             X           Y           Z
 ---------------------------------------------------------------------
      1          1           0        0.000000    0.000000    0.000000
      2          1           0       -2.200000    0.000000    0.000000
      3          9           0        1.600000    0.000000    0.000000
 ---------------------------------------------------------------------

 SCF Done:  E(UB3LYP) =  -100.838967899     a.u. after   12 cycles

 Alpha  occ. eigenvalues --  -24.64544  -1.10492  -0.43746  -0.36676  -0.36573
 Alpha  occ. eigenvalues --   -0.36573
 Alpha virt. eigenvalues --   -0.13497   0.23471   0.27665   0.94542   0.94542
 Alpha virt. eigenvalues --    1.00044   1.06712   1.20862   1.20862   1.27601
 Alpha virt. eigenvalues --    1.33157   1.33157   1.74529   2.10666   2.24054

  Beta  occ. eigenvalues --  -24.63462  -1.07583  -0.40728  -0.35534  -0.35534
  Beta virt. eigenvalues --   -0.18363  -0.09230   0.25154   0.33409   0.94274
  Beta virt. eigenvalues --    0.94274   1.01925   1.08193   1.28140   1.28140
  Beta virt. eigenvalues --    1.38855   1.38855   1.43002   1.72759   2.14031

 Mulliken charges and spin densities:
               1          2
     1  H    0.290444  -0.289289
     2  H    0.036047   0.948931
     3  F   -0.326492   0.340359
 Sum of Mulliken charges =   0.00000   1.00000

 Dipole moment (field-independent basis, Debye):
    X=             -2.9323    Y=              0.0000    Z=             -0.0000  Tot=              2.9323
 Quadrupole moment (field-independent basis, Debye-Ang):
   XX=             -9.1508   YY=             -7.3769   ZZ=             -7.3769
   XY=              0.0000   XZ=             -0.0000   YZ=              0.0000

  Exact polarizability:      31.883       0.000       2.172      -0.000      -0.000       2.172
 Approx polarizability:      44.003      -0.000       2.089       0.000      -0.000       2.089

 ******    2 imaginary frequencies (negative Signs) ******

                      1                      2                      3
                      A                      A                      A
 Frequencies --  -1950.9743              -420.7956               885.7306
 Red. masses --      1.0442                 1.0676                 1.0222
 Frc consts  --      2.3418                 0.1114                 0.4725
 IR Inten    --     15.9010                 8.6545                65.5391

                      4
                      A
 Frequencies --    885.7306
 Red. masses --      1.0222
 Frc consts  --      0.4725
 IR Inten    --     65.5391

 - Thermochemistry -
 -------------------
 Temperature   298.150 Kelvin.  Pressure   1.00000 Atm.
 Atom     1 has atomic number  1 and mass   1.00783

 Molecular mass:    21.01405 amu.
 Principal axes and moments of inertia in atomic units:
                           1         2         3
     Eigenvalues --     0.00000  56.14993  56.14993
           X            1.00000  -0.00000   0.00000
           Y            0.00000   1.00000   0.00000
           Z            0.00000   0.00000   1.00000
 This molecule is a prolate symmetric top.
 Rotational symmetry number  1.
 Rotational temperature (Kelvin)      1.54255
 Rotational constant (GHZ):          32.141470
    2 imaginary frequencies ignored.
 Zero-point vibrational energy      10595.7 (Joules/Mol)
                                    2.53243 (Kcal/Mol)
 Vibrational temperatures:   1274.37  1274.37
          (Kelvin)

 Zero-point correction=                           0.004036 (Hartree/Particle)
 Thermal correction to Energy=                    0.006510
 Thermal correction to Enthalpy=                  0.007454
 Thermal correction to Gibbs Free Energy=        -0.015917
 Sum of electronic and zero-point Energies=           -100.834932
 Sum of electronic and thermal Energies=              -100.832458
 Sum of electronic and thermal Enthalpies=            -100.831514
 Sum of electronic and thermal Free Energies=         -100.854885

                     E (Thermal)             CV                S
                      KCal/Mol        Cal/Mol-Kelvin    Cal/Mol-Kelvin
 Total                    4.085              6.008             49.189
 Electronic               0.000              0.000              1.377
 Translational            0.889              2.981             35.068
 Rotational               0.592              1.987             12.448
 Vibrational              2.604              1.040              0.296

 Normal termination of Gaussian 16 at Fri Aug 22 16:31:20 2025.
