 Gaussian 16, Revision C.01,
 Gaussian 16:  ES64L-G16RevC.01  3-Jul-2019

 -----------------------------------------
 # sp b3lyp/6-311g** Force nosymm scf=(qc)
 -----------------------------------------

 -------------------
 Title Card Required
 -------------------
 Symbolic Z-matrix:
 Charge =  0 Multiplicity = 2

                          Input orientation:
 ---------------------------------------------------------------------
 Center     Atomic      Atomic             Coordinates (Angstroms)
 Number     Number       Type             X           Y           Z
 ---------------------------------------------------------------------
      1          1           0        0.000000    0.000000    0.000000
      2          1           0       -1.100000    0.000000    0.000000
      3          9           0        3.500000    0.000000    0.000000
 ---------------------------------------------------------------------

 SCF Done:  E(UB3LYP) =  -100.889848308     a.u. after  402 cycles

 Alpha  occ. eigenvalues --  -24.76371  -1.22240  -0.55440  -0.46635  -0.46594
 Alpha  occ. eigenvalues --   -0.37482
 Alpha virt. eigenvalues --   -0.01836   0.22149   0.36221   0.85962   0.90838
 Alpha virt. eigenvalues --    0.92311   1.01515   1.10821   1.10824   1.29752
 Alpha virt. eigenvalues --    1.59935   1.59938   2.16640   2.34337   2.55427

  Beta  occ. eigenvalues --  -24.73214  -1.13162  -0.43471  -0.43428  -0.37478
  Beta virt. eigenvalues --   -0.26080  -0.01829   0.22158   0.36258   0.92338
  Beta virt. eigenvalues --    0.93822   0.95426   1.05607   1.10821   1.10824
  Beta virt. eigenvalues --    1.29759   1.59935   1.59938   2.16647   2.34340

 Mulliken charges and spin densities:
               1          2
     1  H   -0.000136  -0.000235
     2  H   -0.003071  -0.000138
     3  F    0.003207   1.000373
 Sum of Mulliken charges =  -0.00000   1.00000

 Dipole moment (field-independent basis, Debye):
    X=              0.0477    Y=             -0.0000    Z=              0.0000  Tot=              0.0477
 Quadrupole moment (field-independent basis, Debye-Ang):
   XX=             -6.2569   YY=             -6.5259   ZZ=             -7.3899
   XY=              0.0000   XZ=             -0.0000   YZ=             -0.0102

  Exact polarizability:      14.045       0.000       2.538       0.000      -0.006       2.074
 Approx polarizability:      19.667       0.000       2.695      -0.000      -0.007       2.113

 ******    1 imaginary frequencies (negative Signs) ******

                      1                      2                      3
                      A                      A                      A
 Frequencies --    -42.2479              1027.1610              1528.5307
 Red. masses --      1.1085                 1.0078                 1.0097
 Frc consts  --      0.0012                 0.6265                 1.3899
 IR Inten    --      0.1632                 0.1749                 0.0005

                      4
                      A
 Frequencies --   1529.2056
 Red. masses --      1.0097
 Frc consts  --      1.3911
 IR Inten    --      0.0005

 - Thermochemistry -
 -------------------
 Temperature   298.150 Kelvin.  Pressure   1.00000 Atm.
 Atom     1 has atomic number  1 and mass   1.00783

 Molecular mass:    21.01405 amu.
 Principal axes and moments of inertia in atomic units:
                           1         2         3
     Eigenvalues --     0.00000 108.91814 108.91814
           X            1.00000  -0.00000   0.00000
           Y            0.00000   1.00000   0.00000
           Z            0.00000   0.00000   1.00000
 This molecule is a prolate symmetric top.
 Rotational symmetry number  1.
 Rotational temperature (Kelvin)      0.79522
 Rotational constant (GHZ):          16.569703
    1 imaginary frequencies ignored.
 Zero-point vibrational energy      24433.1 (Joules/Mol)
                                    5.83965 (Kcal/Mol)
 Vibrational temperatures:   1477.86  2199.21  2200.19
          (Kelvin)

 Zero-point correction=                           0.009306 (Hartree/Particle)
 Thermal correction to Energy=                    0.011708
 Thermal correction to Enthalpy=                  0.012653
 Thermal correction to Gibbs Free Energy=        -0.011254
 Sum of electronic and zero-point Energies=           -100.880542
 Sum of electronic and thermal Energies=              -100.878140
 Sum of electronic and thermal Enthalpies=            -100.877196
 Sum of electronic and thermal Free Energies=         -100.901102

                     E (Thermal)             CV                S
                      KCal/Mol        Cal/Mol-Kelvin    Cal/Mol-Kelvin
 Total                    7.347              5.452             50.315
 Electronic               0.000              0.000              1.377
 Translational            0.889              2.981             35.068
 Rotational               0.592              1.987             13.765
 Vibrational              5.866              0.484              0.105

 Normal termination of Gaussian 16 at Fri Aug 22 21:55:47 2025.
