 Gaussian 16, Revision C.01,
 Gaussian 16:  ES64L-G16RevC.01  3-Jul-2019

 -----------------------------------------
 # sp b3lyp/6-311g** Force nosymm scf=(qc)
 -----------------------------------------

 -------------------
 Title Card Required
 -------------------
 Symbolic Z-matrix:
 Charge =  0 Multiplicity = 2

                          Input orientation:
 ---------------------------------------------------------------------
 Center     Atomic      Atomic             Coordinates (Angstroms)
 Number     Number       Type             X           Y           Z
 ---------------------------------------------------------------------
      1          1           0        0.000000    0.000000    0.000000
      2          1           0       -3.900000    0.000000    0.000000
      3          9           0        2.900000    0.000000    0.000000
 ---------------------------------------------------------------------

 SCF Done:  E(UB3LYP) =  -100.761616267     a.u. after   21 cycles

 Alpha  occ. eigenvalues --  -24.73695  -1.19784  -0.52813  -0.44348  -0.44348
 Alpha  occ. eigenvalues --   -0.32512
 Alpha virt. eigenvalues --   -0.08151   0.23816   0.36120   0.89627   0.92508
 Alpha virt. eigenvalues --    0.92508   1.04442   1.24985   1.24985   1.25013
 Alpha virt. eigenvalues --    1.43703   1.43703   1.44733   2.14352   2.40407

  Beta  occ. eigenvalues --  -24.70695  -1.11195  -0.41347  -0.41347  -0.33986
  Beta virt. eigenvalues --   -0.24548  -0.06026   0.23776   0.38123   0.93960
  Beta virt. eigenvalues --    0.93960   0.98119   1.08016   1.23325   1.23325
  Beta virt. eigenvalues --    1.24117   1.46510   1.46661   1.46661   2.14182

 Mulliken charges and spin densities:
               1          2
     1  H    0.045114  -0.949487
     2  H    0.000184   0.999230
     3  F   -0.045297   0.950257
 Sum of Mulliken charges =  -0.00000   1.00000

 Dipole moment (field-independent basis, Debye):
    X=             -0.6774    Y=              0.0000    Z=             -0.0000  Tot=              0.6774
 Quadrupole moment (field-independent basis, Debye-Ang):
   XX=             -8.5507   YY=             -7.6003   ZZ=             -7.6003
   XY=              0.0000   XZ=             -0.0000   YZ=             -0.0000

  Exact polarizability:      31.296       0.000       2.026      -0.000       0.000       2.026
 Approx polarizability:      33.874       0.000       1.925      -0.000      -0.000       1.925

 ******    2 imaginary frequencies (negative Signs) ******

                      1                      2                      3
                      A                      A                      A
 Frequencies --   -403.6980               -76.8544               143.7812
 Red. masses --      1.0544                 1.0571                 1.0219
 Frc consts  --      0.1012                 0.0037                 0.0124
 IR Inten    --     47.0307                 0.0879                 1.9663

                      4
                      A
 Frequencies --    143.7812
 Red. masses --      1.0219
 Frc consts  --      0.0124
 IR Inten    --      1.9663

 - Thermochemistry -
 -------------------
 Temperature   298.150 Kelvin.  Pressure   1.00000 Atm.
 Atom     1 has atomic number  1 and mass   1.00783

 Molecular mass:    21.01405 amu.
 Principal axes and moments of inertia in atomic units:
                           1         2         3
     Eigenvalues --     0.00000 180.44523 180.44523
           X            1.00000  -0.00000   0.00000
           Y            0.00000   1.00000   0.00000
           Z            0.00000   0.00000   1.00000
 This molecule is a prolate symmetric top.
 Rotational symmetry number  1.
 Rotational temperature (Kelvin)      0.48000
 Rotational constant (GHZ):          10.001601
    2 imaginary frequencies ignored.
 Zero-point vibrational energy       1720.0 (Joules/Mol)
                                    0.41109 (Kcal/Mol)
 Warning -- explicit consideration of   2 degrees of freedom as
           vibrations may cause significant error
 Vibrational temperatures:    206.87   206.87
          (Kelvin)

 Zero-point correction=                           0.000655 (Hartree/Particle)
 Thermal correction to Energy=                    0.004324
 Thermal correction to Enthalpy=                  0.005268
 Thermal correction to Gibbs Free Energy=        -0.021681
 Sum of electronic and zero-point Energies=           -100.760961
 Sum of electronic and thermal Energies=              -100.757292
 Sum of electronic and thermal Enthalpies=            -100.756348
 Sum of electronic and thermal Free Energies=         -100.783297

                     E (Thermal)             CV                S
                      KCal/Mol        Cal/Mol-Kelvin    Cal/Mol-Kelvin
 Total                    2.713              8.787             56.719
 Electronic               0.000              0.000              1.377
 Translational            0.889              2.981             35.068
 Rotational               0.592              1.987             14.768
 Vibrational              1.232              3.819              5.506
 Vibration     1          0.616              1.909              2.753
 Vibration     2          0.616              1.909              2.753

 Normal termination of Gaussian 16 at Fri Aug 22 19:05:11 2025.
