 Gaussian 16, Revision C.01,
 Gaussian 16:  ES64L-G16RevC.01  3-Jul-2019

 -----------------------------------------
 # sp b3lyp/6-311g** Force nosymm scf=(qc)
 -----------------------------------------

 -------------------
 Title Card Required
 -------------------
 Symbolic Z-matrix:
 Charge =  0 Multiplicity = 2

                          Input orientation:
 ---------------------------------------------------------------------
 Center     Atomic      Atomic             Coordinates (Angstroms)
 Number     Number       Type             X           Y           Z
 ---------------------------------------------------------------------
      1          1           0        0.000000    0.000000    0.000000
      2          1           0       -3.550000    0.000000    0.000000
      3          9           0        3.100000    0.000000    0.000000
 ---------------------------------------------------------------------

 SCF Done:  E(UB3LYP) =  -100.760433120     a.u. after   21 cycles

 Alpha  occ. eigenvalues --  -24.74420  -1.20455  -0.53540  -0.44955  -0.44955
 Alpha  occ. eigenvalues --   -0.32481
 Alpha virt. eigenvalues --   -0.07788   0.24055   0.36293   0.89029   0.92074
 Alpha virt. eigenvalues --    0.92074   1.03355   1.25024   1.25024   1.25154
 Alpha virt. eigenvalues --    1.44378   1.44378   1.44631   2.14803   2.40600

  Beta  occ. eigenvalues --  -24.71370  -1.11707  -0.41901  -0.41901  -0.33499
  Beta virt. eigenvalues --   -0.24963  -0.06466   0.23921   0.37940   0.93543
  Beta virt. eigenvalues --    0.93543   0.97841   1.07160   1.23851   1.23851
  Beta virt. eigenvalues --    1.24113   1.45936   1.46180   1.46180   2.15061

 Mulliken charges and spin densities:
               1          2
     1  H    0.029960  -0.964960
     2  H    0.000336   0.998168
     3  F   -0.030295   0.966792
 Sum of Mulliken charges =  -0.00000   1.00000

 Dipole moment (field-independent basis, Debye):
    X=             -0.4882    Y=             -0.0000    Z=              0.0000  Tot=              0.4882
 Quadrupole moment (field-independent basis, Debye-Ang):
   XX=             -8.1099   YY=             -7.6127   ZZ=             -7.6127
   XY=             -0.0000   XZ=              0.0000   YZ=              0.0000

  Exact polarizability:      30.939      -0.000       2.027       0.000       0.000       2.027
 Approx polarizability:      29.900      -0.000       1.928       0.000      -0.000       1.928

 ******    2 imaginary frequencies (negative Signs) ******

                      1                      2                      3
                      A                      A                      A
 Frequencies --   -340.5463              -110.4491               117.9749
 Red. masses --      1.0451                 1.0667                 1.0197
 Frc consts  --      0.0714                 0.0077                 0.0084
 IR Inten    --     32.4642                 0.6427                 0.8367

                      4
                      A
 Frequencies --    117.9749
 Red. masses --      1.0197
 Frc consts  --      0.0084
 IR Inten    --      0.8367

 - Thermochemistry -
 -------------------
 Temperature   298.150 Kelvin.  Pressure   1.00000 Atm.
 Atom     1 has atomic number  1 and mass   1.00783

 Molecular mass:    21.01405 amu.
 Principal axes and moments of inertia in atomic units:
                           1         2         3
     Eigenvalues --     0.00000 177.33518 177.33518
           X            1.00000  -0.00000   0.00000
           Y            0.00000   1.00000   0.00000
           Z            0.00000   0.00000   1.00000
 This molecule is a prolate symmetric top.
 Rotational symmetry number  1.
 Rotational temperature (Kelvin)      0.48842
 Rotational constant (GHZ):          10.177006
    2 imaginary frequencies ignored.
 Zero-point vibrational energy       1411.3 (Joules/Mol)
                                    0.33731 (Kcal/Mol)
 Warning -- explicit consideration of   2 degrees of freedom as
           vibrations may cause significant error
 Vibrational temperatures:    169.74   169.74
          (Kelvin)

 Zero-point correction=                           0.000538 (Hartree/Particle)
 Thermal correction to Energy=                    0.004300
 Thermal correction to Enthalpy=                  0.005244
 Thermal correction to Gibbs Free Energy=        -0.022050
 Sum of electronic and zero-point Energies=           -100.759896
 Sum of electronic and thermal Energies=              -100.756134
 Sum of electronic and thermal Enthalpies=            -100.755189
 Sum of electronic and thermal Free Energies=         -100.782484

                     E (Thermal)             CV                S
                      KCal/Mol        Cal/Mol-Kelvin    Cal/Mol-Kelvin
 Total                    2.698              8.837             57.445
 Electronic               0.000              0.000              1.377
 Translational            0.889              2.981             35.068
 Rotational               0.592              1.987             14.733
 Vibrational              1.217              3.869              6.267
 Vibration     1          0.608              1.934              3.133
 Vibration     2          0.608              1.934              3.133

 Normal termination of Gaussian 16 at Fri Aug 22 19:56:23 2025.
