 Gaussian 16, Revision C.01,
 Gaussian 16:  ES64L-G16RevC.01  3-Jul-2019

 -----------------------------------------
 # sp b3lyp/6-311g** Force nosymm scf=(qc)
 -----------------------------------------

 -------------------
 Title Card Required
 -------------------
 Symbolic Z-matrix:
 Charge =  0 Multiplicity = 2

                          Input orientation:
 ---------------------------------------------------------------------
 Center     Atomic      Atomic             Coordinates (Angstroms)
 Number     Number       Type             X           Y           Z
 ---------------------------------------------------------------------
      1          1           0        0.000000    0.000000    0.000000
      2          1           0       -2.450000    0.000000    0.000000
      3          9           0        2.100000    0.000000    0.000000
 ---------------------------------------------------------------------

 SCF Done:  E(UB3LYP) =  -100.785306282     a.u. after   18 cycles

 Alpha  occ. eigenvalues --  -24.68924  -1.15242  -0.47955  -0.40333  -0.40333
 Alpha  occ. eigenvalues --   -0.34748
 Alpha virt. eigenvalues --   -0.13498   0.24205   0.31551   0.89048   0.94807
 Alpha virt. eigenvalues --    0.94807   1.06302   1.22923   1.22923   1.26330
 Alpha virt. eigenvalues --    1.35486   1.35486   1.55191   2.13670   2.29613

  Beta  occ. eigenvalues --  -24.66412  -1.08183  -0.37849  -0.37849  -0.37125
  Beta virt. eigenvalues --   -0.21459  -0.10074   0.25307   0.34400   0.92042
  Beta virt. eigenvalues --    0.95717   0.95717   1.08814   1.22024   1.22024
  Beta virt. eigenvalues --    1.40838   1.40838   1.42613   1.48076   2.13064

 Mulliken charges and spin densities:
               1          2
     1  H    0.147675  -0.756334
     2  H    0.018370   0.965728
     3  F   -0.166044   0.790605
 Sum of Mulliken charges =   0.00000   1.00000

 Dipole moment (field-independent basis, Debye):
    X=             -1.9526    Y=              0.0000    Z=             -0.0000  Tot=              1.9526
 Quadrupole moment (field-independent basis, Debye-Ang):
   XX=             -9.2774   YY=             -7.5483   ZZ=             -7.5483
   XY=             -0.0000   XZ=              0.0000   YZ=             -0.0000

  Exact polarizability:      40.274      -0.000       2.043       0.000       0.000       2.043
 Approx polarizability:      47.307       0.000       1.938      -0.000      -0.000       1.938

 ******    2 imaginary frequencies (negative Signs) ******

                      1                      2                      3
                      A                      A                      A
 Frequencies --  -1110.5572              -411.3600               463.1489
 Red. masses --      1.0365                 1.0758                 1.0199
 Frc consts  --      0.7532                 0.1073                 0.1289
 IR Inten    --     84.2476                20.3207                17.6753

                      4
                      A
 Frequencies --    463.1489
 Red. masses --      1.0199
 Frc consts  --      0.1289
 IR Inten    --     17.6753

 - Thermochemistry -
 -------------------
 Temperature   298.150 Kelvin.  Pressure   1.00000 Atm.
 Atom     1 has atomic number  1 and mass   1.00783

 Molecular mass:    21.01405 amu.
 Principal axes and moments of inertia in atomic units:
                           1         2         3
     Eigenvalues --     0.00000  82.74699  82.74699
           X            1.00000  -0.00000   0.00000
           Y            0.00000   1.00000   0.00000
           Z            0.00000   0.00000   1.00000
 This molecule is a prolate symmetric top.
 Rotational symmetry number  1.
 Rotational temperature (Kelvin)      1.04673
 Rotational constant (GHZ):          21.810354
    2 imaginary frequencies ignored.
 Zero-point vibrational energy       5540.5 (Joules/Mol)
                                    1.32421 (Kcal/Mol)
 Warning -- explicit consideration of   2 degrees of freedom as
           vibrations may cause significant error
 Vibrational temperatures:    666.37   666.37
          (Kelvin)

 Zero-point correction=                           0.002110 (Hartree/Particle)
 Thermal correction to Energy=                    0.004976
 Thermal correction to Enthalpy=                  0.005921
 Thermal correction to Gibbs Free Energy=        -0.018396
 Sum of electronic and zero-point Energies=           -100.783196
 Sum of electronic and thermal Energies=              -100.780330
 Sum of electronic and thermal Enthalpies=            -100.779386
 Sum of electronic and thermal Free Energies=         -100.803702

                     E (Thermal)             CV                S
                      KCal/Mol        Cal/Mol-Kelvin    Cal/Mol-Kelvin
 Total                    3.123              7.632             51.178
 Electronic               0.000              0.000              1.377
 Translational            0.889              2.981             35.068
 Rotational               0.592              1.987             13.219
 Vibrational              1.642              2.664              1.514
 Vibration     1          0.821              1.332              0.757
 Vibration     2          0.821              1.332              0.757

 Normal termination of Gaussian 16 at Fri Aug 22 17:04:15 2025.
