 Gaussian 16, Revision C.01,
 Gaussian 16:  ES64L-G16RevC.01  3-Jul-2019

 -----------------------------------------
 # sp b3lyp/6-311g** Force nosymm scf=(qc)
 -----------------------------------------

 -------------------
 Title Card Required
 -------------------
 Symbolic Z-matrix:
 Charge =  0 Multiplicity = 2

                          Input orientation:
 ---------------------------------------------------------------------
 Center     Atomic      Atomic             Coordinates (Angstroms)
 Number     Number       Type             X           Y           Z
 ---------------------------------------------------------------------
      1          1           0        0.000000    0.000000    0.000000
      2          1           0       -2.800000    0.000000    0.000000
      3          9           0        2.050000    0.000000    0.000000
 ---------------------------------------------------------------------

 SCF Done:  E(UB3LYP) =  -100.783199210     a.u. after   24 cycles

 Alpha  occ. eigenvalues --  -24.65753  -1.07758  -0.37925  -0.37326  -0.37326
 Alpha  occ. eigenvalues --   -0.33628
 Alpha virt. eigenvalues --   -0.20807   0.21627   0.27167   0.91125   0.95843
 Alpha virt. eigenvalues --    0.95843   1.08624   1.21770   1.21770   1.23448
 Alpha virt. eigenvalues --    1.23448   1.24563   1.50728   2.12766   2.14504

  Beta  occ. eigenvalues --  -24.68165  -1.14515  -0.47155  -0.39707  -0.39707
  Beta virt. eigenvalues --   -0.14255  -0.05114   0.31021   0.38660   0.89446
  Beta virt. eigenvalues --    0.95094   0.95094   1.06599   1.35914   1.35914
  Beta virt. eigenvalues --    1.46644   1.46644   1.47437   1.58601   2.30993

 Mulliken charges and spin densities:
               1          2
     1  H    0.180273   0.766499
     2  H    0.007882   0.992342
     3  F   -0.188155  -0.758841
 Sum of Mulliken charges =   0.00000   1.00000

 Dipole moment (field-independent basis, Debye):
    X=             -2.0197    Y=              0.0000    Z=              0.0000  Tot=              2.0197
 Quadrupole moment (field-independent basis, Debye-Ang):
   XX=             -9.9979   YY=             -7.4822   ZZ=             -7.4822
   XY=              0.0000   XZ=              0.0000   YZ=              0.0000

  Exact polarizability:      34.065       0.000       2.055       0.000      -0.000       2.055
 Approx polarizability:      47.266       0.000       1.945       0.000       0.000       1.945

 ******    1 imaginary frequencies (negative Signs) ******

                      1                      2                      3
                      A                      A                      A
 Frequencies --  -1025.8246               160.1696               433.8681
 Red. masses --      1.0625                 1.0492                 1.0221
 Frc consts  --      0.6587                 0.0159                 0.1134
 IR Inten    --     74.1357                 6.0802                28.6079

                      4
                      A
 Frequencies --    433.8681
 Red. masses --      1.0221
 Frc consts  --      0.1134
 IR Inten    --     28.6079

 - Thermochemistry -
 -------------------
 Temperature   298.150 Kelvin.  Pressure   1.00000 Atm.
 Atom     1 has atomic number  1 and mass   1.00783

 Molecular mass:    21.01405 amu.
 Principal axes and moments of inertia in atomic units:
                           1         2         3
     Eigenvalues --     0.00000  91.56470  91.56470
           X            1.00000  -0.00000   0.00000
           Y            0.00000   1.00000   0.00000
           Z            0.00000   0.00000   1.00000
 This molecule is a prolate symmetric top.
 Rotational symmetry number  1.
 Rotational temperature (Kelvin)      0.94593
 Rotational constant (GHZ):          19.710011
    1 imaginary frequencies ignored.
 Zero-point vibrational energy       6148.2 (Joules/Mol)
                                    1.46946 (Kcal/Mol)
 Warning -- explicit consideration of   3 degrees of freedom as
           vibrations may cause significant error
 Vibrational temperatures:    230.45   624.24   624.24
          (Kelvin)

 Zero-point correction=                           0.002342 (Hartree/Particle)
 Thermal correction to Energy=                    0.005884
 Thermal correction to Enthalpy=                  0.006828
 Thermal correction to Gibbs Free Energy=        -0.018879
 Sum of electronic and zero-point Energies=           -100.780857
 Sum of electronic and thermal Energies=              -100.777315
 Sum of electronic and thermal Enthalpies=            -100.776371
 Sum of electronic and thermal Free Energies=         -100.802079

                     E (Thermal)             CV                S
                      KCal/Mol        Cal/Mol-Kelvin    Cal/Mol-Kelvin
 Total                    3.692              9.652             54.105
 Electronic               0.000              0.000              1.377
 Translational            0.889              2.981             35.068
 Rotational               0.592              1.987             13.420
 Vibrational              2.211              4.684              4.240
 Vibration     1          0.622              1.891              2.548
 Vibration     2          0.795              1.396              0.846
 Vibration     3          0.795              1.396              0.846

 Normal termination of Gaussian 16 at Fri Aug 22 17:00:57 2025.
