 Gaussian 16, Revision C.01,
 Gaussian 16:  ES64L-G16RevC.01  3-Jul-2019

 -----------------------------------------
 # sp b3lyp/6-311g** Force nosymm scf=(qc)
 -----------------------------------------

 -------------------
 Title Card Required
 -------------------
 Symbolic Z-matrix:
 Charge =  0 Multiplicity = 2

                          Input orientation:
 ---------------------------------------------------------------------
 Center     Atomic      Atomic             Coordinates (Angstroms)
 Number     Number       Type             X           Y           Z
 ---------------------------------------------------------------------
      1          1           0        0.000000    0.000000    0.000000
      2          1           0       -2.350000    0.000000    0.000000
      3          9           0        1.200000    0.000000    0.000000
 ---------------------------------------------------------------------

 SCF Done:  E(UB3LYP) =  -100.926600977     a.u. after    7 cycles

 Alpha  occ. eigenvalues --  -24.64049  -1.12057  -0.47693  -0.37279  -0.37279
 Alpha  occ. eigenvalues --   -0.35668
 Alpha virt. eigenvalues --   -0.04448   0.24528   0.28498   0.93419   0.93419
 Alpha virt. eigenvalues --    1.00929   1.18633   1.21845   1.21845   1.34927
 Alpha virt. eigenvalues --    1.34927   1.35269   1.73934   2.12593   2.29802

  Beta  occ. eigenvalues --  -24.63982  -1.11889  -0.47394  -0.37218  -0.37218
  Beta virt. eigenvalues --   -0.12321  -0.01665   0.28463   0.35908   0.93416
  Beta virt. eigenvalues --    0.93416   1.01099   1.25948   1.34756   1.34756
  Beta virt. eigenvalues --    1.42504   1.42504   1.47602   1.74144   2.28344

 Mulliken charges and spin densities:
               1          2
     1  H    0.343073  -0.002011
     2  H    0.014057   0.981760
     3  F   -0.357130   0.020251
 Sum of Mulliken charges =   0.00000   1.00000

 Dipole moment (field-independent basis, Debye):
    X=             -2.4564    Y=             -0.0000    Z=              0.0000  Tot=              2.4564
 Quadrupole moment (field-independent basis, Debye-Ang):
   XX=             -8.4567   YY=             -7.1169   ZZ=             -7.1169
   XY=              0.0000   XZ=              0.0000   YZ=             -0.0000

  Exact polarizability:      13.527      -0.000       2.355       0.000       0.000       2.355
 Approx polarizability:      17.128      -0.000       2.314      -0.000       0.000       2.314

 ******    1 imaginary frequencies (negative Signs) ******

                      1                      2                      3
                      A                      A                      A
 Frequencies --   -225.1271               907.7440              1175.1726
 Red. masses --      1.0417                 1.0702                 1.0277
 Frc consts  --      0.0311                 0.5196                 0.8362
 IR Inten    --     11.1445               137.7240               125.6367

                      4
                      A
 Frequencies --   1175.1726
 Red. masses --      1.0277
 Frc consts  --      0.8362
 IR Inten    --    125.6367

 - Thermochemistry -
 -------------------
 Temperature   298.150 Kelvin.  Pressure   1.00000 Atm.
 Atom     1 has atomic number  1 and mass   1.00783

 Molecular mass:    21.01405 amu.
 Principal axes and moments of inertia in atomic units:
                           1         2         3
     Eigenvalues --     0.00000  46.64463  46.64463
           X            1.00000  -0.00000   0.00000
           Y            0.00000   1.00000   0.00000
           Z            0.00000   0.00000   1.00000
 This molecule is a prolate symmetric top.
 Rotational symmetry number  1.
 Rotational temperature (Kelvin)      1.85689
 Rotational constant (GHZ):          38.691293
    1 imaginary frequencies ignored.
 Zero-point vibrational energy      19487.7 (Joules/Mol)
                                    4.65767 (Kcal/Mol)
 Vibrational temperatures:   1306.04  1690.81  1690.81
          (Kelvin)

 Zero-point correction=                           0.007422 (Hartree/Particle)
 Thermal correction to Energy=                    0.009872
 Thermal correction to Enthalpy=                  0.010817
 Thermal correction to Gibbs Free Energy=        -0.012347
 Sum of electronic and zero-point Energies=           -100.919179
 Sum of electronic and thermal Energies=              -100.916729
 Sum of electronic and thermal Enthalpies=            -100.915784
 Sum of electronic and thermal Free Energies=         -100.938948

                     E (Thermal)             CV                S
                      KCal/Mol        Cal/Mol-Kelvin    Cal/Mol-Kelvin
 Total                    6.195              5.901             48.752
 Electronic               0.000              0.000              1.377
 Translational            0.889              2.981             35.068
 Rotational               0.592              1.987             12.080
 Vibrational              4.714              0.933              0.227

 Normal termination of Gaussian 16 at Fri Aug 22 16:10:23 2025.
