 Gaussian 16, Revision C.01,
 Gaussian 16:  ES64L-G16RevC.01  3-Jul-2019

 -----------------------------------------
 # sp b3lyp/6-311g** Force nosymm scf=(qc)
 -----------------------------------------

 -------------------
 Title Card Required
 -------------------
 Symbolic Z-matrix:
 Charge =  0 Multiplicity = 2

                          Input orientation:
 ---------------------------------------------------------------------
 Center     Atomic      Atomic             Coordinates (Angstroms)
 Number     Number       Type             X           Y           Z
 ---------------------------------------------------------------------
      1          1           0        0.000000    0.000000    0.000000
      2          1           0       -0.800000    0.000000    0.000000
      3          9           0        0.750000    0.000000    0.000000
 ---------------------------------------------------------------------

 SCF Done:  E(UB3LYP) =  -100.847966942     a.u. after    6 cycles

 Alpha  occ. eigenvalues --  -24.66236  -1.30148  -0.65999  -0.43891  -0.43891
 Alpha  occ. eigenvalues --   -0.32566
 Alpha virt. eigenvalues --    0.16614   0.18212   0.72565   0.87174   0.87174
 Alpha virt. eigenvalues --    0.93652   1.09158   1.09158   1.44353   1.73900
 Alpha virt. eigenvalues --    1.77535   1.77535   2.16476   2.45125   3.77016

  Beta  occ. eigenvalues --  -24.65438  -1.27879  -0.61679  -0.43207  -0.43207
  Beta virt. eigenvalues --   -0.13475   0.17455   0.22869   0.77653   0.89098
  Beta virt. eigenvalues --    0.89098   0.95581   1.14778   1.14778   1.46069
  Beta virt. eigenvalues --    1.80966   1.83088   1.83088   2.22810   2.53912

 Mulliken charges and spin densities:
               1          2
     1  H    0.262917  -0.023855
     2  H   -0.053145   0.876582
     3  F   -0.209772   0.147272
 Sum of Mulliken charges =   0.00000   1.00000

 Dipole moment (field-independent basis, Debye):
    X=             -1.1130    Y=             -0.0000    Z=              0.0000  Tot=              1.1130
 Quadrupole moment (field-independent basis, Debye-Ang):
   XX=             -7.4965   YY=             -6.4775   ZZ=             -6.4775
   XY=              0.0000   XZ=              0.0000   YZ=              0.0000

  Exact polarizability:       9.251      -0.000       2.540      -0.000       0.000       2.540
 Approx polarizability:       9.532      -0.000       2.613       0.000       0.000       2.613

 ******    2 imaginary frequencies (negative Signs) ******

                      1                      2                      3
                      A                      A                      A
 Frequencies --  -3285.5027             -3285.5027              2991.4729
 Red. masses --      1.0187                 1.0187                 1.0633
 Frc consts  --      6.4792                 6.4792                 5.6065
 IR Inten    --    100.3280               100.3280               149.1768

                      4
                      A
 Frequencies --   7586.5145
 Red. masses --      1.0483
 Frc consts  --     35.5488
 IR Inten    --     44.3408

 - Thermochemistry -
 -------------------
 Temperature   298.150 Kelvin.  Pressure   1.00000 Atm.
 Atom     1 has atomic number  1 and mass   1.00783

 Molecular mass:    21.01405 amu.
 Principal axes and moments of inertia in atomic units:
                           1         2         3
     Eigenvalues --     0.00000   9.75797   9.75797
           X            1.00000  -0.00000   0.00000
           Y            0.00000   1.00000   0.00000
           Z            0.00000   0.00000   1.00000
 This molecule is a prolate symmetric top.
 Rotational symmetry number  1.
 Rotational temperature (Kelvin)      8.87622
 Rotational constant (GHZ):         184.950482
    2 imaginary frequencies ignored.
 Zero-point vibrational energy      63270.4 (Joules/Mol)
                                   15.12199 (Kcal/Mol)
 Vibrational temperatures:   4304.06 10915.30
          (Kelvin)

 Zero-point correction=                           0.024098 (Hartree/Particle)
 Thermal correction to Energy=                    0.026459
 Thermal correction to Enthalpy=                  0.027403
 Thermal correction to Gibbs Free Energy=         0.005824
 Sum of electronic and zero-point Energies=           -100.823869
 Sum of electronic and thermal Energies=              -100.821508
 Sum of electronic and thermal Enthalpies=            -100.820564
 Sum of electronic and thermal Free Energies=         -100.842143

                     E (Thermal)             CV                S
                      KCal/Mol        Cal/Mol-Kelvin    Cal/Mol-Kelvin
 Total                   16.603              4.968             45.416
 Electronic               0.000              0.000              1.377
 Translational            0.889              2.981             35.068
 Rotational               0.592              1.987              8.971
 Vibrational             15.122              0.000              0.000

 Normal termination of Gaussian 16 at Fri Aug 22 15:47:55 2025.
