 Gaussian 16, Revision C.01,
 Gaussian 16:  ES64L-G16RevC.01  3-Jul-2019

 -----------------------------------------
 # sp b3lyp/6-311g** Force nosymm scf=(qc)
 -----------------------------------------

 -------------------
 Title Card Required
 -------------------
 Symbolic Z-matrix:
 Charge =  0 Multiplicity = 2

                          Input orientation:
 ---------------------------------------------------------------------
 Center     Atomic      Atomic             Coordinates (Angstroms)
 Number     Number       Type             X           Y           Z
 ---------------------------------------------------------------------
      1          1           0        0.000000    0.000000    0.000000
      2          1           0       -3.350000    0.000000    0.000000
      3          9           0        2.400000    0.000000    0.000000
 ---------------------------------------------------------------------

 SCF Done:  E(UB3LYP) =  -100.769236557     a.u. after   21 cycles

 Alpha  occ. eigenvalues --  -24.68235  -1.09390  -0.39338  -0.39338  -0.35872
 Alpha  occ. eigenvalues --   -0.32898
 Alpha virt. eigenvalues --   -0.22865   0.21204   0.28120   0.94640   0.95301
 Alpha virt. eigenvalues --    0.95301   1.08523   1.21816   1.21816   1.24473
 Alpha virt. eigenvalues --    1.24473   1.24616   1.33134   2.11947   2.15517

  Beta  occ. eigenvalues --  -24.71010  -1.17269  -0.50101  -0.42101  -0.42101
  Beta virt. eigenvalues --   -0.11324  -0.04422   0.32853   0.40311   0.89424
  Beta virt. eigenvalues --    0.93998   0.93998   1.06497   1.39558   1.39558
  Beta virt. eigenvalues --    1.46034   1.48200   1.48200   1.48671   2.35780

 Mulliken charges and spin densities:
               1          2
     1  H    0.106779   0.877435
     2  H    0.001458   0.998567
     3  F   -0.108237  -0.876002
 Sum of Mulliken charges =   0.00000   1.00000

 Dipole moment (field-independent basis, Debye):
    X=             -1.3389    Y=             -0.0000    Z=              0.0000  Tot=              1.3389
 Quadrupole moment (field-independent basis, Debye-Ang):
   XX=             -9.5585   YY=             -7.5454   ZZ=             -7.5454
   XY=             -0.0000   XZ=              0.0000   YZ=             -0.0000

  Exact polarizability:      32.014      -0.000       2.029       0.000      -0.000       2.029
 Approx polarizability:      41.947      -0.000       1.923      -0.000       0.000       1.923

 ******    1 imaginary frequencies (negative Signs) ******

                      1                      2                      3
                      A                      A                      A
 Frequencies --   -666.5468               100.3142               266.5670
 Red. masses --      1.0612                 1.0504                 1.0224
 Frc consts  --      0.2778                 0.0062                 0.0428
 IR Inten    --     79.1664                 0.2536                10.7390

                      4
                      A
 Frequencies --    266.5670
 Red. masses --      1.0224
 Frc consts  --      0.0428
 IR Inten    --     10.7390

 - Thermochemistry -
 -------------------
 Temperature   298.150 Kelvin.  Pressure   1.00000 Atm.
 Atom     1 has atomic number  1 and mass   1.00783

 Molecular mass:    21.01405 amu.
 Principal axes and moments of inertia in atomic units:
                           1         2         3
     Eigenvalues --     0.00000 128.25753 128.25753
           X            1.00000  -0.00000   0.00000
           Y            0.00000   1.00000   0.00000
           Z            0.00000   0.00000   1.00000
 This molecule is a prolate symmetric top.
 Rotational symmetry number  1.
 Rotational temperature (Kelvin)      0.67531
 Rotational constant (GHZ):          14.071230
    1 imaginary frequencies ignored.
 Zero-point vibrational energy       3788.9 (Joules/Mol)
                                    0.90556 (Kcal/Mol)
 Warning -- explicit consideration of   3 degrees of freedom as
           vibrations may cause significant error
 Vibrational temperatures:    144.33   383.53   383.53
          (Kelvin)

 Zero-point correction=                           0.001443 (Hartree/Particle)
 Thermal correction to Energy=                    0.005465
 Thermal correction to Enthalpy=                  0.006409
 Thermal correction to Gibbs Free Energy=        -0.020778
 Sum of electronic and zero-point Energies=           -100.767793
 Sum of electronic and thermal Energies=              -100.763772
 Sum of electronic and thermal Enthalpies=            -100.762828
 Sum of electronic and thermal Free Energies=         -100.790015

                     E (Thermal)             CV                S
                      KCal/Mol        Cal/Mol-Kelvin    Cal/Mol-Kelvin
 Total                    3.429             10.386             57.220
 Electronic               0.000              0.000              1.377
 Translational            0.889              2.981             35.068
 Rotational               0.592              1.987             14.090
 Vibrational              1.948              5.418              6.685
 Vibration     1          0.604              1.949              3.448
 Vibration     2          0.672              1.734              1.618
 Vibration     3          0.672              1.734              1.618

 Normal termination of Gaussian 16 at Fri Aug 22 17:33:25 2025.
