 Gaussian 16, Revision C.01,
 Gaussian 16:  ES64L-G16RevC.01  3-Jul-2019

 -----------------------------------------
 # sp b3lyp/6-311g** Force nosymm scf=(qc)
 -----------------------------------------

 -------------------
 Title Card Required
 -------------------
 Symbolic Z-matrix:
 Charge =  0 Multiplicity = 2

                          Input orientation:
 ---------------------------------------------------------------------
 Center     Atomic      Atomic             Coordinates (Angstroms)
 Number     Number       Type             X           Y           Z
 ---------------------------------------------------------------------
      1          1           0        0.000000    0.000000    0.000000
      2          1           0       -1.350000    0.000000    0.000000
      3          9           0        2.600000    0.000000    0.000000
 ---------------------------------------------------------------------

 SCF Done:  E(UB3LYP) =  -100.846345053     a.u. after   26 cycles

 Alpha  occ. eigenvalues --  -24.74808  -1.20825  -0.53997  -0.45306  -0.45306
 Alpha  occ. eigenvalues --   -0.36171
 Alpha virt. eigenvalues --   -0.07979   0.23359   0.32225   0.89587   0.91728
 Alpha virt. eigenvalues --    0.91728   1.06650   1.14018   1.15246   1.15246
 Alpha virt. eigenvalues --    1.45872   1.45872   1.93152   2.25917   2.51569

  Beta  occ. eigenvalues --  -24.71764  -1.12103  -0.42261  -0.42261  -0.35879
  Beta virt. eigenvalues --   -0.25648  -0.07410   0.23760   0.32707   0.93176
  Beta virt. eigenvalues --    0.93176   0.97636   1.09435   1.15610   1.15610
  Beta virt. eigenvalues --    1.16206   1.46187   1.46187   1.93597   2.26462

 Mulliken charges and spin densities:
               1          2
     1  H    0.001472  -0.084643
     2  H    0.027253   0.121872
     3  F   -0.028724   0.962771
 Sum of Mulliken charges =  -0.00000   1.00000

 Dipole moment (field-independent basis, Debye):
    X=             -0.5525    Y=             -0.0000    Z=              0.0000  Tot=              0.5525
 Quadrupole moment (field-independent basis, Debye-Ang):
   XX=             -6.2216   YY=             -7.6030   ZZ=             -7.6030
   XY=             -0.0000   XZ=              0.0000   YZ=              0.0000

  Exact polarizability:      46.017       0.000       2.007      -0.000       0.000       2.007
 Approx polarizability:      61.035      -0.000       2.080       0.000      -0.000       2.080

 ******    2 imaginary frequencies (negative Signs) ******

                      1                      2                      3
                      A                      A                      A
 Frequencies --  -1347.4516              -218.5191              1343.4384
 Red. masses --      1.0088                 1.1073                 1.0120
 Frc consts  --      1.0792                 0.0312                 1.0761
 IR Inten    --    402.8082                14.4448                 0.4149

                      4
                      A
 Frequencies --   1343.4392
 Red. masses --      1.0120
 Frc consts  --      1.0761
 IR Inten    --      0.4150

 - Thermochemistry -
 -------------------
 Temperature   298.150 Kelvin.  Pressure   1.00000 Atm.
 Atom     1 has atomic number  1 and mass   1.00783

 Molecular mass:    21.01405 amu.
 Principal axes and moments of inertia in atomic units:
                           1         2         3
     Eigenvalues --     0.00000  73.07756  73.07756
           X            1.00000  -0.00000   0.00000
           Y            0.00000   1.00000   0.00000
           Z            0.00000   0.00000   1.00000
 This molecule is a prolate symmetric top.
 Rotational symmetry number  1.
 Rotational temperature (Kelvin)      1.18523
 Rotational constant (GHZ):          24.696243
    2 imaginary frequencies ignored.
 Zero-point vibrational energy      16071.1 (Joules/Mol)
                                    3.84108 (Kcal/Mol)
 Vibrational temperatures:   1932.91  1932.91
          (Kelvin)

 Zero-point correction=                           0.006121 (Hartree/Particle)
 Thermal correction to Energy=                    0.008500
 Thermal correction to Enthalpy=                  0.009445
 Thermal correction to Gibbs Free Energy=        -0.014057
 Sum of electronic and zero-point Energies=           -100.840224
 Sum of electronic and thermal Energies=              -100.837845
 Sum of electronic and thermal Enthalpies=            -100.836900
 Sum of electronic and thermal Free Energies=         -100.860402

                     E (Thermal)             CV                S
                      KCal/Mol        Cal/Mol-Kelvin    Cal/Mol-Kelvin
 Total                    5.334              5.224             49.463
 Electronic               0.000              0.000              1.377
 Translational            0.889              2.981             35.068
 Rotational               0.592              1.987             12.972
 Vibrational              3.853              0.256              0.046

 Normal termination of Gaussian 16 at Fri Aug 22 18:02:56 2025.
