 Gaussian 16, Revision C.01,
 Gaussian 16:  ES64L-G16RevC.01  3-Jul-2019

 -----------------------------------------
 # sp b3lyp/6-311g** Force nosymm scf=(qc)
 -----------------------------------------

 -------------------
 Title Card Required
 -------------------
 Symbolic Z-matrix:
 Charge =  0 Multiplicity = 2

                          Input orientation:
 ---------------------------------------------------------------------
 Center     Atomic      Atomic             Coordinates (Angstroms)
 Number     Number       Type             X           Y           Z
 ---------------------------------------------------------------------
      1          1           0        0.000000    0.000000    0.000000
      2          1           0       -1.550000    0.000000    0.000000
      3          9           0        1.450000    0.000000    0.000000
 ---------------------------------------------------------------------

 SCF Done:  E(UB3LYP) =  -100.882642209     a.u. after   11 cycles

 Alpha  occ. eigenvalues --  -24.64304  -1.11058  -0.46979  -0.38277  -0.36749
 Alpha  occ. eigenvalues --   -0.36749
 Alpha virt. eigenvalues --   -0.06486   0.21007   0.28662   0.93625   0.93625
 Alpha virt. eigenvalues --    0.97662   1.03364   1.15798   1.15798   1.39172
 Alpha virt. eigenvalues --    1.39172   1.48469   1.82163   2.17129   2.39993

  Beta  occ. eigenvalues --  -24.63143  -1.07978  -0.42153  -0.35645  -0.35645
  Beta virt. eigenvalues --   -0.21055  -0.02954   0.24538   0.30325   0.93643
  Beta virt. eigenvalues --    0.93643   1.02929   1.05924   1.23692   1.23692
  Beta virt. eigenvalues --    1.41272   1.41272   1.53553   1.86310   2.22097

 Mulliken charges and spin densities:
               1          2
     1  H    0.266102  -0.174376
     2  H    0.069375   0.815580
     3  F   -0.335477   0.358797
 Sum of Mulliken charges =  -0.00000   1.00000

 Dipole moment (field-independent basis, Debye):
    X=             -2.9293    Y=             -0.0000    Z=              0.0000  Tot=              2.9293
 Quadrupole moment (field-independent basis, Debye-Ang):
   XX=             -8.2570   YY=             -7.2012   ZZ=             -7.2012
   XY=             -0.0000   XZ=              0.0000   YZ=             -0.0000

  Exact polarizability:      32.057      -0.000       2.312       0.000       0.000       2.312
 Approx polarizability:      45.156      -0.000       2.257       0.000       0.000       2.257

 ******    2 imaginary frequencies (negative Signs) ******

                      1                      2                      3
                      A                      A                      A
 Frequencies --  -2490.9478              -373.6889              1061.9999
 Red. masses --      1.0245                 1.0890                 1.0188
 Frc consts  --      3.7454                 0.0896                 0.6770
 IR Inten    --     98.6819                 8.3930                38.4275

                      4
                      A
 Frequencies --   1061.9999
 Red. masses --      1.0188
 Frc consts  --      0.6770
 IR Inten    --     38.4275

 - Thermochemistry -
 -------------------
 Temperature   298.150 Kelvin.  Pressure   1.00000 Atm.
 Atom     1 has atomic number  1 and mass   1.00783

 Molecular mass:    21.01405 amu.
 Principal axes and moments of inertia in atomic units:
                           1         2         3
     Eigenvalues --     0.00000  36.53994  36.53994
           X            1.00000  -0.00000   0.00000
           Y            0.00000   1.00000   0.00000
           Z            0.00000   0.00000   1.00000
 This molecule is a prolate symmetric top.
 Rotational symmetry number  1.
 Rotational temperature (Kelvin)      2.37039
 Rotational constant (GHZ):          49.390913
    2 imaginary frequencies ignored.
 Zero-point vibrational energy      12704.3 (Joules/Mol)
                                    3.03641 (Kcal/Mol)
 Vibrational temperatures:   1527.98  1527.98
          (Kelvin)

 Zero-point correction=                           0.004839 (Hartree/Particle)
 Thermal correction to Energy=                    0.007257
 Thermal correction to Enthalpy=                  0.008201
 Thermal correction to Gibbs Free Energy=        -0.014693
 Sum of electronic and zero-point Energies=           -100.877803
 Sum of electronic and thermal Energies=              -100.875385
 Sum of electronic and thermal Enthalpies=            -100.874441
 Sum of electronic and thermal Free Energies=         -100.897335

                     E (Thermal)             CV                S
                      KCal/Mol        Cal/Mol-Kelvin    Cal/Mol-Kelvin
 Total                    4.554              5.596             48.185
 Electronic               0.000              0.000              1.377
 Translational            0.889              2.981             35.068
 Rotational               0.592              1.987             11.594
 Vibrational              3.073              0.628              0.146

 Normal termination of Gaussian 16 at Fri Aug 22 16:22:25 2025.
