 Gaussian 16, Revision C.01,
 Gaussian 16:  ES64L-G16RevC.01  3-Jul-2019

 -----------------------------------------
 # sp b3lyp/6-311g** Force nosymm scf=(qc)
 -----------------------------------------

 -------------------
 Title Card Required
 -------------------
 Symbolic Z-matrix:
 Charge =  0 Multiplicity = 2

                          Input orientation:
 ---------------------------------------------------------------------
 Center     Atomic      Atomic             Coordinates (Angstroms)
 Number     Number       Type             X           Y           Z
 ---------------------------------------------------------------------
      1          1           0        0.000000    0.000000    0.000000
      2          1           0       -1.650000    0.000000    0.000000
      3          9           0        3.900000    0.000000    0.000000
 ---------------------------------------------------------------------

 SCF Done:  E(UB3LYP) =  -100.800012747     a.u. after  119 cycles

 Alpha  occ. eigenvalues --  -24.76204  -1.22107  -0.55311  -0.46484  -0.46467
 Alpha  occ. eigenvalues --   -0.33170
 Alpha virt. eigenvalues --   -0.10438   0.25585   0.30778   0.86054   0.90931
 Alpha virt. eigenvalues --    0.91326   1.00894   1.06943   1.23191   1.23192
 Alpha virt. eigenvalues --    1.38788   1.38790   1.70986   2.18064   2.42521

  Beta  occ. eigenvalues --  -24.73049  -1.13035  -0.43323  -0.43304  -0.33164
  Beta virt. eigenvalues --   -0.25962  -0.10463   0.25576   0.30800   0.92432
  Beta virt. eigenvalues --    0.92799   0.95521   1.05033   1.06941   1.23187
  Beta virt. eigenvalues --    1.23189   1.38781   1.38782   1.70999   2.18153

 Mulliken charges and spin densities:
               1          2
     1  H    0.000902  -0.540960
     2  H   -0.001735   0.540939
     3  F    0.000833   1.000021
 Sum of Mulliken charges =   0.00000   1.00000

 Dipole moment (field-independent basis, Debye):
    X=              0.0232    Y=             -0.0000    Z=              0.0000  Tot=              0.0232
 Quadrupole moment (field-independent basis, Debye-Ang):
   XX=             -6.5365   YY=             -7.7542   ZZ=             -6.9207
   XY=             -0.0000   XZ=              0.0000   YZ=             -0.1150

  Exact polarizability:      23.665      -0.000       2.031       0.000      -0.062       2.478
 Approx polarizability:      39.549      -0.000       2.002       0.000      -0.078       2.563

 ******    2 imaginary frequencies (negative Signs) ******

                      1                      2                      3
                      A                      A                      A
 Frequencies --  -1988.1288               -52.6019               981.6732
 Red. masses --      1.0078                 1.1085                 1.0108
 Frc consts  --      2.3471                 0.0018                 0.5739
 IR Inten    --      0.0102                 0.0413                 0.0015

                      4
                      A
 Frequencies --    982.6205
 Red. masses --      1.0108
 Frc consts  --      0.5750
 IR Inten    --      0.0006

 - Thermochemistry -
 -------------------
 Temperature   298.150 Kelvin.  Pressure   1.00000 Atm.
 Atom     1 has atomic number  1 and mass   1.00783

 Molecular mass:    21.01405 amu.
 Principal axes and moments of inertia in atomic units:
                           1         2         3
     Eigenvalues --     0.00000 150.18515 150.18515
           X            1.00000  -0.00000   0.00000
           Y            0.00000   1.00000   0.00000
           Z            0.00000   0.00000   1.00000
 This molecule is a prolate symmetric top.
 Rotational symmetry number  1.
 Rotational temperature (Kelvin)      0.57671
 Rotational constant (GHZ):          12.016775
    2 imaginary frequencies ignored.
 Zero-point vibrational energy      11749.1 (Joules/Mol)
                                    2.80810 (Kcal/Mol)
 Vibrational temperatures:   1412.41  1413.77
          (Kelvin)

 Zero-point correction=                           0.004475 (Hartree/Particle)
 Thermal correction to Energy=                    0.006914
 Thermal correction to Enthalpy=                  0.007859
 Thermal correction to Gibbs Free Energy=        -0.016397
 Sum of electronic and zero-point Energies=           -100.795538
 Sum of electronic and thermal Energies=              -100.793098
 Sum of electronic and thermal Enthalpies=            -100.792154
 Sum of electronic and thermal Free Energies=         -100.816410

                     E (Thermal)             CV                S
                      KCal/Mol        Cal/Mol-Kelvin    Cal/Mol-Kelvin
 Total                    4.339              5.762             51.050
 Electronic               0.000              0.000              1.377
 Translational            0.889              2.981             35.068
 Rotational               0.592              1.987             14.403
 Vibrational              2.858              0.794              0.201

 Normal termination of Gaussian 16 at Sat Aug 23 01:19:55 2025.
