 Gaussian 16, Revision C.01,
 Gaussian 16:  ES64L-G16RevC.01  3-Jul-2019

 -----------------------------------------
 # sp b3lyp/6-311g** Force nosymm scf=(qc)
 -----------------------------------------

 -------------------
 Title Card Required
 -------------------
 Symbolic Z-matrix:
 Charge =  0 Multiplicity = 2

                          Input orientation:
 ---------------------------------------------------------------------
 Center     Atomic      Atomic             Coordinates (Angstroms)
 Number     Number       Type             X           Y           Z
 ---------------------------------------------------------------------
      1          1           0        0.000000    0.000000    0.000000
      2          1           0       -1.900000    0.000000    0.000000
      3          9           0        1.450000    0.000000    0.000000
 ---------------------------------------------------------------------

 SCF Done:  E(UB3LYP) =  -100.872270095     a.u. after   12 cycles

 Alpha  occ. eigenvalues --  -24.63696  -1.09966  -0.44868  -0.37384  -0.36093
 Alpha  occ. eigenvalues --   -0.36093
 Alpha virt. eigenvalues --   -0.09790   0.22809   0.27558   0.94036   0.94036
 Alpha virt. eigenvalues --    1.01255   1.04760   1.19422   1.19422   1.34400
 Alpha virt. eigenvalues --    1.34400   1.38247   1.72429   2.10803   2.29288

  Beta  occ. eigenvalues --  -24.63064  -1.08303  -0.42417  -0.35495  -0.35495
  Beta virt. eigenvalues --   -0.18371  -0.05763   0.26130   0.31827   0.93912
  Beta virt. eigenvalues --    0.93912   1.04433   1.07892   1.30619   1.30619
  Beta virt. eigenvalues --    1.37766   1.37766   1.48638   1.73368   2.17763

 Mulliken charges and spin densities:
               1          2
     1  H    0.307206  -0.119479
     2  H    0.049705   0.922827
     3  F   -0.356911   0.196652
 Sum of Mulliken charges =   0.00000   1.00000

 Dipole moment (field-independent basis, Debye):
    X=             -3.0190    Y=              0.0000    Z=              0.0000  Tot=              3.0190
 Quadrupole moment (field-independent basis, Debye-Ang):
   XX=             -8.6595   YY=             -7.2549   ZZ=             -7.2549
   XY=              0.0000   XZ=              0.0000   YZ=              0.0000

  Exact polarizability:      26.996      -0.000       2.262      -0.000       0.000       2.262
 Approx polarizability:      37.857       0.000       2.200       0.000      -0.000       2.200

 ******    2 imaginary frequencies (negative Signs) ******

                      1                      2                      3
                      A                      A                      A
 Frequencies --  -1842.8568              -376.0597              1021.4126
 Red. masses --      1.0325                 1.0801                 1.0215
 Frc consts  --      2.0660                 0.0900                 0.6279
 IR Inten    --     59.8472                 0.1343                68.2738

                      4
                      A
 Frequencies --   1021.4126
 Red. masses --      1.0215
 Frc consts  --      0.6279
 IR Inten    --     68.2738

 - Thermochemistry -
 -------------------
 Temperature   298.150 Kelvin.  Pressure   1.00000 Atm.
 Atom     1 has atomic number  1 and mass   1.00783

 Molecular mass:    21.01405 amu.
 Principal axes and moments of inertia in atomic units:
                           1         2         3
     Eigenvalues --     0.00000  43.97993  43.97993
           X            1.00000  -0.00000   0.00000
           Y            0.00000   1.00000   0.00000
           Z            0.00000   0.00000   1.00000
 This molecule is a prolate symmetric top.
 Rotational symmetry number  1.
 Rotational temperature (Kelvin)      1.96940
 Rotational constant (GHZ):          41.035568
    2 imaginary frequencies ignored.
 Zero-point vibrational energy      12218.8 (Joules/Mol)
                                    2.92037 (Kcal/Mol)
 Vibrational temperatures:   1469.58  1469.58
          (Kelvin)

 Zero-point correction=                           0.004654 (Hartree/Particle)
 Thermal correction to Energy=                    0.007082
 Thermal correction to Enthalpy=                  0.008026
 Thermal correction to Gibbs Free Energy=        -0.015055
 Sum of electronic and zero-point Energies=           -100.867616
 Sum of electronic and thermal Energies=              -100.865188
 Sum of electronic and thermal Enthalpies=            -100.864244
 Sum of electronic and thermal Free Energies=         -100.887326

                     E (Thermal)             CV                S
                      KCal/Mol        Cal/Mol-Kelvin    Cal/Mol-Kelvin
 Total                    4.444              5.677             48.580
 Electronic               0.000              0.000              1.377
 Translational            0.889              2.981             35.068
 Rotational               0.592              1.987             11.963
 Vibrational              2.963              0.709              0.172

 Normal termination of Gaussian 16 at Fri Aug 22 16:22:43 2025.
