 Gaussian 16, Revision C.01,
 Gaussian 16:  ES64L-G16RevC.01  3-Jul-2019

 -----------------------------------------
 # sp b3lyp/6-311g** Force nosymm scf=(qc)
 -----------------------------------------

 -------------------
 Title Card Required
 -------------------
 Symbolic Z-matrix:
 Charge =  0 Multiplicity = 2

                          Input orientation:
 ---------------------------------------------------------------------
 Center     Atomic      Atomic             Coordinates (Angstroms)
 Number     Number       Type             X           Y           Z
 ---------------------------------------------------------------------
      1          1           0        0.000000    0.000000    0.000000
      2          1           0       -2.100000    0.000000    0.000000
      3          9           0        1.850000    0.000000    0.000000
 ---------------------------------------------------------------------

 SCF Done:  E(UB3LYP) =  -100.808710450     a.u. after   19 cycles

 Alpha  occ. eigenvalues --  -24.66759  -1.13051  -0.45808  -0.38484  -0.38484
 Alpha  occ. eigenvalues --   -0.36542
 Alpha virt. eigenvalues --   -0.13766   0.23776   0.29838   0.91138   0.95066
 Alpha virt. eigenvalues --    0.95066   1.05458   1.21274   1.21274   1.28204
 Alpha virt. eigenvalues --    1.33880   1.33880   1.66544   2.10994   2.28652

  Beta  occ. eigenvalues --  -24.64672  -1.07275  -0.38409  -0.36440  -0.36440
  Beta virt. eigenvalues --   -0.20353  -0.10980   0.25492   0.32396   0.93121
  Beta virt. eigenvalues --    0.95341   0.95341   1.08531   1.24135   1.24135
  Beta virt. eigenvalues --    1.37242   1.37242   1.41566   1.62737   2.12357

 Mulliken charges and spin densities:
               1          2
     1  H    0.193995  -0.574211
     2  H    0.041318   0.918583
     3  F   -0.235313   0.655628
 Sum of Mulliken charges =   0.00000   1.00000

 Dipole moment (field-independent basis, Debye):
    X=             -2.5543    Y=             -0.0000    Z=             -0.0000  Tot=              2.5543
 Quadrupole moment (field-independent basis, Debye-Ang):
   XX=             -8.9728   YY=             -7.4939   ZZ=             -7.4939
   XY=             -0.0000   XZ=             -0.0000   YZ=              0.0000

  Exact polarizability:      43.022      -0.000       2.094      -0.000      -0.000       2.094
 Approx polarizability:      53.014      -0.000       1.996      -0.000      -0.000       1.996

 ******    2 imaginary frequencies (negative Signs) ******

                      1                      2                      3
                      A                      A                      A
 Frequencies --  -1636.9700              -558.6870               680.1737
 Red. masses --      1.0321                 1.0806                 1.0196
 Frc consts  --      1.6295                 0.1987                 0.2779
 IR Inten    --    101.1858                22.3770                26.1583

                      4
                      A
 Frequencies --    680.1737
 Red. masses --      1.0196
 Frc consts  --      0.2779
 IR Inten    --     26.1583

 - Thermochemistry -
 -------------------
 Temperature   298.150 Kelvin.  Pressure   1.00000 Atm.
 Atom     1 has atomic number  1 and mass   1.00783

 Molecular mass:    21.01405 amu.
 Principal axes and moments of inertia in atomic units:
                           1         2         3
     Eigenvalues --     0.00000  62.66464  62.66464
           X            1.00000  -0.00000   0.00000
           Y            0.00000   1.00000   0.00000
           Z            0.00000   0.00000   1.00000
 This molecule is a prolate symmetric top.
 Rotational symmetry number  1.
 Rotational temperature (Kelvin)      1.38218
 Rotational constant (GHZ):          28.799993
    2 imaginary frequencies ignored.
 Zero-point vibrational energy       8136.7 (Joules/Mol)
                                    1.94471 (Kcal/Mol)
 Vibrational temperatures:    978.62   978.62
          (Kelvin)

 Zero-point correction=                           0.003099 (Hartree/Particle)
 Thermal correction to Energy=                    0.005701
 Thermal correction to Enthalpy=                  0.006646
 Thermal correction to Gibbs Free Energy=        -0.017003
 Sum of electronic and zero-point Energies=           -100.805611
 Sum of electronic and thermal Energies=              -100.803009
 Sum of electronic and thermal Enthalpies=            -100.802065
 Sum of electronic and thermal Free Energies=         -100.825714

                     E (Thermal)             CV                S
                      KCal/Mol        Cal/Mol-Kelvin    Cal/Mol-Kelvin
 Total                    3.578              6.703             49.773
 Electronic               0.000              0.000              1.377
 Translational            0.889              2.981             35.068
 Rotational               0.592              1.987             12.666
 Vibrational              2.096              1.735              0.661

 Normal termination of Gaussian 16 at Fri Aug 22 16:46:49 2025.
