 Gaussian 16, Revision C.01,
 Gaussian 16:  ES64L-G16RevC.01  3-Jul-2019

 -----------------------------------------
 # sp b3lyp/6-311g** Force nosymm scf=(qc)
 -----------------------------------------

 -------------------
 Title Card Required
 -------------------
 Symbolic Z-matrix:
 Charge =  0 Multiplicity = 2

                          Input orientation:
 ---------------------------------------------------------------------
 Center     Atomic      Atomic             Coordinates (Angstroms)
 Number     Number       Type             X           Y           Z
 ---------------------------------------------------------------------
      1          1           0        0.000000    0.000000    0.000000
      2          1           0       -1.450000    0.000000    0.000000
      3          9           0        0.700000    0.000000    0.000000
 ---------------------------------------------------------------------

 SCF Done:  E(UB3LYP) =  -100.867884125     a.u. after    6 cycles

 Alpha  occ. eigenvalues --  -24.63253  -1.28550  -0.59633  -0.41868  -0.41868
 Alpha  occ. eigenvalues --   -0.35999
 Alpha virt. eigenvalues --    0.13678   0.21421   0.53726   0.92992   0.92992
 Alpha virt. eigenvalues --    0.94967   1.16468   1.16468   1.36927   1.49490
 Alpha virt. eigenvalues --    1.49490   1.59358   2.00358   2.19393   3.17842

  Beta  occ. eigenvalues --  -24.63109  -1.28136  -0.58776  -0.41756  -0.41756
  Beta virt. eigenvalues --   -0.12655   0.14904   0.29219   0.58175   0.93205
  Beta virt. eigenvalues --    0.93205   0.95293   1.29141   1.29141   1.41550
  Beta virt. eigenvalues --    1.54289   1.54289   1.68515   2.00565   2.41149

 Mulliken charges and spin densities:
               1          2
     1  H    0.246666   0.013672
     2  H    0.012856   0.963777
     3  F   -0.259522   0.022551
 Sum of Mulliken charges =   0.00000   1.00000

 Dipole moment (field-independent basis, Debye):
    X=             -1.6267    Y=              0.0000    Z=              0.0000  Tot=              1.6267
 Quadrupole moment (field-independent basis, Debye-Ang):
   XX=             -7.0992   YY=             -6.5651   ZZ=             -6.5651
   XY=              0.0000   XZ=              0.0000   YZ=             -0.0000

  Exact polarizability:       7.414       0.000       2.542      -0.000      -0.000       2.542
 Approx polarizability:       7.222       0.000       2.557      -0.000      -0.000       2.557

 ******    2 imaginary frequencies (negative Signs) ******

                      1                      2                      3
                      A                      A                      A
 Frequencies --  -3474.9002             -3474.9002               899.8926
 Red. masses --      1.0286                 1.0286                 1.0535
 Frc consts  --      7.3180                 7.3180                 0.5027
 IR Inten    --    148.4190               148.4190                 5.3184

                      4
                      A
 Frequencies --   9048.4711
 Red. masses --      1.0580
 Frc consts  --     51.0378
 IR Inten    --    142.6385

 - Thermochemistry -
 -------------------
 Temperature   298.150 Kelvin.  Pressure   1.00000 Atm.
 Atom     1 has atomic number  1 and mass   1.00783

 Molecular mass:    21.01405 amu.
 Principal axes and moments of inertia in atomic units:
                           1         2         3
     Eigenvalues --     0.00000  16.99793  16.99793
           X            1.00000  -0.00000   0.00000
           Y            0.00000   1.00000   0.00000
           Z            0.00000   0.00000   1.00000
 This molecule is a prolate symmetric top.
 Rotational symmetry number  1.
 Rotational temperature (Kelvin)      5.09556
 Rotational constant (GHZ):         106.174166
    2 imaginary frequencies ignored.
 Zero-point vibrational energy      59504.4 (Joules/Mol)
                                   14.22190 (Kcal/Mol)
 Vibrational temperatures:   1294.74 13018.73
          (Kelvin)

 Zero-point correction=                           0.022664 (Hartree/Particle)
 Thermal correction to Energy=                    0.025079
 Thermal correction to Enthalpy=                  0.026023
 Thermal correction to Gibbs Free Energy=         0.003854
 Sum of electronic and zero-point Energies=           -100.845220
 Sum of electronic and thermal Energies=              -100.842806
 Sum of electronic and thermal Enthalpies=            -100.841861
 Sum of electronic and thermal Free Energies=         -100.864030

                     E (Thermal)             CV                S
                      KCal/Mol        Cal/Mol-Kelvin    Cal/Mol-Kelvin
 Total                   15.737              5.468             46.659
 Electronic               0.000              0.000              1.377
 Translational            0.889              2.981             35.068
 Rotational               0.592              1.987             10.074
 Vibrational             14.256              0.500              0.140

 Normal termination of Gaussian 16 at Fri Aug 22 15:46:02 2025.
