 Gaussian 16, Revision C.01,
 Gaussian 16:  ES64L-G16RevC.01  3-Jul-2019

 -----------------------------------------
 # sp b3lyp/6-311g** Force nosymm scf=(qc)
 -----------------------------------------

 -------------------
 Title Card Required
 -------------------
 Symbolic Z-matrix:
 Charge =  0 Multiplicity = 2

                          Input orientation:
 ---------------------------------------------------------------------
 Center     Atomic      Atomic             Coordinates (Angstroms)
 Number     Number       Type             X           Y           Z
 ---------------------------------------------------------------------
      1          1           0        0.000000    0.000000    0.000000
      2          1           0       -2.150000    0.000000    0.000000
      3          9           0        0.550000    0.000000    0.000000
 ---------------------------------------------------------------------

 SCF Done:  E(UB3LYP) =  -100.518943238     a.u. after    6 cycles

 Alpha  occ. eigenvalues --  -24.62657  -1.38400  -0.62291  -0.43590  -0.43590
 Alpha  occ. eigenvalues --   -0.34747
 Alpha virt. eigenvalues --    0.10622   0.24901   0.57293   0.91256   0.91256
 Alpha virt. eigenvalues --    0.91610   1.18869   1.22788   1.22788   1.54170
 Alpha virt. eigenvalues --    1.54170   1.55038   1.97443   2.19050   3.65826

  Beta  occ. eigenvalues --  -24.62640  -1.38347  -0.62238  -0.43582  -0.43582
  Beta virt. eigenvalues --   -0.09013   0.12019   0.36793   0.57762   0.91239
  Beta virt. eigenvalues --    0.91239   0.91733   1.30213   1.43861   1.43861
  Beta virt. eigenvalues --    1.54163   1.54163   1.64097   2.01052   2.45600

 Mulliken charges and spin densities:
               1          2
     1  H    0.184693   0.007802
     2  H    0.007570   0.989912
     3  F   -0.192263   0.002286
 Sum of Mulliken charges =   0.00000   1.00000

 Dipole moment (field-independent basis, Debye):
    X=             -1.4265    Y=              0.0000    Z=             -0.0000  Tot=              1.4265
 Quadrupole moment (field-independent basis, Debye-Ang):
   XX=             -6.6072   YY=             -6.4759   ZZ=             -6.4759
   XY=             -0.0000   XZ=             -0.0000   YZ=              0.0000

  Exact polarizability:       5.199       0.000       2.462      -0.000       0.000       2.462
 Approx polarizability:       5.062      -0.000       2.451       0.000      -0.000       2.451

 ******    2 imaginary frequencies (negative Signs) ******

                      1                      2                      3
                      A                      A                      A
 Frequencies --  -7427.9282             -7427.9282               295.3515
 Red. masses --      1.0386                 1.0386                 1.0533
 Frc consts  --     33.7623                33.7623                 0.0541
 IR Inten    --    227.9525               227.9525                 0.0413

                      4
                      A
 Frequencies --  15777.5869
 Red. masses --      1.0583
 Frc consts  --    155.2166
 IR Inten    --    101.7716

 - Thermochemistry -
 -------------------
 Temperature   298.150 Kelvin.  Pressure   1.00000 Atm.
 Atom     1 has atomic number  1 and mass   1.00783

 Molecular mass:    21.01405 amu.
 Principal axes and moments of inertia in atomic units:
                           1         2         3
     Eigenvalues --     0.00000  25.50231  25.50231
           X            1.00000  -0.00000   0.00000
           Y            0.00000   1.00000   0.00000
           Z            0.00000   0.00000   1.00000
 This molecule is a prolate symmetric top.
 Rotational symmetry number  1.
 Rotational temperature (Kelvin)      3.39632
 Rotational constant (GHZ):          70.767749
    2 imaginary frequencies ignored.
 Zero-point vibrational energy      96137.5 (Joules/Mol)
                                   22.97742 (Kcal/Mol)
 Warning -- explicit consideration of   1 degrees of freedom as
           vibrations may cause significant error
 Vibrational temperatures:    424.94 22700.43
          (Kelvin)

 Zero-point correction=                           0.036617 (Hartree/Particle)
 Thermal correction to Energy=                    0.039403
 Thermal correction to Enthalpy=                  0.040347
 Thermal correction to Gibbs Free Energy=         0.017176
 Sum of electronic and zero-point Energies=           -100.482326
 Sum of electronic and thermal Energies=              -100.479540
 Sum of electronic and thermal Enthalpies=            -100.478596
 Sum of electronic and thermal Free Energies=         -100.501767

                     E (Thermal)             CV                S
                      KCal/Mol        Cal/Mol-Kelvin    Cal/Mol-Kelvin
 Total                   24.726              6.650             48.768
 Electronic               0.000              0.000              1.377
 Translational            0.889              2.981             35.068
 Rotational               0.592              1.987             10.880
 Vibrational             23.245              1.682              1.443
 Vibration     1          0.690              1.682              1.443

 Normal termination of Gaussian 16 at Fri Aug 22 15:39:26 2025.
