 Gaussian 16, Revision C.01,
 Gaussian 16:  ES64L-G16RevC.01  3-Jul-2019

 -----------------------------------------
 # sp b3lyp/6-311g** Force nosymm scf=(qc)
 -----------------------------------------

 -------------------
 Title Card Required
 -------------------
 Symbolic Z-matrix:
 Charge =  0 Multiplicity = 2

                          Input orientation:
 ---------------------------------------------------------------------
 Center     Atomic      Atomic             Coordinates (Angstroms)
 Number     Number       Type             X           Y           Z
 ---------------------------------------------------------------------
      1          1           0        0.000000    0.000000    0.000000
      2          1           0       -1.300000    0.000000    0.000000
      3          9           0        0.950000    0.000000    0.000000
 ---------------------------------------------------------------------

 SCF Done:  E(UB3LYP) =  -100.968430263     a.u. after    6 cycles

 Alpha  occ. eigenvalues --  -24.63742  -1.17572  -0.55181  -0.39023  -0.39023
 Alpha  occ. eigenvalues --   -0.36926
 Alpha virt. eigenvalues --    0.11127   0.19944   0.39210   0.93351   0.93351
 Alpha virt. eigenvalues --    0.98056   1.11741   1.11741   1.29559   1.47999
 Alpha virt. eigenvalues --    1.47999   1.55432   2.12250   2.26967   2.70434

  Beta  occ. eigenvalues --  -24.63329  -1.16529  -0.52415  -0.38661  -0.38661
  Beta virt. eigenvalues --   -0.16601   0.13097   0.24815   0.43864   0.93911
  Beta virt. eigenvalues --    0.93911   0.98914   1.20520   1.20520   1.36160
  Beta virt. eigenvalues --    1.53494   1.53494   1.59935   2.21583   2.34146

 Mulliken charges and spin densities:
               1          2
     1  H    0.280442  -0.003318
     2  H    0.029987   0.899572
     3  F   -0.310429   0.103747
 Sum of Mulliken charges =   0.00000   1.00000

 Dipole moment (field-independent basis, Debye):
    X=             -2.1342    Y=              0.0000    Z=             -0.0000  Tot=              2.1342
 Quadrupole moment (field-independent basis, Debye-Ang):
   XX=             -7.5849   YY=             -6.7476   ZZ=             -6.7476
   XY=              0.0000   XZ=             -0.0000   YZ=              0.0000

  Exact polarizability:      12.584       0.000       2.557      -0.000      -0.000       2.557
 Approx polarizability:      13.649      -0.000       2.566       0.000      -0.000       2.566

                      1                      2                      3
                      A                      A                      A
 Frequencies --    224.4572               224.4572               722.6649
 Red. masses --      1.0222                 1.0222                 1.0474
 Frc consts  --      0.0303                 0.0303                 0.3223
 IR Inten    --     92.1648                92.1648                 6.1820

                      4
                      A
 Frequencies --   3375.4048
 Red. masses --      1.0642
 Frc consts  --      7.1439
 IR Inten    --    141.9109

 - Thermochemistry -
 -------------------
 Temperature   298.150 Kelvin.  Pressure   1.00000 Atm.
 Atom     1 has atomic number  1 and mass   1.00783

 Molecular mass:    21.01405 amu.
 Principal axes and moments of inertia in atomic units:
                           1         2         3
     Eigenvalues --     0.00000  19.70059  19.70059
           X            1.00000  -0.00000   0.00000
           Y            0.00000   1.00000   0.00000
           Z            0.00000   0.00000   1.00000
 This molecule is a prolate symmetric top.
 Rotational symmetry number  1.
 Rotational temperature (Kelvin)      4.39651
 Rotational constant (GHZ):          91.608480
 Zero-point vibrational energy      27197.0 (Joules/Mol)
                                    6.50024 (Kcal/Mol)
 Warning -- explicit consideration of   2 degrees of freedom as
           vibrations may cause significant error
 Vibrational temperatures:    322.94   322.94  1039.75  4856.45
          (Kelvin)

 Zero-point correction=                           0.010359 (Hartree/Particle)
 Thermal correction to Energy=                    0.013870
 Thermal correction to Enthalpy=                  0.014814
 Thermal correction to Gibbs Free Energy=        -0.009388
 Sum of electronic and zero-point Energies=           -100.958071
 Sum of electronic and thermal Energies=              -100.954560
 Sum of electronic and thermal Enthalpies=            -100.953616
 Sum of electronic and thermal Free Energies=         -100.977819

                     E (Thermal)             CV                S
                      KCal/Mol        Cal/Mol-Kelvin    Cal/Mol-Kelvin
 Total                    8.703              9.362             50.938
 Electronic               0.000              0.000              1.377
 Translational            0.889              2.981             35.068
 Rotational               0.592              1.987             10.367
 Vibrational              7.222              4.394              4.126
 Vibration     1          0.649              1.804              1.923
 Vibration     2          0.649              1.804              1.923

 Normal termination of Gaussian 16 at Fri Aug 22 15:57:40 2025.
