 Gaussian 16, Revision C.01,
 Gaussian 16:  ES64L-G16RevC.01  3-Jul-2019

 -----------------------------------------
 # sp b3lyp/6-311g** Force nosymm scf=(qc)
 -----------------------------------------

 -------------------
 Title Card Required
 -------------------
 Symbolic Z-matrix:
 Charge =  0 Multiplicity = 2

                          Input orientation:
 ---------------------------------------------------------------------
 Center     Atomic      Atomic             Coordinates (Angstroms)
 Number     Number       Type             X           Y           Z
 ---------------------------------------------------------------------
      1          1           0        0.000000    0.000000    0.000000
      2          1           0       -2.400000    0.000000    0.000000
      3          9           0        3.550000    0.000000    0.000000
 ---------------------------------------------------------------------

 SCF Done:  E(UB3LYP) =  -100.764114678     a.u. after   30 cycles

 Alpha  occ. eigenvalues --  -24.75542  -1.21493  -0.54665  -0.45899  -0.45899
 Alpha  occ. eigenvalues --   -0.32720
 Alpha virt. eigenvalues --   -0.09814   0.25790   0.34045   0.87448   0.91379
 Alpha virt. eigenvalues --    0.91379   1.01648   1.24982   1.24982   1.26231
 Alpha virt. eigenvalues --    1.40716   1.40716   1.43221   2.15387   2.36146

  Beta  occ. eigenvalues --  -24.72420  -1.12521  -0.42770  -0.42770  -0.32958
  Beta virt. eigenvalues --   -0.25581  -0.09405   0.25609   0.34654   0.92871
  Beta virt. eigenvalues --    0.92871   0.96652   1.05706   1.24697   1.24697
  Beta virt. eigenvalues --    1.25902   1.41338   1.41338   1.43824   2.15875

 Mulliken charges and spin densities:
               1          2
     1  H    0.006372  -0.949341
     2  H    0.002606   0.959479
     3  F   -0.008979   0.989862
 Sum of Mulliken charges =  -0.00000   1.00000

 Dipole moment (field-independent basis, Debye):
    X=             -0.1934    Y=             -0.0000    Z=             -0.0000  Tot=              0.1934
 Quadrupole moment (field-independent basis, Debye-Ang):
   XX=             -6.9755   YY=             -7.6752   ZZ=             -7.6752
   XY=              0.0000   XZ=              0.0000   YZ=              0.0000

  Exact polarizability:      33.635       0.000       2.049       0.000      -0.000       2.049
 Approx polarizability:      25.267       0.000       1.929       0.000       0.000       1.929

 ******    2 imaginary frequencies (negative Signs) ******

                      1                      2                      3
                      A                      A                      A
 Frequencies --   -769.6645              -132.9362               284.2616
 Red. masses --      1.0079                 1.1084                 1.0139
 Frc consts  --      0.3518                 0.0115                 0.0483
 IR Inten    --      5.0699                 5.3521                 0.0136

                      4
                      A
 Frequencies --    284.2621
 Red. masses --      1.0139
 Frc consts  --      0.0483
 IR Inten    --      0.0136

 - Thermochemistry -
 -------------------
 Temperature   298.150 Kelvin.  Pressure   1.00000 Atm.
 Atom     1 has atomic number  1 and mass   1.00783

 Molecular mass:    21.01405 amu.
 Principal axes and moments of inertia in atomic units:
                           1         2         3
     Eigenvalues --     0.00000 157.19263 157.19263
           X            1.00000  -0.00000   0.00000
           Y            0.00000   1.00000   0.00000
           Z            0.00000   0.00000   1.00000
 This molecule is a prolate symmetric top.
 Rotational symmetry number  1.
 Rotational temperature (Kelvin)      0.55100
 Rotational constant (GHZ):          11.481080
    2 imaginary frequencies ignored.
 Zero-point vibrational energy       3400.5 (Joules/Mol)
                                    0.81275 (Kcal/Mol)
 Warning -- explicit consideration of   2 degrees of freedom as
           vibrations may cause significant error
 Vibrational temperatures:    408.99   408.99
          (Kelvin)

 Zero-point correction=                           0.001295 (Hartree/Particle)
 Thermal correction to Energy=                    0.004536
 Thermal correction to Enthalpy=                  0.005480
 Thermal correction to Gibbs Free Energy=        -0.020156
 Sum of electronic and zero-point Energies=           -100.762819
 Sum of electronic and thermal Energies=              -100.759579
 Sum of electronic and thermal Enthalpies=            -100.758634
 Sum of electronic and thermal Free Energies=         -100.784270

                     E (Thermal)             CV                S
                      KCal/Mol        Cal/Mol-Kelvin    Cal/Mol-Kelvin
 Total                    2.846              8.374             53.955
 Electronic               0.000              0.000              1.377
 Translational            0.889              2.981             35.068
 Rotational               0.592              1.987             14.494
 Vibrational              1.365              3.406              3.016
 Vibration     1          0.683              1.703              1.508
 Vibration     2          0.683              1.703              1.508

 Normal termination of Gaussian 16 at Fri Aug 22 22:39:39 2025.
