 Gaussian 16, Revision C.01,
 Gaussian 16:  ES64L-G16RevC.01  3-Jul-2019

 -----------------------------------------
 # sp b3lyp/6-311g** Force nosymm scf=(qc)
 -----------------------------------------

 -------------------
 Title Card Required
 -------------------
 Symbolic Z-matrix:
 Charge =  0 Multiplicity = 2

                          Input orientation:
 ---------------------------------------------------------------------
 Center     Atomic      Atomic             Coordinates (Angstroms)
 Number     Number       Type             X           Y           Z
 ---------------------------------------------------------------------
      1          1           0        0.000000    0.000000    0.000000
      2          1           0       -2.900000    0.000000    0.000000
      3          9           0        2.950000    0.000000    0.000000
 ---------------------------------------------------------------------

 SCF Done:  E(UB3LYP) =  -100.762606447     a.u. after   21 cycles

 Alpha  occ. eigenvalues --  -24.73927  -1.19997  -0.53044  -0.44540  -0.44540
 Alpha  occ. eigenvalues --   -0.32809
 Alpha virt. eigenvalues --   -0.09429   0.24784   0.34729   0.89633   0.92372
 Alpha virt. eigenvalues --    0.92372   1.04240   1.24742   1.24742   1.25793
 Alpha virt. eigenvalues --    1.41888   1.41888   1.42531   2.15549   2.38376

  Beta  occ. eigenvalues --  -24.70911  -1.11359  -0.41523  -0.41523  -0.33892
  Beta virt. eigenvalues --   -0.24690  -0.07934   0.24869   0.36344   0.93829
  Beta virt. eigenvalues --    0.93829   0.98291   1.08019   1.23487   1.23487
  Beta virt. eigenvalues --    1.24739   1.44214   1.44214   1.44347   2.16025

 Mulliken charges and spin densities:
               1          2
     1  H    0.038154  -0.945718
     2  H    0.002249   0.990382
     3  F   -0.040404   0.955336
 Sum of Mulliken charges =  -0.00000   1.00000

 Dipole moment (field-independent basis, Debye):
    X=             -0.6430    Y=              0.0000    Z=              0.0000  Tot=              0.6430
 Quadrupole moment (field-independent basis, Debye-Ang):
   XX=             -8.2582   YY=             -7.6238   ZZ=             -7.6238
   XY=             -0.0000   XZ=             -0.0000   YZ=             -0.0000

  Exact polarizability:      36.503      -0.000       2.020      -0.000      -0.000       2.020
 Approx polarizability:      36.023      -0.000       1.923      -0.000       0.000       1.923

 ******    2 imaginary frequencies (negative Signs) ******

                      1                      2                      3
                      A                      A                      A
 Frequencies --   -486.2389              -205.4857               180.9226
 Red. masses --      1.0228                 1.0909                 1.0177
 Frc consts  --      0.1425                 0.0271                 0.0196
 IR Inten    --     35.8393                 7.9738                 1.2793

                      4
                      A
 Frequencies --    180.9226
 Red. masses --      1.0177
 Frc consts  --      0.0196
 IR Inten    --      1.2793

 - Thermochemistry -
 -------------------
 Temperature   298.150 Kelvin.  Pressure   1.00000 Atm.
 Atom     1 has atomic number  1 and mass   1.00783

 Molecular mass:    21.01405 amu.
 Principal axes and moments of inertia in atomic units:
                           1         2         3
     Eigenvalues --     0.00000 141.12076 141.12076
           X            1.00000  -0.00000   0.00000
           Y            0.00000   1.00000   0.00000
           Z            0.00000   0.00000   1.00000
 This molecule is a prolate symmetric top.
 Rotational symmetry number  1.
 Rotational temperature (Kelvin)      0.61376
 Rotational constant (GHZ):          12.788630
    2 imaginary frequencies ignored.
 Zero-point vibrational energy       2164.3 (Joules/Mol)
                                    0.51728 (Kcal/Mol)
 Warning -- explicit consideration of   2 degrees of freedom as
           vibrations may cause significant error
 Vibrational temperatures:    260.31   260.31
          (Kelvin)

 Zero-point correction=                           0.000824 (Hartree/Particle)
 Thermal correction to Energy=                    0.004367
 Thermal correction to Enthalpy=                  0.005311
 Thermal correction to Gibbs Free Energy=        -0.020993
 Sum of electronic and zero-point Energies=           -100.761782
 Sum of electronic and thermal Energies=              -100.758239
 Sum of electronic and thermal Enthalpies=            -100.757295
 Sum of electronic and thermal Free Energies=         -100.783600

                     E (Thermal)             CV                S
                      KCal/Mol        Cal/Mol-Kelvin    Cal/Mol-Kelvin
 Total                    2.741              8.699             55.363
 Electronic               0.000              0.000              1.377
 Translational            0.889              2.981             35.068
 Rotational               0.592              1.987             14.280
 Vibrational              1.259              3.731              4.638
 Vibration     1          0.630              1.866              2.319
 Vibration     2          0.630              1.866              2.319

 Normal termination of Gaussian 16 at Fri Aug 22 19:18:21 2025.
