 Gaussian 16, Revision C.01,
 Gaussian 16:  ES64L-G16RevC.01  3-Jul-2019

 -----------------------------------------
 # sp b3lyp/6-311g** Force nosymm scf=(qc)
 -----------------------------------------

 -------------------
 Title Card Required
 -------------------
 Symbolic Z-matrix:
 Charge =  0 Multiplicity = 2

                          Input orientation:
 ---------------------------------------------------------------------
 Center     Atomic      Atomic             Coordinates (Angstroms)
 Number     Number       Type             X           Y           Z
 ---------------------------------------------------------------------
      1          1           0        0.000000    0.000000    0.000000
      2          1           0       -3.150000    0.000000    0.000000
      3          9           0        3.750000    0.000000    0.000000
 ---------------------------------------------------------------------

 SCF Done:  E(UB3LYP) =  -100.759289790     a.u. after   31 cycles

 Alpha  occ. eigenvalues --  -24.75716  -1.21655  -0.54840  -0.46045  -0.46045
 Alpha  occ. eigenvalues --   -0.32342
 Alpha virt. eigenvalues --   -0.07449   0.24787   0.36746   0.86956   0.91274
 Alpha virt. eigenvalues --    0.91274   1.01325   1.25180   1.25180   1.25647
 Alpha virt. eigenvalues --    1.44589   1.44754   1.44754   2.15578   2.40078

  Beta  occ. eigenvalues --  -24.72582  -1.12643  -0.42902  -0.42902  -0.32621
  Beta virt. eigenvalues --   -0.25653  -0.07122   0.24595   0.37245   0.92769
  Beta virt. eigenvalues --    0.92769   0.96240   1.05413   1.24868   1.24868
  Beta virt. eigenvalues --    1.25314   1.45099   1.45263   1.45263   2.15682

 Mulliken charges and spin densities:
               1          2
     1  H    0.005172  -0.988792
     2  H    0.000272   0.994839
     3  F   -0.005444   0.993953
 Sum of Mulliken charges =   0.00000   1.00000

 Dipole moment (field-independent basis, Debye):
    X=             -0.1094    Y=              0.0000    Z=              0.0000  Tot=              0.1094
 Quadrupole moment (field-independent basis, Debye-Ang):
   XX=             -7.0457   YY=             -7.6309   ZZ=             -7.6309
   XY=              0.0000   XZ=              0.0000   YZ=              0.0000

  Exact polarizability:      18.190       0.000       2.028       0.000       0.000       2.028
 Approx polarizability:      13.479       0.000       1.934       0.000      -0.000       1.934

 ******    2 imaginary frequencies (negative Signs) ******

                      1                      2                      3
                      A                      A                      A
 Frequencies --   -290.1208               -97.3936               100.7211
 Red. masses --      1.0098                 1.1062                 1.0160
 Frc consts  --      0.0501                 0.0062                 0.0061
 IR Inten    --      2.5910                 1.6309                 0.0247

                      4
                      A
 Frequencies --    100.7211
 Red. masses --      1.0160
 Frc consts  --      0.0061
 IR Inten    --      0.0247

 - Thermochemistry -
 -------------------
 Temperature   298.150 Kelvin.  Pressure   1.00000 Atm.
 Atom     1 has atomic number  1 and mass   1.00783

 Molecular mass:    21.01405 amu.
 Principal axes and moments of inertia in atomic units:
                           1         2         3
     Eigenvalues --     0.00000 202.38235 202.38235
           X            1.00000  -0.00000   0.00000
           Y            0.00000   1.00000   0.00000
           Z            0.00000   0.00000   1.00000
 This molecule is a prolate symmetric top.
 Rotational symmetry number  1.
 Rotational temperature (Kelvin)      0.42797
 Rotational constant (GHZ):           8.917483
    2 imaginary frequencies ignored.
 Zero-point vibrational energy       1204.9 (Joules/Mol)
                                    0.28798 (Kcal/Mol)
 Warning -- explicit consideration of   2 degrees of freedom as
           vibrations may cause significant error
 Vibrational temperatures:    144.92   144.92
          (Kelvin)

 Zero-point correction=                           0.000459 (Hartree/Particle)
 Thermal correction to Energy=                    0.004286
 Thermal correction to Enthalpy=                  0.005230
 Thermal correction to Gibbs Free Energy=        -0.022481
 Sum of electronic and zero-point Energies=           -100.758831
 Sum of electronic and thermal Energies=              -100.755004
 Sum of electronic and thermal Enthalpies=            -100.754060
 Sum of electronic and thermal Free Energies=         -100.781770

                     E (Thermal)             CV                S
                      KCal/Mol        Cal/Mol-Kelvin    Cal/Mol-Kelvin
 Total                    2.689              8.865             58.322
 Electronic               0.000              0.000              1.377
 Translational            0.889              2.981             35.068
 Rotational               0.592              1.987             14.996
 Vibrational              1.208              3.897              6.881
 Vibration     1          0.604              1.949              3.440
 Vibration     2          0.604              1.949              3.440

 Normal termination of Gaussian 16 at Sat Aug 23 00:27:09 2025.
