 Gaussian 16, Revision C.01,
 Gaussian 16:  ES64L-G16RevC.01  3-Jul-2019

 -----------------------------------------
 # sp b3lyp/6-311g** Force nosymm scf=(qc)
 -----------------------------------------

 -------------------
 Title Card Required
 -------------------
 Symbolic Z-matrix:
 Charge =  0 Multiplicity = 2

                          Input orientation:
 ---------------------------------------------------------------------
 Center     Atomic      Atomic             Coordinates (Angstroms)
 Number     Number       Type             X           Y           Z
 ---------------------------------------------------------------------
      1          1           0        0.000000    0.000000    0.000000
      2          1           0       -2.800000    0.000000    0.000000
      3          9           0        3.300000    0.000000    0.000000
 ---------------------------------------------------------------------

 SCF Done:  E(UB3LYP) =  -100.761247782     a.u. after   25 cycles

 Alpha  occ. eigenvalues --  -24.75016  -1.21005  -0.54136  -0.45454  -0.45454
 Alpha  occ. eigenvalues --   -0.32616
 Alpha virt. eigenvalues --   -0.08902   0.25186   0.34925   0.88322   0.91709
 Alpha virt. eigenvalues --    0.91709   1.02450   1.24950   1.24950   1.26137
 Alpha virt. eigenvalues --    1.42538   1.42538   1.42924   2.15841   2.38617

  Beta  occ. eigenvalues --  -24.71926  -1.12136  -0.42359  -0.42359  -0.33181
  Beta virt. eigenvalues --   -0.25295  -0.08110   0.25010   0.36045   0.93191
  Beta virt. eigenvalues --    0.93191   0.97344   1.06409   1.24282   1.24282
  Beta virt. eigenvalues --    1.25380   1.43806   1.43806   1.44141   2.16423

 Mulliken charges and spin densities:
               1          2
     1  H    0.017069  -0.966552
     2  H    0.001614   0.987232
     3  F   -0.018683   0.979320
 Sum of Mulliken charges =  -0.00000   1.00000

 Dipole moment (field-independent basis, Debye):
    X=             -0.3383    Y=             -0.0000    Z=             -0.0000  Tot=              0.3383
 Quadrupole moment (field-independent basis, Debye-Ang):
   XX=             -7.5630   YY=             -7.6407   ZZ=             -7.6407
   XY=             -0.0000   XZ=             -0.0000   YZ=              0.0000

  Exact polarizability:      33.365      -0.000       2.024      -0.000      -0.000       2.024
 Approx polarizability:      27.520      -0.000       1.928      -0.000       0.000       1.928

 ******    2 imaginary frequencies (negative Signs) ******

                      1                      2                      3
                      A                      A                      A
 Frequencies --   -469.5299              -167.7692               168.4357
 Red. masses --      1.0108                 1.1050                 1.0161
 Frc consts  --      0.1313                 0.0183                 0.0170
 IR Inten    --     13.5090                 8.1142                 0.2402

                      4
                      A
 Frequencies --    168.4357
 Red. masses --      1.0161
 Frc consts  --      0.0170
 IR Inten    --      0.2402

 - Thermochemistry -
 -------------------
 Temperature   298.150 Kelvin.  Pressure   1.00000 Atm.
 Atom     1 has atomic number  1 and mass   1.00783

 Molecular mass:    21.01405 amu.
 Principal axes and moments of inertia in atomic units:
                           1         2         3
     Eigenvalues --     0.00000 157.86076 157.86076
           X            1.00000  -0.00000   0.00000
           Y            0.00000   1.00000   0.00000
           Z            0.00000   0.00000   1.00000
 This molecule is a prolate symmetric top.
 Rotational symmetry number  1.
 Rotational temperature (Kelvin)      0.54867
 Rotational constant (GHZ):          11.432487
    2 imaginary frequencies ignored.
 Zero-point vibrational energy       2014.9 (Joules/Mol)
                                    0.48158 (Kcal/Mol)
 Warning -- explicit consideration of   2 degrees of freedom as
           vibrations may cause significant error
 Vibrational temperatures:    242.34   242.34
          (Kelvin)

 Zero-point correction=                           0.000767 (Hartree/Particle)
 Thermal correction to Energy=                    0.004352
 Thermal correction to Enthalpy=                  0.005296
 Thermal correction to Gibbs Free Energy=        -0.021242
 Sum of electronic and zero-point Energies=           -100.760480
 Sum of electronic and thermal Energies=              -100.756896
 Sum of electronic and thermal Enthalpies=            -100.755952
 Sum of electronic and thermal Free Energies=         -100.782490

                     E (Thermal)             CV                S
                      KCal/Mol        Cal/Mol-Kelvin    Cal/Mol-Kelvin
 Total                    2.731              8.731             55.853
 Electronic               0.000              0.000              1.377
 Translational            0.889              2.981             35.068
 Rotational               0.592              1.987             14.502
 Vibrational              1.250              3.763              4.906
 Vibration     1          0.625              1.881              2.453
 Vibration     2          0.625              1.881              2.453

 Normal termination of Gaussian 16 at Fri Aug 22 20:49:11 2025.
