 Gaussian 16, Revision C.01,
 Gaussian 16:  ES64L-G16RevC.01  3-Jul-2019

 -----------------------------------------
 # sp b3lyp/6-311g** Force nosymm scf=(qc)
 -----------------------------------------

 -------------------
 Title Card Required
 -------------------
 Symbolic Z-matrix:
 Charge =  0 Multiplicity = 2

                          Input orientation:
 ---------------------------------------------------------------------
 Center     Atomic      Atomic             Coordinates (Angstroms)
 Number     Number       Type             X           Y           Z
 ---------------------------------------------------------------------
      1          1           0        0.000000    0.000000    0.000000
      2          1           0       -3.250000    0.000000    0.000000
      3          9           0        3.850000    0.000000    0.000000
 ---------------------------------------------------------------------

 SCF Done:  E(UB3LYP) =  -100.759028372     a.u. after   35 cycles

 Alpha  occ. eigenvalues --  -24.75796  -1.21730  -0.54921  -0.46113  -0.46113
 Alpha  occ. eigenvalues --   -0.32308
 Alpha virt. eigenvalues --   -0.07170   0.24660   0.37118   0.86770   0.91223
 Alpha virt. eigenvalues --    0.91223   1.01206   1.25207   1.25207   1.25552
 Alpha virt. eigenvalues --    1.44937   1.45150   1.45150   2.15448   2.40426

  Beta  occ. eigenvalues --  -24.72656  -1.12701  -0.42965  -0.42965  -0.32544
  Beta virt. eigenvalues --   -0.25691  -0.06902   0.24485   0.37508   0.92720
  Beta virt. eigenvalues --    0.92720   0.96101   1.05313   1.24947   1.24947
  Beta virt. eigenvalues --    1.25274   1.45353   1.45560   1.45560   2.15492

 Mulliken charges and spin densities:
               1          2
     1  H    0.003790  -0.991581
     2  H    0.000172   0.995988
     3  F   -0.003962   0.995593
 Sum of Mulliken charges =  -0.00000   1.00000

 Dipole moment (field-independent basis, Debye):
    X=             -0.0815    Y=              0.0000    Z=             -0.0000  Tot=              0.0815
 Quadrupole moment (field-independent basis, Debye-Ang):
   XX=             -6.9732   YY=             -7.6285   ZZ=             -7.6285
   XY=              0.0000   XZ=             -0.0000   YZ=             -0.0000

  Exact polarizability:      15.050       0.000       2.031       0.000      -0.000       2.031
 Approx polarizability:      11.148       0.000       1.935      -0.000       0.000       1.935

 ******    2 imaginary frequencies (negative Signs) ******

                      1                      2                      3
                      A                      A                      A
 Frequencies --   -254.9132               -84.2927                87.6475
 Red. masses --      1.0096                 1.1064                 1.0160
 Frc consts  --      0.0387                 0.0046                 0.0046
 IR Inten    --      1.5958                 1.0279                 0.0132

                      4
                      A
 Frequencies --     87.6475
 Red. masses --      1.0160
 Frc consts  --      0.0046
 IR Inten    --      0.0132

 - Thermochemistry -
 -------------------
 Temperature   298.150 Kelvin.  Pressure   1.00000 Atm.
 Atom     1 has atomic number  1 and mass   1.00783

 Molecular mass:    21.01405 amu.
 Principal axes and moments of inertia in atomic units:
                           1         2         3
     Eigenvalues --     0.00000 214.07632 214.07632
           X            1.00000  -0.00000   0.00000
           Y            0.00000   1.00000   0.00000
           Z            0.00000   0.00000   1.00000
 This molecule is a prolate symmetric top.
 Rotational symmetry number  1.
 Rotational temperature (Kelvin)      0.40459
 Rotational constant (GHZ):           8.430363
    2 imaginary frequencies ignored.
 Zero-point vibrational energy       1048.5 (Joules/Mol)
                                    0.25060 (Kcal/Mol)
 Warning -- explicit consideration of   2 degrees of freedom as
           vibrations may cause significant error
 Vibrational temperatures:    126.11   126.11
          (Kelvin)

 Zero-point correction=                           0.000399 (Hartree/Particle)
 Thermal correction to Energy=                    0.004277
 Thermal correction to Enthalpy=                  0.005221
 Thermal correction to Gibbs Free Energy=        -0.022801
 Sum of electronic and zero-point Energies=           -100.758629
 Sum of electronic and thermal Energies=              -100.754751
 Sum of electronic and thermal Enthalpies=            -100.753807
 Sum of electronic and thermal Free Energies=         -100.781829

                     E (Thermal)             CV                S
                      KCal/Mol        Cal/Mol-Kelvin    Cal/Mol-Kelvin
 Total                    2.684              8.884             58.977
 Electronic               0.000              0.000              1.377
 Translational            0.889              2.981             35.068
 Rotational               0.592              1.987             15.108
 Vibrational              1.203              3.916              7.424
 Vibration     1          0.601              1.958              3.712
 Vibration     2          0.601              1.958              3.712

 Normal termination of Gaussian 16 at Sat Aug 23 01:10:31 2025.
