 Gaussian 16, Revision C.01,
 Gaussian 16:  ES64L-G16RevC.01  3-Jul-2019

 -----------------------------------------
 # sp b3lyp/6-311g** Force nosymm scf=(qc)
 -----------------------------------------

 -------------------
 Title Card Required
 -------------------
 Symbolic Z-matrix:
 Charge =  0 Multiplicity = 2

                          Input orientation:
 ---------------------------------------------------------------------
 Center     Atomic      Atomic             Coordinates (Angstroms)
 Number     Number       Type             X           Y           Z
 ---------------------------------------------------------------------
      1          1           0        0.000000    0.000000    0.000000
      2          1           0       -3.250000    0.000000    0.000000
      3          9           0        3.550000    0.000000    0.000000
 ---------------------------------------------------------------------

 SCF Done:  E(UB3LYP) =  -100.759354152     a.u. after   32 cycles

 Alpha  occ. eigenvalues --  -24.75471  -1.21428  -0.54594  -0.45838  -0.45838
 Alpha  occ. eigenvalues --   -0.32369
 Alpha virt. eigenvalues --   -0.07420   0.24587   0.36672   0.87455   0.91428
 Alpha virt. eigenvalues --    0.91428   1.01692   1.25147   1.25147   1.25497
 Alpha virt. eigenvalues --    1.44588   1.44761   1.44761   2.15391   2.40399

  Beta  occ. eigenvalues --  -24.72352  -1.12464  -0.42711  -0.42711  -0.32789
  Beta virt. eigenvalues --   -0.25528  -0.06929   0.24366   0.37478   0.92919
  Beta virt. eigenvalues --    0.92919   0.96630   1.05724   1.24665   1.24665
  Beta virt. eigenvalues --    1.24989   1.45334   1.45548   1.45548   2.15605

 Mulliken charges and spin densities:
               1          2
     1  H    0.009649  -0.985041
     2  H    0.000315   0.996035
     3  F   -0.009964   0.989006
 Sum of Mulliken charges =  -0.00000   1.00000

 Dipole moment (field-independent basis, Debye):
    X=             -0.1869    Y=             -0.0000    Z=              0.0000  Tot=              0.1869
 Quadrupole moment (field-independent basis, Debye-Ang):
   XX=             -7.2937   YY=             -7.6271   ZZ=             -7.6271
   XY=              0.0000   XZ=             -0.0000   YZ=              0.0000

  Exact polarizability:      23.273       0.000       2.035      -0.000       0.000       2.035
 Approx polarizability:      17.978       0.000       1.933      -0.000      -0.000       1.933

 ******    2 imaginary frequencies (negative Signs) ******

                      1                      2                      3
                      A                      A                      A
 Frequencies --   -281.7795              -116.0943                91.0840
 Red. masses --      1.0157                 1.0991                 1.0169
 Frc consts  --      0.0475                 0.0087                 0.0050
 IR Inten    --      7.4001                 2.4065                 0.0773

                      4
                      A
 Frequencies --     91.0841
 Red. masses --      1.0169
 Frc consts  --      0.0050
 IR Inten    --      0.0773

 - Thermochemistry -
 -------------------
 Temperature   298.150 Kelvin.  Pressure   1.00000 Atm.
 Atom     1 has atomic number  1 and mass   1.00783

 Molecular mass:    21.01405 amu.
 Principal axes and moments of inertia in atomic units:
                           1         2         3
     Eigenvalues --     0.00000 193.28458 193.28458
           X            1.00000  -0.00000   0.00000
           Y            0.00000   1.00000   0.00000
           Z            0.00000   0.00000   1.00000
 This molecule is a prolate symmetric top.
 Rotational symmetry number  1.
 Rotational temperature (Kelvin)      0.44812
 Rotational constant (GHZ):           9.337223
    2 imaginary frequencies ignored.
 Zero-point vibrational energy       1089.6 (Joules/Mol)
                                    0.26042 (Kcal/Mol)
 Warning -- explicit consideration of   2 degrees of freedom as
           vibrations may cause significant error
 Vibrational temperatures:    131.05   131.05
          (Kelvin)

 Zero-point correction=                           0.000415 (Hartree/Particle)
 Thermal correction to Energy=                    0.004279
 Thermal correction to Enthalpy=                  0.005223
 Thermal correction to Gibbs Free Energy=        -0.022631
 Sum of electronic and zero-point Energies=           -100.758939
 Sum of electronic and thermal Energies=              -100.755075
 Sum of electronic and thermal Enthalpies=            -100.754131
 Sum of electronic and thermal Free Energies=         -100.781985

                     E (Thermal)             CV                S
                      KCal/Mol        Cal/Mol-Kelvin    Cal/Mol-Kelvin
 Total                    2.685              8.879             58.623
 Electronic               0.000              0.000              1.377
 Translational            0.889              2.981             35.068
 Rotational               0.592              1.987             14.905
 Vibrational              1.204              3.911              7.273
 Vibration     1          0.602              1.956              3.637
 Vibration     2          0.602              1.956              3.637

 Normal termination of Gaussian 16 at Fri Aug 22 22:41:02 2025.
