 Gaussian 16, Revision C.01,
 Gaussian 16:  ES64L-G16RevC.01  3-Jul-2019

 -----------------------------------------
 # sp b3lyp/6-311g** Force nosymm scf=(qc)
 -----------------------------------------

 -------------------
 Title Card Required
 -------------------
 Symbolic Z-matrix:
 Charge =  0 Multiplicity = 2

                          Input orientation:
 ---------------------------------------------------------------------
 Center     Atomic      Atomic             Coordinates (Angstroms)
 Number     Number       Type             X           Y           Z
 ---------------------------------------------------------------------
      1          1           0        0.000000    0.000000    0.000000
      2          1           0       -0.950000    0.000000    0.000000
      3          9           0        1.300000    0.000000    0.000000
 ---------------------------------------------------------------------

 SCF Done:  E(UB3LYP) =  -100.940085308     a.u. after    8 cycles

 Alpha  occ. eigenvalues --  -24.67272  -1.15464  -0.55126  -0.39942  -0.39942
 Alpha  occ. eigenvalues --   -0.39194
 Alpha virt. eigenvalues --    0.07187   0.19380   0.37266   0.89230   0.89230
 Alpha virt. eigenvalues --    0.98393   1.07768   1.07768   1.31456   1.63445
 Alpha virt. eigenvalues --    1.66219   1.66219   2.23280   2.31312   2.56325

  Beta  occ. eigenvalues --  -24.65374  -1.10449  -0.47182  -0.38146  -0.38146
  Beta virt. eigenvalues --   -0.22044   0.09543   0.21081   0.40735   0.90390
  Beta virt. eigenvalues --    0.90390   1.02688   1.11798   1.11798   1.35664
  Beta virt. eigenvalues --    1.67473   1.68891   1.68891   2.24601   2.37971

 Mulliken charges and spin densities:
               1          2
     1  H    0.224670  -0.073183
     2  H    0.036076   0.515610
     3  F   -0.260745   0.557573
 Sum of Mulliken charges =  -0.00000   1.00000

 Dipole moment (field-independent basis, Debye):
    X=             -1.9264    Y=             -0.0000    Z=             -0.0000  Tot=              1.9264
 Quadrupole moment (field-independent basis, Debye-Ang):
   XX=             -7.5023   YY=             -6.8574   ZZ=             -6.8574
   XY=             -0.0000   XZ=             -0.0000   YZ=              0.0000

  Exact polarizability:      22.802       0.000       2.465      -0.000      -0.000       2.465
 Approx polarizability:      31.749       0.000       2.469      -0.000      -0.000       2.469

 ******    1 imaginary frequencies (negative Signs) ******

                      1                      2                      3
                      A                      A                      A
 Frequencies --  -1876.2830              1000.7904              1000.7904
 Red. masses --      1.0489                 1.0146                 1.0146
 Frc consts  --      2.1756                 0.5987                 0.5987
 IR Inten    --    529.1806                13.0138                13.0138

                      4
                      A
 Frequencies --   1388.4707
 Red. masses --      1.0627
 Frc consts  --      1.2071
 IR Inten    --    179.8091

 - Thermochemistry -
 -------------------
 Temperature   298.150 Kelvin.  Pressure   1.00000 Atm.
 Atom     1 has atomic number  1 and mass   1.00783

 Molecular mass:    21.01405 amu.
 Principal axes and moments of inertia in atomic units:
                           1         2         3
     Eigenvalues --     0.00000  22.12703  22.12703
           X            1.00000  -0.00000   0.00000
           Y            0.00000   1.00000   0.00000
           Z            0.00000   0.00000   1.00000
 This molecule is a prolate symmetric top.
 Rotational symmetry number  1.
 Rotational temperature (Kelvin)      3.91440
 Rotational constant (GHZ):          81.562753
    1 imaginary frequencies ignored.
 Zero-point vibrational energy      20277.0 (Joules/Mol)
                                    4.84632 (Kcal/Mol)
 Vibrational temperatures:   1439.91  1439.91  1997.70
          (Kelvin)

 Zero-point correction=                           0.007723 (Hartree/Particle)
 Thermal correction to Energy=                    0.010165
 Thermal correction to Enthalpy=                  0.011109
 Thermal correction to Gibbs Free Energy=        -0.011340
 Sum of electronic and zero-point Energies=           -100.932362
 Sum of electronic and thermal Energies=              -100.929920
 Sum of electronic and thermal Enthalpies=            -100.928976
 Sum of electronic and thermal Free Energies=         -100.951426

                     E (Thermal)             CV                S
                      KCal/Mol        Cal/Mol-Kelvin    Cal/Mol-Kelvin
 Total                    6.379              5.831             47.248
 Electronic               0.000              0.000              1.377
 Translational            0.889              2.981             35.068
 Rotational               0.592              1.987             10.598
 Vibrational              4.897              0.863              0.205

 Normal termination of Gaussian 16 at Fri Aug 22 16:14:17 2025.
