 Gaussian 16, Revision C.01,
 Gaussian 16:  ES64L-G16RevC.01  3-Jul-2019

 -----------------------------------------
 # sp b3lyp/6-311g** Force nosymm scf=(qc)
 -----------------------------------------

 -------------------
 Title Card Required
 -------------------
 Symbolic Z-matrix:
 Charge =  0 Multiplicity = 2

                          Input orientation:
 ---------------------------------------------------------------------
 Center     Atomic      Atomic             Coordinates (Angstroms)
 Number     Number       Type             X           Y           Z
 ---------------------------------------------------------------------
      1          1           0        0.000000    0.000000    0.000000
      2          1           0       -3.700000    0.000000    0.000000
      3          9           0        0.600000    0.000000    0.000000
 ---------------------------------------------------------------------

 SCF Done:  E(UB3LYP) =  -100.687899696     a.u. after    6 cycles

 Alpha  occ. eigenvalues --  -24.62731  -1.34731  -0.61026  -0.42982  -0.42982
 Alpha  occ. eigenvalues --   -0.33215
 Alpha virt. eigenvalues --    0.07379   0.24764   0.58060   0.92120   0.92120
 Alpha virt. eigenvalues --    0.93148   1.24146   1.24291   1.24291   1.33498
 Alpha virt. eigenvalues --    1.50262   1.50262   1.95424   2.14517   3.36523

  Beta  occ. eigenvalues --  -24.62731  -1.34730  -0.61026  -0.42982  -0.42982
  Beta virt. eigenvalues --   -0.05152   0.07670   0.38994   0.58050   0.92120
  Beta virt. eigenvalues --    0.92120   0.93144   1.33135   1.49309   1.49860
  Beta virt. eigenvalues --    1.49860   1.50262   1.50262   1.95394   2.45395

 Mulliken charges and spin densities:
               1          2
     1  H    0.238258   0.000378
     2  H    0.000502   0.999421
     3  F   -0.238760   0.000201
 Sum of Mulliken charges =   0.00000   1.00000

 Dipole moment (field-independent basis, Debye):
    X=             -1.4365    Y=             -0.0000    Z=              0.0000  Tot=              1.4365
 Quadrupole moment (field-independent basis, Debye-Ang):
   XX=             -6.9858   YY=             -6.5521   ZZ=             -6.5521
   XY=             -0.0000   XZ=              0.0000   YZ=             -0.0000

  Exact polarizability:       3.304      -0.000       2.436       0.000       0.000       2.436
 Approx polarizability:       3.548       0.000       2.415      -0.000       0.000       2.415

 ******    3 imaginary frequencies (negative Signs) ******

                      1                      2                      3
                      A                      A                      A
 Frequencies --  -5890.4668             -5890.4668               -32.4920
 Red. masses --      1.0445                 1.0445                 1.0532
 Frc consts  --     21.3533                21.3533                 0.0007
 IR Inten    --    241.7220               241.7220                 0.0142

                      4
                      A
 Frequencies --  13070.5933
 Red. masses --      1.0583
 Frc consts  --    106.5256
 IR Inten    --     96.6814

 - Thermochemistry -
 -------------------
 Temperature   298.150 Kelvin.  Pressure   1.00000 Atm.
 Atom     1 has atomic number  1 and mass   1.00783

 Molecular mass:    21.01405 amu.
 Principal axes and moments of inertia in atomic units:
                           1         2         3
     Eigenvalues --     0.00000  63.69702  63.69702
           X            1.00000  -0.00000   0.00000
           Y            0.00000   1.00000   0.00000
           Z            0.00000   0.00000   1.00000
 This molecule is a prolate symmetric top.
 Rotational symmetry number  1.
 Rotational temperature (Kelvin)      1.35978
 Rotational constant (GHZ):          28.333213
    3 imaginary frequencies ignored.
 Zero-point vibrational energy      78179.5 (Joules/Mol)
                                   18.68535 (Kcal/Mol)
 Vibrational temperatures:  18805.67
          (Kelvin)

 Zero-point correction=                           0.029777 (Hartree/Particle)
 Thermal correction to Energy=                    0.032137
 Thermal correction to Enthalpy=                  0.033082
 Thermal correction to Gibbs Free Energy=         0.009732
 Sum of electronic and zero-point Energies=           -100.658123
 Sum of electronic and thermal Energies=              -100.655762
 Sum of electronic and thermal Enthalpies=            -100.654818
 Sum of electronic and thermal Free Energies=         -100.678168

                     E (Thermal)             CV                S
                      KCal/Mol        Cal/Mol-Kelvin    Cal/Mol-Kelvin
 Total                   20.167              4.968             49.144
 Electronic               0.000              0.000              1.377
 Translational            0.889              2.981             35.068
 Rotational               0.592              1.987             12.699
 Vibrational             18.685              0.000              0.000

 Normal termination of Gaussian 16 at Fri Aug 22 15:42:48 2025.
