 Gaussian 16, Revision C.01,
 Gaussian 16:  ES64L-G16RevC.01  3-Jul-2019

 -----------------------------------------
 # sp b3lyp/6-311g** Force nosymm scf=(qc)
 -----------------------------------------

 -------------------
 Title Card Required
 -------------------
 Symbolic Z-matrix:
 Charge =  0 Multiplicity = 2

                          Input orientation:
 ---------------------------------------------------------------------
 Center     Atomic      Atomic             Coordinates (Angstroms)
 Number     Number       Type             X           Y           Z
 ---------------------------------------------------------------------
      1          1           0        0.000000    0.000000    0.000000
      2          1           0       -1.600000    0.000000    0.000000
      3          9           0        0.550000    0.000000    0.000000
 ---------------------------------------------------------------------

 SCF Done:  E(UB3LYP) =  -100.513851985     a.u. after    7 cycles

 Alpha  occ. eigenvalues --  -24.62837  -1.38756  -0.62789  -0.43796  -0.43796
 Alpha  occ. eigenvalues --   -0.35464
 Alpha virt. eigenvalues --    0.13669   0.22408   0.59993   0.90850   0.90850
 Alpha virt. eigenvalues --    0.91197   1.20036   1.20036   1.38514   1.56067
 Alpha virt. eigenvalues --    1.56067   1.64822   2.00008   2.21088   3.73990

  Beta  occ. eigenvalues --  -24.62765  -1.38524  -0.62483  -0.43751  -0.43751
  Beta virt. eigenvalues --   -0.10858   0.14831   0.31727   0.64323   0.90946
  Beta virt. eigenvalues --    0.90946   0.91337   1.36957   1.36957   1.43186
  Beta virt. eigenvalues --    1.58220   1.58220   1.75829   2.00198   2.46173

 Mulliken charges and spin densities:
               1          2
     1  H    0.173917   0.015886
     2  H    0.010675   0.980885
     3  F   -0.184592   0.003229
 Sum of Mulliken charges =   0.00000   1.00000

 Dipole moment (field-independent basis, Debye):
    X=             -1.3816    Y=              0.0000    Z=             -0.0000  Tot=              1.3816
 Quadrupole moment (field-independent basis, Debye-Ang):
   XX=             -6.6839   YY=             -6.4315   ZZ=             -6.4315
   XY=              0.0000   XZ=             -0.0000   YZ=             -0.0000

  Exact polarizability:       5.820      -0.000       2.490       0.000       0.000       2.490
 Approx polarizability:       5.527      -0.000       2.499       0.000       0.000       2.499

 ******    2 imaginary frequencies (negative Signs) ******

                      1                      2                      3
                      A                      A                      A
 Frequencies --  -7354.3416             -7354.3416               794.0310
 Red. masses --      1.0341                 1.0341                 1.0534
 Frc consts  --     32.9535                32.9535                 0.3913
 IR Inten    --    195.8100               195.8100                 3.5130

                      4
                      A
 Frequencies --  15778.1158
 Red. masses --      1.0582
 Frc consts  --    155.2118
 IR Inten    --     96.5694

 - Thermochemistry -
 -------------------
 Temperature   298.150 Kelvin.  Pressure   1.00000 Atm.
 Atom     1 has atomic number  1 and mass   1.00783

 Molecular mass:    21.01405 amu.
 Principal axes and moments of inertia in atomic units:
                           1         2         3
     Eigenvalues --     0.00000  16.46681  16.46681
           X            1.00000  -0.00000   0.00000
           Y            0.00000   1.00000   0.00000
           Z            0.00000   0.00000   1.00000
 This molecule is a prolate symmetric top.
 Rotational symmetry number  1.
 Rotational temperature (Kelvin)      5.25991
 Rotational constant (GHZ):         109.598697
    2 imaginary frequencies ignored.
 Zero-point vibrational energy      99123.5 (Joules/Mol)
                                   23.69107 (Kcal/Mol)
 Vibrational temperatures:   1142.43 22701.19
          (Kelvin)

 Zero-point correction=                           0.037754 (Hartree/Particle)
 Thermal correction to Energy=                    0.040195
 Thermal correction to Enthalpy=                  0.041139
 Thermal correction to Gibbs Free Energy=         0.018965
 Sum of electronic and zero-point Energies=           -100.476098
 Sum of electronic and thermal Energies=              -100.473657
 Sum of electronic and thermal Enthalpies=            -100.472713
 Sum of electronic and thermal Free Energies=         -100.494887

                     E (Thermal)             CV                S
                      KCal/Mol        Cal/Mol-Kelvin    Cal/Mol-Kelvin
 Total                   25.223              5.629             46.668
 Electronic               0.000              0.000              1.377
 Translational            0.889              2.981             35.068
 Rotational               0.592              1.987             10.011
 Vibrational             23.741              0.661              0.212

 Normal termination of Gaussian 16 at Fri Aug 22 15:39:04 2025.
