 Gaussian 16, Revision C.01,
 Gaussian 16:  ES64L-G16RevC.01  3-Jul-2019

 -----------------------------------------
 # sp b3lyp/6-311g** Force nosymm scf=(qc)
 -----------------------------------------

 -------------------
 Title Card Required
 -------------------
 Symbolic Z-matrix:
 Charge =  0 Multiplicity = 2

                          Input orientation:
 ---------------------------------------------------------------------
 Center     Atomic      Atomic             Coordinates (Angstroms)
 Number     Number       Type             X           Y           Z
 ---------------------------------------------------------------------
      1          1           0        0.000000    0.000000    0.000000
      2          1           0       -2.300000    0.000000    0.000000
      3          9           0        3.750000    0.000000    0.000000
 ---------------------------------------------------------------------

 SCF Done:  E(UB3LYP) =  -100.765510449     a.u. after   35 cycles

 Alpha  occ. eigenvalues --  -24.75782  -1.21717  -0.54907  -0.46103  -0.46103
 Alpha  occ. eigenvalues --   -0.32707
 Alpha virt. eigenvalues --   -0.09975   0.25924   0.33924   0.86931   0.91225
 Alpha virt. eigenvalues --    0.91225   1.01278   1.25059   1.25059   1.25361
 Alpha virt. eigenvalues --    1.40249   1.40249   1.44136   2.14884   2.35606

  Beta  occ. eigenvalues --  -24.72646  -1.12698  -0.42958  -0.42958  -0.32847
  Beta virt. eigenvalues --   -0.25705  -0.09725   0.25758   0.34300   0.92722
  Beta virt. eigenvalues --    0.92722   0.96236   1.05381   1.24897   1.24897
  Beta virt. eigenvalues --    1.25203   1.40611   1.40611   1.44459   2.15168

 Mulliken charges and spin densities:
               1          2
     1  H    0.002516  -0.939388
     2  H    0.002158   0.944749
     3  F   -0.004674   0.994640
 Sum of Mulliken charges =   0.00000   1.00000

 Dipole moment (field-independent basis, Debye):
    X=             -0.1135    Y=             -0.0000    Z=             -0.0000  Tot=              0.1135
 Quadrupole moment (field-independent basis, Debye-Ang):
   XX=             -6.7010   YY=             -7.6874   ZZ=             -7.6874
   XY=             -0.0000   XZ=             -0.0000   YZ=              0.0000

  Exact polarizability:      29.192      -0.000       2.015      -0.000       0.000       2.015
 Approx polarizability:      22.612      -0.000       1.931      -0.000       0.000       1.931

 ******    2 imaginary frequencies (negative Signs) ******

                      1                      2                      3
                      A                      A                      A
 Frequencies --   -883.6584              -100.6564               336.5259
 Red. masses --      1.0078                 1.1085                 1.0131
 Frc consts  --      0.4637                 0.0066                 0.0676
 IR Inten    --      2.0962                 2.2587                 0.0026

                      4
                      A
 Frequencies --    336.5259
 Red. masses --      1.0131
 Frc consts  --      0.0676
 IR Inten    --      0.0026

 - Thermochemistry -
 -------------------
 Temperature   298.150 Kelvin.  Pressure   1.00000 Atm.
 Atom     1 has atomic number  1 and mass   1.00783

 Molecular mass:    21.01405 amu.
 Principal axes and moments of inertia in atomic units:
                           1         2         3
     Eigenvalues --     0.00000 165.76660 165.76660
           X            1.00000  -0.00000   0.00000
           Y            0.00000   1.00000   0.00000
           Z            0.00000   0.00000   1.00000
 This molecule is a prolate symmetric top.
 Rotational symmetry number  1.
 Rotational temperature (Kelvin)      0.52251
 Rotational constant (GHZ):          10.887243
    2 imaginary frequencies ignored.
 Zero-point vibrational energy       4025.7 (Joules/Mol)
                                    0.96218 (Kcal/Mol)
 Warning -- explicit consideration of   2 degrees of freedom as
           vibrations may cause significant error
 Vibrational temperatures:    484.19   484.19
          (Kelvin)

 Zero-point correction=                           0.001533 (Hartree/Particle)
 Thermal correction to Energy=                    0.004647
 Thermal correction to Enthalpy=                  0.005591
 Thermal correction to Gibbs Free Energy=        -0.019830
 Sum of electronic and zero-point Energies=           -100.763977
 Sum of electronic and thermal Energies=              -100.760864
 Sum of electronic and thermal Enthalpies=            -100.759920
 Sum of electronic and thermal Free Energies=         -100.785340

                     E (Thermal)             CV                S
                      KCal/Mol        Cal/Mol-Kelvin    Cal/Mol-Kelvin
 Total                    2.916              8.173             53.502
 Electronic               0.000              0.000              1.377
 Translational            0.889              2.981             35.068
 Rotational               0.592              1.987             14.599
 Vibrational              1.435              3.205              2.457
 Vibration     1          0.717              1.603              1.229
 Vibration     2          0.717              1.603              1.229

 Normal termination of Gaussian 16 at Sat Aug 23 00:25:47 2025.
