 Gaussian 16, Revision C.01,
 Gaussian 16:  ES64L-G16RevC.01  3-Jul-2019

 -----------------------------------------
 # sp b3lyp/6-311g** Force nosymm scf=(qc)
 -----------------------------------------

 -------------------
 Title Card Required
 -------------------
 Symbolic Z-matrix:
 Charge =  0 Multiplicity = 2

                          Input orientation:
 ---------------------------------------------------------------------
 Center     Atomic      Atomic             Coordinates (Angstroms)
 Number     Number       Type             X           Y           Z
 ---------------------------------------------------------------------
      1          1           0        0.000000    0.000000    0.000000
      2          1           0       -2.550000    0.000000    0.000000
      3          9           0        1.600000    0.000000    0.000000
 ---------------------------------------------------------------------

 SCF Done:  E(UB3LYP) =  -100.835984256     a.u. after   13 cycles

 Alpha  occ. eigenvalues --  -24.64684  -1.10464  -0.43453  -0.36656  -0.36656
 Alpha  occ. eigenvalues --   -0.35615
 Alpha virt. eigenvalues --   -0.14506   0.22938   0.27503   0.94374   0.94374
 Alpha virt. eigenvalues --    1.00802   1.07730   1.21931   1.21931   1.24340
 Alpha virt. eigenvalues --    1.32577   1.32577   1.75164   2.13001   2.21885

  Beta  occ. eigenvalues --  -24.63742  -1.07935  -0.41074  -0.35752  -0.35752
  Beta virt. eigenvalues --   -0.17579  -0.08903   0.24224   0.35219   0.94078
  Beta virt. eigenvalues --    0.94078   1.02155   1.08147   1.27898   1.27898
  Beta virt. eigenvalues --    1.41885   1.41885   1.42867   1.73328   2.14962

 Mulliken charges and spin densities:
               1          2
     1  H    0.310557  -0.273720
     2  H    0.018854   0.976735
     3  F   -0.329412   0.296985
 Sum of Mulliken charges =   0.00000   1.00000

 Dipole moment (field-independent basis, Debye):
    X=             -2.8031    Y=             -0.0000    Z=             -0.0000  Tot=              2.8031
 Quadrupole moment (field-independent basis, Debye-Ang):
   XX=             -9.5411   YY=             -7.3804   ZZ=             -7.3804
   XY=             -0.0000   XZ=             -0.0000   YZ=              0.0000

  Exact polarizability:      27.209      -0.000       2.159      -0.000       0.000       2.159
 Approx polarizability:      39.988      -0.000       2.074      -0.000      -0.000       2.074

 ******    2 imaginary frequencies (negative Signs) ******

                      1                      2                      3
                      A                      A                      A
 Frequencies --  -1890.4512              -296.3884               888.3437
 Red. masses --      1.0520                 1.0596                 1.0245
 Frc consts  --      2.2150                 0.0548                 0.4763
 IR Inten    --     22.5607                 6.6944                82.8444

                      4
                      A
 Frequencies --    888.3437
 Red. masses --      1.0245
 Frc consts  --      0.4763
 IR Inten    --     82.8444

 - Thermochemistry -
 -------------------
 Temperature   298.150 Kelvin.  Pressure   1.00000 Atm.
 Atom     1 has atomic number  1 and mass   1.00783

 Molecular mass:    21.01405 amu.
 Principal axes and moments of inertia in atomic units:
                           1         2         3
     Eigenvalues --     0.00000  65.49057  65.49057
           X            1.00000  -0.00000   0.00000
           Y            0.00000   1.00000   0.00000
           Z            0.00000   0.00000   1.00000
 This molecule is a prolate symmetric top.
 Rotational symmetry number  1.
 Rotational temperature (Kelvin)      1.32254
 Rotational constant (GHZ):          27.557268
    2 imaginary frequencies ignored.
 Zero-point vibrational energy      10627.0 (Joules/Mol)
                                    2.53990 (Kcal/Mol)
 Vibrational temperatures:   1278.13  1278.13
          (Kelvin)

 Zero-point correction=                           0.004048 (Hartree/Particle)
 Thermal correction to Energy=                    0.006521
 Thermal correction to Enthalpy=                  0.007465
 Thermal correction to Gibbs Free Energy=        -0.016050
 Sum of electronic and zero-point Energies=           -100.831937
 Sum of electronic and thermal Energies=              -100.829463
 Sum of electronic and thermal Enthalpies=            -100.828519
 Sum of electronic and thermal Free Energies=         -100.852034

                     E (Thermal)             CV                S
                      KCal/Mol        Cal/Mol-Kelvin    Cal/Mol-Kelvin
 Total                    4.092              6.000             49.492
 Electronic               0.000              0.000              1.377
 Translational            0.889              2.981             35.068
 Rotational               0.592              1.987             12.754
 Vibrational              2.611              1.032              0.293

 Normal termination of Gaussian 16 at Fri Aug 22 16:31:41 2025.
