 Gaussian 16, Revision C.01,
 Gaussian 16:  ES64L-G16RevC.01  3-Jul-2019

 -----------------------------------------
 # sp b3lyp/6-311g** Force nosymm scf=(qc)
 -----------------------------------------

 -------------------
 Title Card Required
 -------------------
 Symbolic Z-matrix:
 Charge =  0 Multiplicity = 2

                          Input orientation:
 ---------------------------------------------------------------------
 Center     Atomic      Atomic             Coordinates (Angstroms)
 Number     Number       Type             X           Y           Z
 ---------------------------------------------------------------------
      1          1           0        0.000000    0.000000    0.000000
      2          1           0       -2.600000    0.000000    0.000000
      3          9           0        0.600000    0.000000    0.000000
 ---------------------------------------------------------------------

 SCF Done:  E(UB3LYP) =  -100.688038381     a.u. after    6 cycles

 Alpha  occ. eigenvalues --  -24.62704  -1.34693  -0.61017  -0.42947  -0.42947
 Alpha  occ. eigenvalues --   -0.34175
 Alpha virt. eigenvalues --    0.08553   0.25659   0.58183   0.92158   0.92158
 Alpha virt. eigenvalues --    0.93193   1.19043   1.23370   1.23370   1.44128
 Alpha virt. eigenvalues --    1.50293   1.50293   1.95139   2.14782   3.36570

  Beta  occ. eigenvalues --  -24.62698  -1.34676  -0.61002  -0.42944  -0.42944
  Beta virt. eigenvalues --   -0.07556   0.09822   0.38542   0.57896   0.92151
  Beta virt. eigenvalues --    0.92151   0.93280   1.31236   1.47053   1.47053
  Beta virt. eigenvalues --    1.50290   1.50290   1.56416   1.95033   2.44094

 Mulliken charges and spin densities:
               1          2
     1  H    0.233495   0.002781
     2  H    0.003780   0.994902
     3  F   -0.237275   0.002317
 Sum of Mulliken charges =   0.00000   1.00000

 Dipole moment (field-independent basis, Debye):
    X=             -1.4777    Y=              0.0000    Z=              0.0000  Tot=              1.4777
 Quadrupole moment (field-independent basis, Debye-Ang):
   XX=             -6.8309   YY=             -6.5475   ZZ=             -6.5475
   XY=              0.0000   XZ=              0.0000   YZ=              0.0000

  Exact polarizability:       4.639      -0.000       2.458       0.000      -0.000       2.458
 Approx polarizability:       4.694      -0.000       2.441      -0.000      -0.000       2.441

 ******    2 imaginary frequencies (negative Signs) ******

                      1                      2                      3
                      A                      A                      A
 Frequencies --  -5846.7907             -5846.7907                97.9907
 Red. masses --      1.0401                 1.0401                 1.0532
 Frc consts  --     20.9479                20.9479                 0.0060
 IR Inten    --    227.4737               227.4737                 0.1494

                      4
                      A
 Frequencies --  13070.6832
 Red. masses --      1.0583
 Frc consts  --    106.5270
 IR Inten    --    106.7691

 - Thermochemistry -
 -------------------
 Temperature   298.150 Kelvin.  Pressure   1.00000 Atm.
 Atom     1 has atomic number  1 and mass   1.00783

 Molecular mass:    21.01405 amu.
 Principal axes and moments of inertia in atomic units:
                           1         2         3
     Eigenvalues --     0.00000  35.65705  35.65705
           X            1.00000  -0.00000   0.00000
           Y            0.00000   1.00000   0.00000
           Z            0.00000   0.00000   1.00000
 This molecule is a prolate symmetric top.
 Rotational symmetry number  1.
 Rotational temperature (Kelvin)      2.42908
 Rotational constant (GHZ):          50.613872
    2 imaginary frequencies ignored.
 Zero-point vibrational energy      78766.2 (Joules/Mol)
                                   18.82556 (Kcal/Mol)
 Warning -- explicit consideration of   1 degrees of freedom as
           vibrations may cause significant error
 Vibrational temperatures:    140.99 18805.80
          (Kelvin)

 Zero-point correction=                           0.030000 (Hartree/Particle)
 Thermal correction to Energy=                    0.033099
 Thermal correction to Enthalpy=                  0.034044
 Thermal correction to Gibbs Free Energy=         0.009581
 Sum of electronic and zero-point Energies=           -100.658038
 Sum of electronic and thermal Energies=              -100.654939
 Sum of electronic and thermal Enthalpies=            -100.653995
 Sum of electronic and thermal Free Energies=         -100.678457

                     E (Thermal)             CV                S
                      KCal/Mol        Cal/Mol-Kelvin    Cal/Mol-Kelvin
 Total                   20.770              6.919             51.485
 Electronic               0.000              0.000              1.377
 Translational            0.889              2.981             35.068
 Rotational               0.592              1.987             11.546
 Vibrational             19.289              1.951              3.494
 Vibration     1          0.603              1.951              3.494

 Normal termination of Gaussian 16 at Fri Aug 22 15:42:06 2025.
