 Gaussian 16, Revision C.01,
 Gaussian 16:  ES64L-G16RevC.01  3-Jul-2019

 -----------------------------------------
 # sp b3lyp/6-311g** Force nosymm scf=(qc)
 -----------------------------------------

 -------------------
 Title Card Required
 -------------------
 Symbolic Z-matrix:
 Charge =  0 Multiplicity = 2

                          Input orientation:
 ---------------------------------------------------------------------
 Center     Atomic      Atomic             Coordinates (Angstroms)
 Number     Number       Type             X           Y           Z
 ---------------------------------------------------------------------
      1          1           0        0.000000    0.000000    0.000000
      2          1           0       -2.750000    0.000000    0.000000
      3          9           0        1.650000    0.000000    0.000000
 ---------------------------------------------------------------------

 SCF Done:  E(UB3LYP) =  -100.824768047     a.u. after   10 cycles

 Alpha  occ. eigenvalues --  -24.63861  -1.08524  -0.41216  -0.35742  -0.35742
 Alpha  occ. eigenvalues --   -0.35191
 Alpha virt. eigenvalues --   -0.17582   0.21371   0.26770   0.94670   0.94670
 Alpha virt. eigenvalues --    0.99344   1.07723   1.22238   1.22238   1.23494
 Alpha virt. eigenvalues --    1.28227   1.28227   1.72336   2.13167   2.16340

  Beta  occ. eigenvalues --  -24.64021  -1.08955  -0.41380  -0.35896  -0.35896
  Beta virt. eigenvalues --   -0.17961  -0.08233   0.24635   0.36287   0.94758
  Beta virt. eigenvalues --    0.94758   0.99453   1.07809   1.29345   1.29345
  Beta virt. eigenvalues --    1.43468   1.43468   1.43645   1.73101   2.17895

 Mulliken charges and spin densities:
               1          2
     1  H    0.322536   0.066106
     2  H    0.014553   0.984661
     3  F   -0.337089  -0.050767
 Sum of Mulliken charges =  -0.00000   1.00000

 Dipole moment (field-independent basis, Debye):
    X=             -2.9224    Y=              0.0000    Z=             -0.0000  Tot=              2.9224
 Quadrupole moment (field-independent basis, Debye-Ang):
   XX=            -10.0214   YY=             -7.3992   ZZ=             -7.3992
   XY=              0.0000   XZ=             -0.0000   YZ=             -0.0000

  Exact polarizability:      25.024       0.000       2.128      -0.000      -0.000       2.128
 Approx polarizability:      47.816       0.000       2.045      -0.000      -0.000       2.045

 ******    2 imaginary frequencies (negative Signs) ******

                      1                      2                      3
                      A                      A                      A
 Frequencies --  -1208.7090              -180.4825               888.1709
 Red. masses --      1.0518                 1.0598                 1.0251
 Frc consts  --      0.9054                 0.0203                 0.4765
 IR Inten    --    124.7729                 3.7451                92.7578

                      4
                      A
 Frequencies --    888.1709
 Red. masses --      1.0251
 Frc consts  --      0.4765
 IR Inten    --     92.7578

 - Thermochemistry -
 -------------------
 Temperature   298.150 Kelvin.  Pressure   1.00000 Atm.
 Atom     1 has atomic number  1 and mass   1.00783

 Molecular mass:    21.01405 amu.
 Principal axes and moments of inertia in atomic units:
                           1         2         3
     Eigenvalues --     0.00000  73.15726  73.15726
           X            1.00000  -0.00000   0.00000
           Y            0.00000   1.00000   0.00000
           Z            0.00000   0.00000   1.00000
 This molecule is a prolate symmetric top.
 Rotational symmetry number  1.
 Rotational temperature (Kelvin)      1.18394
 Rotational constant (GHZ):          24.669338
    2 imaginary frequencies ignored.
 Zero-point vibrational energy      10624.9 (Joules/Mol)
                                    2.53941 (Kcal/Mol)
 Vibrational temperatures:   1277.88  1277.88
          (Kelvin)

 Zero-point correction=                           0.004047 (Hartree/Particle)
 Thermal correction to Energy=                    0.006520
 Thermal correction to Enthalpy=                  0.007464
 Thermal correction to Gibbs Free Energy=        -0.016155
 Sum of electronic and zero-point Energies=           -100.820721
 Sum of electronic and thermal Energies=              -100.818248
 Sum of electronic and thermal Enthalpies=            -100.817304
 Sum of electronic and thermal Free Energies=         -100.840924

                     E (Thermal)             CV                S
                      KCal/Mol        Cal/Mol-Kelvin    Cal/Mol-Kelvin
 Total                    4.091              6.001             49.712
 Electronic               0.000              0.000              1.377
 Translational            0.889              2.981             35.068
 Rotational               0.592              1.987             12.974
 Vibrational              2.610              1.033              0.293

 Normal termination of Gaussian 16 at Fri Aug 22 16:35:02 2025.
