 Gaussian 16, Revision C.01,
 Gaussian 16:  ES64L-G16RevC.01  3-Jul-2019

 -----------------------------------------
 # sp b3lyp/6-311g** Force nosymm scf=(qc)
 -----------------------------------------

 -------------------
 Title Card Required
 -------------------
 Symbolic Z-matrix:
 Charge =  0 Multiplicity = 2

                          Input orientation:
 ---------------------------------------------------------------------
 Center     Atomic      Atomic             Coordinates (Angstroms)
 Number     Number       Type             X           Y           Z
 ---------------------------------------------------------------------
      1          1           0        0.000000    0.000000    0.000000
      2          1           0       -0.600000    0.000000    0.000000
      3          9           0        0.500000    0.000000    0.000000
 ---------------------------------------------------------------------

 SCF Done:  E(UB3LYP) =  -100.026028438     a.u. after    6 cycles

 Alpha  occ. eigenvalues --  -24.72472  -1.59908  -0.76811  -0.53264  -0.53264
 Alpha  occ. eigenvalues --   -0.24060
 Alpha virt. eigenvalues --    0.16249   0.21113   0.81237   0.81237   0.81412
 Alpha virt. eigenvalues --    0.98538   1.13130   1.13130   1.41293   1.51351
 Alpha virt. eigenvalues --    2.10084   2.10084   2.27473   3.68059   3.68059

  Beta  occ. eigenvalues --  -24.71746  -1.57221  -0.74848  -0.52676  -0.52676
  Beta virt. eigenvalues --   -0.06154   0.17011   0.27960   0.82171   0.82504
  Beta virt. eigenvalues --    0.82504   1.04399   1.19073   1.19073   1.44639
  Beta virt. eigenvalues --    1.54774   2.15661   2.15661   2.35842   3.68398

 Mulliken charges and spin densities:
               1          2
     1  H    0.144177  -0.133615
     2  H   -0.234432   1.117268
     3  F    0.090256   0.016347
 Sum of Mulliken charges =   0.00000   1.00000

 Dipole moment (field-independent basis, Debye):
    X=              0.2707    Y=              0.0000    Z=              0.0000  Tot=              0.2707
 Quadrupole moment (field-independent basis, Debye-Ang):
   XX=             -7.7357   YY=             -6.5039   ZZ=             -6.5039
   XY=              0.0000   XZ=              0.0000   YZ=              0.0000

  Exact polarizability:       7.423       0.000       2.371      -0.000       0.000       2.371
 Approx polarizability:       6.955       0.000       2.491      -0.000       0.000       2.491

 ******    2 imaginary frequencies (negative Signs) ******

                      1                      2                      3
                      A                      A                      A
 Frequencies --  -9673.1224             -9673.1224              5424.9271
 Red. masses --      1.0203                 1.0203                 1.0600
 Frc consts  --     56.2486                56.2486                18.3794
 IR Inten    --    224.6364               224.6364               713.6016

                      4
                      A
 Frequencies --  19678.9367
 Red. masses --      1.0516
 Frc consts  --    239.9432
 IR Inten    --      0.2820

 - Thermochemistry -
 -------------------
 Temperature   298.150 Kelvin.  Pressure   1.00000 Atm.
 Atom     1 has atomic number  1 and mass   1.00783

 Molecular mass:    21.01405 amu.
 Principal axes and moments of inertia in atomic units:
                           1         2         3
     Eigenvalues --     0.00000   4.81268   4.81268
           X            1.00000  -0.00000   0.00000
           Y            0.00000   1.00000   0.00000
           Z            0.00000   0.00000   1.00000
 This molecule is a prolate symmetric top.
 Rotational symmetry number  1.
 Rotational temperature (Kelvin)     17.99703
 Rotational constant (GHZ):         374.997229
    2 imaginary frequencies ignored.
 Zero-point vibrational energy     150154.5 (Joules/Mol)
                                   35.88778 (Kcal/Mol)
 Vibrational temperatures:   7805.26 28313.60
          (Kelvin)

 Zero-point correction=                           0.057191 (Hartree/Particle)
 Thermal correction to Energy=                    0.059551
 Thermal correction to Enthalpy=                  0.060495
 Thermal correction to Gibbs Free Energy=         0.039584
 Sum of electronic and zero-point Energies=            -99.968838
 Sum of electronic and thermal Energies=               -99.966477
 Sum of electronic and thermal Enthalpies=             -99.965533
 Sum of electronic and thermal Free Energies=          -99.986444

                     E (Thermal)             CV                S
                      KCal/Mol        Cal/Mol-Kelvin    Cal/Mol-Kelvin
 Total                   37.369              4.968             44.011
 Electronic               0.000              0.000              1.377
 Translational            0.889              2.981             35.068
 Rotational               0.592              1.987              7.566
 Vibrational             35.888              0.000              0.000

 Normal termination of Gaussian 16 at Fri Aug 22 15:35:55 2025.
