 Gaussian 16, Revision C.01,
 Gaussian 16:  ES64L-G16RevC.01  3-Jul-2019

 -----------------------------------------
 # sp b3lyp/6-311g** Force nosymm scf=(qc)
 -----------------------------------------

 -------------------
 Title Card Required
 -------------------
 Symbolic Z-matrix:
 Charge =  0 Multiplicity = 2

                          Input orientation:
 ---------------------------------------------------------------------
 Center     Atomic      Atomic             Coordinates (Angstroms)
 Number     Number       Type             X           Y           Z
 ---------------------------------------------------------------------
      1          1           0        0.000000    0.000000    0.000000
      2          1           0       -2.750000    0.000000    0.000000
      3          9           0        0.650000    0.000000    0.000000
 ---------------------------------------------------------------------

 SCF Done:  E(UB3LYP) =  -100.800812576     a.u. after    6 cycles

 Alpha  occ. eigenvalues --  -24.62914  -1.31286  -0.59792  -0.42331  -0.42331
 Alpha  occ. eigenvalues --   -0.34058
 Alpha virt. eigenvalues --    0.07748   0.25618   0.55610   0.92909   0.92909
 Alpha virt. eigenvalues --    0.94684   1.20506   1.23480   1.23480   1.39769
 Alpha virt. eigenvalues --    1.46937   1.46937   1.96184   2.14637   3.09632

  Beta  occ. eigenvalues --  -24.62910  -1.31274  -0.59781  -0.42329  -0.42329
  Beta virt. eigenvalues --   -0.07081   0.08948   0.38713   0.55646   0.92905
  Beta virt. eigenvalues --    0.92905   0.94728   1.31529   1.46936   1.46936
  Beta virt. eigenvalues --    1.48819   1.48819   1.53475   1.95934   2.44016

 Mulliken charges and spin densities:
               1          2
     1  H    0.252001   0.002070
     2  H    0.002941   0.995939
     3  F   -0.254942   0.001991
 Sum of Mulliken charges =   0.00000   1.00000

 Dipole moment (field-independent basis, Debye):
    X=             -1.5450    Y=              0.0000    Z=             -0.0000  Tot=              1.5450
 Quadrupole moment (field-independent basis, Debye-Ang):
   XX=             -7.0138   YY=             -6.6054   ZZ=             -6.6054
   XY=              0.0000   XZ=             -0.0000   YZ=             -0.0000

  Exact polarizability:       4.662       0.000       2.461      -0.000       0.000       2.461
 Approx polarizability:       4.808       0.000       2.444       0.000       0.000       2.444

 ******    2 imaginary frequencies (negative Signs) ******

                      1                      2                      3
                      A                      A                      A
 Frequencies --  -4572.6141             -4572.6141                53.4085
 Red. masses --      1.0397                 1.0397                 1.0532
 Frc consts  --     12.8084                12.8084                 0.0018
 IR Inten    --    216.8508               216.8508                 0.1448

                      4
                      A
 Frequencies --  10873.4197
 Red. masses --      1.0583
 Frc consts  --     73.7219
 IR Inten    --    111.3650

 - Thermochemistry -
 -------------------
 Temperature   298.150 Kelvin.  Pressure   1.00000 Atm.
 Atom     1 has atomic number  1 and mass   1.00783

 Molecular mass:    21.01405 amu.
 Principal axes and moments of inertia in atomic units:
                           1         2         3
     Eigenvalues --     0.00000  40.29393  40.29393
           X            1.00000  -0.00000   0.00000
           Y            0.00000   1.00000   0.00000
           Z            0.00000   0.00000   1.00000
 This molecule is a prolate symmetric top.
 Rotational symmetry number  1.
 Rotational temperature (Kelvin)      2.14955
 Rotational constant (GHZ):          44.789401
    2 imaginary frequencies ignored.
 Zero-point vibrational energy      65356.9 (Joules/Mol)
                                   15.62069 (Kcal/Mol)
 Warning -- explicit consideration of   1 degrees of freedom as
           vibrations may cause significant error
 Vibrational temperatures:     76.84 15644.43
          (Kelvin)

 Zero-point correction=                           0.024893 (Hartree/Particle)
 Thermal correction to Energy=                    0.028081
 Thermal correction to Enthalpy=                  0.029026
 Thermal correction to Gibbs Free Energy=         0.003881
 Sum of electronic and zero-point Energies=           -100.775919
 Sum of electronic and thermal Energies=              -100.772731
 Sum of electronic and thermal Enthalpies=            -100.771787
 Sum of electronic and thermal Free Energies=         -100.796932

                     E (Thermal)             CV                S
                      KCal/Mol        Cal/Mol-Kelvin    Cal/Mol-Kelvin
 Total                   17.621              6.944             52.921
 Electronic               0.000              0.000              1.377
 Translational            0.889              2.981             35.068
 Rotational               0.592              1.987             11.789
 Vibrational             16.140              1.976              4.687
 Vibration     1          0.596              1.976              4.687

 Normal termination of Gaussian 16 at Fri Aug 22 15:44:34 2025.
