 Gaussian 16, Revision C.01,
 Gaussian 16:  ES64L-G16RevC.01  3-Jul-2019

 -----------------------------------------
 # sp b3lyp/6-311g** Force nosymm scf=(qc)
 -----------------------------------------

 -------------------
 Title Card Required
 -------------------
 Symbolic Z-matrix:
 Charge =  0 Multiplicity = 2

                          Input orientation:
 ---------------------------------------------------------------------
 Center     Atomic      Atomic             Coordinates (Angstroms)
 Number     Number       Type             X           Y           Z
 ---------------------------------------------------------------------
      1          1           0        0.000000    0.000000    0.000000
      2          1           0       -2.600000    0.000000    0.000000
      3          9           0        3.300000    0.000000    0.000000
 ---------------------------------------------------------------------

 SCF Done:  E(UB3LYP) =  -100.762513276     a.u. after   26 cycles

 Alpha  occ. eigenvalues --  -24.75038  -1.21026  -0.54159  -0.45473  -0.45473
 Alpha  occ. eigenvalues --   -0.32730
 Alpha virt. eigenvalues --   -0.09510   0.25467   0.34291   0.88328   0.91695
 Alpha virt. eigenvalues --    0.91695   1.02438   1.24885   1.24885   1.26496
 Alpha virt. eigenvalues --    1.41474   1.41474   1.42532   2.15822   2.37470

  Beta  occ. eigenvalues --  -24.71948  -1.12153  -0.42377  -0.42377  -0.33215
  Beta virt. eigenvalues --   -0.25312  -0.08762   0.25318   0.35322   0.93177
  Beta virt. eigenvalues --    0.93177   0.97362   1.06413   1.24303   1.24303
  Beta virt. eigenvalues --    1.25788   1.42665   1.42665   1.43715   2.16531

 Mulliken charges and spin densities:
               1          2
     1  H    0.015661  -0.957304
     2  H    0.002649   0.977675
     3  F   -0.018311   0.979629
 Sum of Mulliken charges =  -0.00000   1.00000

 Dipole moment (field-independent basis, Debye):
    X=             -0.3431    Y=              0.0000    Z=             -0.0000  Tot=              0.3431
 Quadrupole moment (field-independent basis, Debye-Ang):
   XX=             -7.4658   YY=             -7.6537   ZZ=             -7.6537
   XY=              0.0000   XZ=             -0.0000   YZ=             -0.0000

  Exact polarizability:      36.699       0.000       2.021      -0.000       0.000       2.021
 Approx polarizability:      29.533       0.000       1.927      -0.000      -0.000       1.927

 ******    2 imaginary frequencies (negative Signs) ******

                      1                      2                      3
                      A                      A                      A
 Frequencies --   -596.7470              -174.2825               217.5839
 Red. masses --      1.0089                 1.1073                 1.0153
 Frc consts  --      0.2117                 0.0198                 0.0283
 IR Inten    --     11.9683                10.1730                 0.1881

                      4
                      A
 Frequencies --    217.5839
 Red. masses --      1.0153
 Frc consts  --      0.0283
 IR Inten    --      0.1881

 - Thermochemistry -
 -------------------
 Temperature   298.150 Kelvin.  Pressure   1.00000 Atm.
 Atom     1 has atomic number  1 and mass   1.00783

 Molecular mass:    21.01405 amu.
 Principal axes and moments of inertia in atomic units:
                           1         2         3
     Eigenvalues --     0.00000 149.86524 149.86524
           X            1.00000  -0.00000   0.00000
           Y            0.00000   1.00000   0.00000
           Z            0.00000   0.00000   1.00000
 This molecule is a prolate symmetric top.
 Rotational symmetry number  1.
 Rotational temperature (Kelvin)      0.57795
 Rotational constant (GHZ):          12.042427
    2 imaginary frequencies ignored.
 Zero-point vibrational energy       2602.9 (Joules/Mol)
                                    0.62210 (Kcal/Mol)
 Warning -- explicit consideration of   2 degrees of freedom as
           vibrations may cause significant error
 Vibrational temperatures:    313.05   313.05
          (Kelvin)

 Zero-point correction=                           0.000991 (Hartree/Particle)
 Thermal correction to Energy=                    0.004419
 Thermal correction to Enthalpy=                  0.005363
 Thermal correction to Gibbs Free Energy=        -0.020675
 Sum of electronic and zero-point Energies=           -100.761522
 Sum of electronic and thermal Energies=              -100.758094
 Sum of electronic and thermal Enthalpies=            -100.757150
 Sum of electronic and thermal Free Energies=         -100.783188

                     E (Thermal)             CV                S
                      KCal/Mol        Cal/Mol-Kelvin    Cal/Mol-Kelvin
 Total                    2.773              8.597             54.803
 Electronic               0.000              0.000              1.377
 Translational            0.889              2.981             35.068
 Rotational               0.592              1.987             14.399
 Vibrational              1.292              3.629              3.958
 Vibration     1          0.646              1.814              1.979
 Vibration     2          0.646              1.814              1.979

 Normal termination of Gaussian 16 at Fri Aug 22 20:48:58 2025.
