 Gaussian 16, Revision C.01,
 Gaussian 16:  ES64L-G16RevC.01  3-Jul-2019

 -----------------------------------------
 # sp b3lyp/6-311g** Force nosymm scf=(qc)
 -----------------------------------------

 -------------------
 Title Card Required
 -------------------
 Symbolic Z-matrix:
 Charge =  0 Multiplicity = 2

                          Input orientation:
 ---------------------------------------------------------------------
 Center     Atomic      Atomic             Coordinates (Angstroms)
 Number     Number       Type             X           Y           Z
 ---------------------------------------------------------------------
      1          1           0        0.000000    0.000000    0.000000
      2          1           0       -4.000000    0.000000    0.000000
      3          9           0        2.150000    0.000000    0.000000
 ---------------------------------------------------------------------

 SCF Done:  E(UB3LYP) =  -100.778614227     a.u. after   15 cycles

 Alpha  occ. eigenvalues --  -24.69403  -1.15721  -0.48446  -0.40756  -0.40756
 Alpha  occ. eigenvalues --   -0.33009
 Alpha virt. eigenvalues --   -0.12654   0.22900   0.32708   0.88208   0.94609
 Alpha virt. eigenvalues --    0.94609   1.05791   1.24486   1.24493   1.24493
 Alpha virt. eigenvalues --    1.37032   1.37032   1.53718   2.13748   2.31766

  Beta  occ. eigenvalues --  -24.66830  -1.08475  -0.38208  -0.38208  -0.37050
  Beta virt. eigenvalues --   -0.21676  -0.06152   0.22925   0.38069   0.90665
  Beta virt. eigenvalues --    0.95604   0.95604   1.08103   1.21517   1.21517
  Beta virt. eigenvalues --    1.44597   1.46565   1.46664   1.46664   2.11264

 Mulliken charges and spin densities:
               1          2
     1  H    0.155203  -0.809509
     2  H    0.000378   0.999366
     3  F   -0.155581   0.810143
 Sum of Mulliken charges =  -0.00000   1.00000

 Dipole moment (field-independent basis, Debye):
    X=             -1.6768    Y=             -0.0000    Z=              0.0000  Tot=              1.6768
 Quadrupole moment (field-independent basis, Debye-Ang):
   XX=             -9.9308   YY=             -7.5151   ZZ=             -7.5151
   XY=              0.0000   XZ=             -0.0000   YZ=             -0.0000

  Exact polarizability:      26.436       0.000       2.045      -0.000      -0.000       2.045
 Approx polarizability:      37.472      -0.000       1.932       0.000      -0.000       1.932

 ******    2 imaginary frequencies (negative Signs) ******

                      1                      2                      3
                      A                      A                      A
 Frequencies --   -918.7635               -67.2699               388.0982
 Red. masses --      1.0577                 1.0538                 1.0269
 Frc consts  --      0.5260                 0.0028                 0.0911
 IR Inten    --    110.4282                 0.0279                23.3362

                      4
                      A
 Frequencies --    388.0982
 Red. masses --      1.0269
 Frc consts  --      0.0911
 IR Inten    --     23.3362

 - Thermochemistry -
 -------------------
 Temperature   298.150 Kelvin.  Pressure   1.00000 Atm.
 Atom     1 has atomic number  1 and mass   1.00783

 Molecular mass:    21.01405 amu.
 Principal axes and moments of inertia in atomic units:
                           1         2         3
     Eigenvalues --     0.00000 140.86903 140.86903
           X            1.00000  -0.00000   0.00000
           Y            0.00000   1.00000   0.00000
           Z            0.00000   0.00000   1.00000
 This molecule is a prolate symmetric top.
 Rotational symmetry number  1.
 Rotational temperature (Kelvin)      0.61485
 Rotational constant (GHZ):          12.811483
    2 imaginary frequencies ignored.
 Zero-point vibrational energy       4642.7 (Joules/Mol)
                                    1.10963 (Kcal/Mol)
 Warning -- explicit consideration of   2 degrees of freedom as
           vibrations may cause significant error
 Vibrational temperatures:    558.39   558.39
          (Kelvin)

 Zero-point correction=                           0.001768 (Hartree/Particle)
 Thermal correction to Energy=                    0.004771
 Thermal correction to Enthalpy=                  0.005715
 Thermal correction to Gibbs Free Energy=        -0.019342
 Sum of electronic and zero-point Energies=           -100.776846
 Sum of electronic and thermal Energies=              -100.773843
 Sum of electronic and thermal Enthalpies=            -100.772899
 Sum of electronic and thermal Free Energies=         -100.797956

                     E (Thermal)             CV                S
                      KCal/Mol        Cal/Mol-Kelvin    Cal/Mol-Kelvin
 Total                    2.994              7.959             52.736
 Electronic               0.000              0.000              1.377
 Translational            0.889              2.981             35.068
 Rotational               0.592              1.987             14.276
 Vibrational              1.513              2.991              2.015
 Vibration     1          0.756              1.496              1.007
 Vibration     2          0.756              1.496              1.007

 Normal termination of Gaussian 16 at Fri Aug 22 17:09:33 2025.
