 Gaussian 16, Revision C.01,
 Gaussian 16:  ES64L-G16RevC.01  3-Jul-2019

 -----------------------------------------
 # sp b3lyp/6-311g** Force nosymm scf=(qc)
 -----------------------------------------

 -------------------
 Title Card Required
 -------------------
 Symbolic Z-matrix:
 Charge =  0 Multiplicity = 2

                          Input orientation:
 ---------------------------------------------------------------------
 Center     Atomic      Atomic             Coordinates (Angstroms)
 Number     Number       Type             X           Y           Z
 ---------------------------------------------------------------------
      1          1           0        0.000000    0.000000    0.000000
      2          1           0       -2.350000    0.000000    0.000000
      3          9           0        0.550000    0.000000    0.000000
 ---------------------------------------------------------------------

 SCF Done:  E(UB3LYP) =  -100.519232750     a.u. after    6 cycles

 Alpha  occ. eigenvalues --  -24.62661  -1.38394  -0.62262  -0.43594  -0.43594
 Alpha  occ. eigenvalues --   -0.34445
 Alpha virt. eigenvalues --    0.09754   0.25447   0.59005   0.91258   0.91258
 Alpha virt. eigenvalues --    0.91422   1.17570   1.23108   1.23108   1.50858
 Alpha virt. eigenvalues --    1.54160   1.54160   1.95884   2.16914   3.65773

  Beta  occ. eigenvalues --  -24.62651  -1.38364  -0.62235  -0.43589  -0.43589
  Beta virt. eigenvalues --   -0.08252   0.11130   0.38074   0.58624   0.91242
  Beta virt. eigenvalues --    0.91242   0.91551   1.30174   1.45191   1.45191
  Beta virt. eigenvalues --    1.54143   1.54143   1.61260   1.97713   2.45323

 Mulliken charges and spin densities:
               1          2
     1  H    0.190255   0.005005
     2  H    0.005700   0.992592
     3  F   -0.195956   0.002403
 Sum of Mulliken charges =   0.00000   1.00000

 Dipole moment (field-independent basis, Debye):
    X=             -1.4179    Y=             -0.0000    Z=              0.0000  Tot=              1.4179
 Quadrupole moment (field-independent basis, Debye-Ang):
   XX=             -6.6330   YY=             -6.4848   ZZ=             -6.4848
   XY=             -0.0000   XZ=              0.0000   YZ=              0.0000

  Exact polarizability:       4.843       0.000       2.454      -0.000      -0.000       2.454
 Approx polarizability:       4.780       0.000       2.440      -0.000      -0.000       2.440

 ******    2 imaginary frequencies (negative Signs) ******

                      1                      2                      3
                      A                      A                      A
 Frequencies --  -7447.0100             -7447.0100               193.5886
 Red. masses --      1.0399                 1.0399                 1.0533
 Frc consts  --     33.9772                33.9772                 0.0233
 IR Inten    --    236.9512               236.9512                 0.1133

                      4
                      A
 Frequencies --  15777.7219
 Red. masses --      1.0583
 Frc consts  --    155.2206
 IR Inten    --     99.4006

 - Thermochemistry -
 -------------------
 Temperature   298.150 Kelvin.  Pressure   1.00000 Atm.
 Atom     1 has atomic number  1 and mass   1.00783

 Molecular mass:    21.01405 amu.
 Principal axes and moments of inertia in atomic units:
                           1         2         3
     Eigenvalues --     0.00000  29.30191  29.30191
           X            1.00000  -0.00000   0.00000
           Y            0.00000   1.00000   0.00000
           Z            0.00000   0.00000   1.00000
 This molecule is a prolate symmetric top.
 Rotational symmetry number  1.
 Rotational temperature (Kelvin)      2.95591
 Rotational constant (GHZ):          61.591252
    2 imaginary frequencies ignored.
 Zero-point vibrational energy      95529.7 (Joules/Mol)
                                   22.83213 (Kcal/Mol)
 Warning -- explicit consideration of   1 degrees of freedom as
           vibrations may cause significant error
 Vibrational temperatures:    278.53 22700.62
          (Kelvin)

 Zero-point correction=                           0.036385 (Hartree/Particle)
 Thermal correction to Energy=                    0.039317
 Thermal correction to Enthalpy=                  0.040261
 Thermal correction to Gibbs Free Energy=         0.016602
 Sum of electronic and zero-point Energies=           -100.482847
 Sum of electronic and thermal Energies=              -100.479916
 Sum of electronic and thermal Enthalpies=            -100.478972
 Sum of electronic and thermal Free Energies=         -100.502631

                     E (Thermal)             CV                S
                      KCal/Mol        Cal/Mol-Kelvin    Cal/Mol-Kelvin
 Total                   24.672              6.817             49.794
 Electronic               0.000              0.000              1.377
 Translational            0.889              2.981             35.068
 Rotational               0.592              1.987             11.156
 Vibrational             23.190              1.849              2.193
 Vibration     1          0.635              1.849              2.193

 Normal termination of Gaussian 16 at Fri Aug 22 15:39:34 2025.
