 Gaussian 16, Revision C.01,
 Gaussian 16:  ES64L-G16RevC.01  3-Jul-2019

 -----------------------------------------
 # sp b3lyp/6-311g** Force nosymm scf=(qc)
 -----------------------------------------

 -------------------
 Title Card Required
 -------------------
 Symbolic Z-matrix:
 Charge =  0 Multiplicity = 2

                          Input orientation:
 ---------------------------------------------------------------------
 Center     Atomic      Atomic             Coordinates (Angstroms)
 Number     Number       Type             X           Y           Z
 ---------------------------------------------------------------------
      1          1           0        0.000000    0.000000    0.000000
      2          1           0       -3.700000    0.000000    0.000000
      3          9           0        2.700000    0.000000    0.000000
 ---------------------------------------------------------------------

 SCF Done:  E(UB3LYP) =  -100.763901920     a.u. after   22 cycles

 Alpha  occ. eigenvalues --  -24.72808  -1.18958  -0.51921  -0.43605  -0.43605
 Alpha  occ. eigenvalues --   -0.32675
 Alpha virt. eigenvalues --   -0.09139   0.23656   0.35803   0.89931   0.93025
 Alpha virt. eigenvalues --    0.93025   1.05562   1.24827   1.24827   1.24900
 Alpha virt. eigenvalues --    1.42261   1.42261   1.44015   2.14402   2.38846

  Beta  occ. eigenvalues --  -24.69875  -1.10581  -0.40676  -0.40676  -0.34607
  Beta virt. eigenvalues --   -0.24017  -0.06350   0.23855   0.38050   0.94449
  Beta virt. eigenvalues --    0.94449   0.97723   1.08621   1.22719   1.22719
  Beta virt. eigenvalues --    1.25560   1.46138   1.46370   1.46370   2.13589

 Mulliken charges and spin densities:
               1          2
     1  H    0.064470  -0.926837
     2  H    0.000412   0.998747
     3  F   -0.064882   0.928090
 Sum of Mulliken charges =  -0.00000   1.00000

 Dipole moment (field-independent basis, Debye):
    X=             -0.9035    Y=             -0.0000    Z=             -0.0000  Tot=              0.9035
 Quadrupole moment (field-independent basis, Debye-Ang):
   XX=             -8.9430   YY=             -7.5884   ZZ=             -7.5884
   XY=             -0.0000   XZ=             -0.0000   YZ=             -0.0000

  Exact polarizability:      31.468      -0.000       2.024      -0.000      -0.000       2.024
 Approx polarizability:      37.113      -0.000       1.922      -0.000       0.000       1.922

 ******    2 imaginary frequencies (negative Signs) ******

                      1                      2                      3
                      A                      A                      A
 Frequencies --   -500.6412               -96.6989               186.3807
 Red. masses --      1.0543                 1.0573                 1.0222
 Frc consts  --      0.1557                 0.0058                 0.0209
 IR Inten    --     63.1287                 0.1571                 4.0029

                      4
                      A
 Frequencies --    186.3807
 Red. masses --      1.0222
 Frc consts  --      0.0209
 IR Inten    --      4.0029

 - Thermochemistry -
 -------------------
 Temperature   298.150 Kelvin.  Pressure   1.00000 Atm.
 Atom     1 has atomic number  1 and mass   1.00783

 Molecular mass:    21.01405 amu.
 Principal axes and moments of inertia in atomic units:
                           1         2         3
     Eigenvalues --     0.00000 159.35858 159.35858
           X            1.00000  -0.00000   0.00000
           Y            0.00000   1.00000   0.00000
           Z            0.00000   0.00000   1.00000
 This molecule is a prolate symmetric top.
 Rotational symmetry number  1.
 Rotational temperature (Kelvin)      0.54352
 Rotational constant (GHZ):          11.325033
    2 imaginary frequencies ignored.
 Zero-point vibrational energy       2229.6 (Joules/Mol)
                                    0.53289 (Kcal/Mol)
 Warning -- explicit consideration of   2 degrees of freedom as
           vibrations may cause significant error
 Vibrational temperatures:    268.16   268.16
          (Kelvin)

 Zero-point correction=                           0.000849 (Hartree/Particle)
 Thermal correction to Energy=                    0.004374
 Thermal correction to Enthalpy=                  0.005319
 Thermal correction to Gibbs Free Energy=        -0.021048
 Sum of electronic and zero-point Energies=           -100.763053
 Sum of electronic and thermal Energies=              -100.759527
 Sum of electronic and thermal Enthalpies=            -100.758583
 Sum of electronic and thermal Free Energies=         -100.784950

                     E (Thermal)             CV                S
                      KCal/Mol        Cal/Mol-Kelvin    Cal/Mol-Kelvin
 Total                    2.745              8.685             55.494
 Electronic               0.000              0.000              1.377
 Translational            0.889              2.981             35.068
 Rotational               0.592              1.987             14.521
 Vibrational              1.264              3.717              4.527
 Vibration     1          0.632              1.858              2.264
 Vibration     2          0.632              1.858              2.264

 Normal termination of Gaussian 16 at Fri Aug 22 18:27:06 2025.
