 Gaussian 16, Revision C.01,
 Gaussian 16:  ES64L-G16RevC.01  3-Jul-2019

 -----------------------------------------
 # sp b3lyp/6-311g** Force nosymm scf=(qc)
 -----------------------------------------

 -------------------
 Title Card Required
 -------------------
 Symbolic Z-matrix:
 Charge =  0 Multiplicity = 2

                          Input orientation:
 ---------------------------------------------------------------------
 Center     Atomic      Atomic             Coordinates (Angstroms)
 Number     Number       Type             X           Y           Z
 ---------------------------------------------------------------------
      1          1           0        0.000000    0.000000    0.000000
      2          1           0       -1.700000    0.000000    0.000000
      3          9           0        0.550000    0.000000    0.000000
 ---------------------------------------------------------------------

 SCF Done:  E(UB3LYP) =  -100.515716435     a.u. after    6 cycles

 Alpha  occ. eigenvalues --  -24.62755  -1.38611  -0.62605  -0.43706  -0.43706
 Alpha  occ. eigenvalues --   -0.35387
 Alpha virt. eigenvalues --    0.13084   0.22861   0.58241   0.91022   0.91022
 Alpha virt. eigenvalues --    0.91503   1.21045   1.21045   1.33989   1.55106
 Alpha virt. eigenvalues --    1.55106   1.62927   2.02104   2.19742   3.69753

  Beta  occ. eigenvalues --  -24.62699  -1.38434  -0.62380  -0.43674  -0.43674
  Beta virt. eigenvalues --   -0.10572   0.14308   0.32588   0.61930   0.91068
  Beta virt. eigenvalues --    0.91068   0.91621   1.39270   1.39270   1.40158
  Beta virt. eigenvalues --    1.56454   1.56454   1.72556   2.03318   2.45154

 Mulliken charges and spin densities:
               1          2
     1  H    0.171959   0.015194
     2  H    0.011086   0.982401
     3  F   -0.183045   0.002405
 Sum of Mulliken charges =   0.00000   1.00000

 Dipole moment (field-independent basis, Debye):
    X=             -1.4045    Y=              0.0000    Z=             -0.0000  Tot=              1.4045
 Quadrupole moment (field-independent basis, Debye-Ang):
   XX=             -6.6445   YY=             -6.4414   ZZ=             -6.4414
   XY=              0.0000   XZ=             -0.0000   YZ=              0.0000

  Exact polarizability:       5.750      -0.000       2.484       0.000      -0.000       2.484
 Approx polarizability:       5.475      -0.000       2.487       0.000      -0.000       2.487

 ******    2 imaginary frequencies (negative Signs) ******

                      1                      2                      3
                      A                      A                      A
 Frequencies --  -7370.4490             -7370.4490               668.2240
 Red. masses --      1.0351                 1.0351                 1.0533
 Frc consts  --     33.1285                33.1285                 0.2771
 IR Inten    --    201.9313               201.9313                 1.4779

                      4
                      A
 Frequencies --  15777.3892
 Red. masses --      1.0582
 Frc consts  --    155.2027
 IR Inten    --     99.9326

 - Thermochemistry -
 -------------------
 Temperature   298.150 Kelvin.  Pressure   1.00000 Atm.
 Atom     1 has atomic number  1 and mass   1.00783

 Molecular mass:    21.01405 amu.
 Principal axes and moments of inertia in atomic units:
                           1         2         3
     Eigenvalues --     0.00000  17.95544  17.95544
           X            1.00000  -0.00000   0.00000
           Y            0.00000   1.00000   0.00000
           Z            0.00000   0.00000   1.00000
 This molecule is a prolate symmetric top.
 Rotational symmetry number  1.
 Rotational temperature (Kelvin)      4.82383
 Rotational constant (GHZ):         100.512209
    2 imaginary frequencies ignored.
 Zero-point vibrational energy      98366.6 (Joules/Mol)
                                   23.51018 (Kcal/Mol)
 Vibrational temperatures:    961.43 22700.14
          (Kelvin)

 Zero-point correction=                           0.037466 (Hartree/Particle)
 Thermal correction to Energy=                    0.039952
 Thermal correction to Enthalpy=                  0.040897
 Thermal correction to Gibbs Free Energy=         0.018578
 Sum of electronic and zero-point Energies=           -100.478251
 Sum of electronic and thermal Energies=              -100.475764
 Sum of electronic and thermal Enthalpies=            -100.474820
 Sum of electronic and thermal Free Energies=         -100.497139

                     E (Thermal)             CV                S
                      KCal/Mol        Cal/Mol-Kelvin    Cal/Mol-Kelvin
 Total                   25.071              5.859             46.974
 Electronic               0.000              0.000              1.377
 Translational            0.889              2.981             35.068
 Rotational               0.592              1.987             10.182
 Vibrational             23.589              0.891              0.346

 Normal termination of Gaussian 16 at Fri Aug 22 15:39:08 2025.
