 Gaussian 16, Revision C.01,
 Gaussian 16:  ES64L-G16RevC.01  3-Jul-2019

 -----------------------------------------
 # sp b3lyp/6-311g** Force nosymm scf=(qc)
 -----------------------------------------

 -------------------
 Title Card Required
 -------------------
 Symbolic Z-matrix:
 Charge =  0 Multiplicity = 2

                          Input orientation:
 ---------------------------------------------------------------------
 Center     Atomic      Atomic             Coordinates (Angstroms)
 Number     Number       Type             X           Y           Z
 ---------------------------------------------------------------------
      1          1           0        0.000000    0.000000    0.000000
      2          1           0       -4.000000    0.000000    0.000000
      3          9           0        0.750000    0.000000    0.000000
 ---------------------------------------------------------------------

 SCF Done:  E(UB3LYP) =  -100.921913176     a.u. after    6 cycles

 Alpha  occ. eigenvalues --  -24.63459  -1.25483  -0.57387  -0.41200  -0.41200
 Alpha  occ. eigenvalues --   -0.33179
 Alpha virt. eigenvalues --    0.05846   0.24203   0.49310   0.93916   0.93916
 Alpha virt. eigenvalues --    0.96502   1.24250   1.24324   1.24324   1.29576
 Alpha virt. eigenvalues --    1.41696   1.41696   1.99981   2.14290   2.67692

  Beta  occ. eigenvalues --  -24.63459  -1.25483  -0.57387  -0.41200  -0.41200
  Beta virt. eigenvalues --   -0.04624   0.05964   0.38955   0.49307   0.93916
  Beta virt. eigenvalues --    0.93916   0.96499   1.29470   1.41696   1.41696
  Beta virt. eigenvalues --    1.50363   1.50792   1.50792   2.00111   2.44944

 Mulliken charges and spin densities:
               1          2
     1  H    0.268165   0.000253
     2  H    0.000289   0.999679
     3  F   -0.268454   0.000068
 Sum of Mulliken charges =   0.00000   1.00000

 Dipole moment (field-independent basis, Debye):
    X=             -1.6579    Y=              0.0000    Z=             -0.0000  Tot=              1.6579
 Quadrupole moment (field-independent basis, Debye-Ang):
   XX=             -7.4854   YY=             -6.7169   ZZ=             -6.7169
   XY=              0.0000   XZ=             -0.0000   YZ=              0.0000

  Exact polarizability:       4.015      -0.000       2.442       0.000       0.000       2.442
 Approx polarizability:       4.496      -0.000       2.423       0.000       0.000       2.423

 ******    3 imaginary frequencies (negative Signs) ******

                      1                      2                      3
                      A                      A                      A
 Frequencies --  -2714.9186             -2714.9186               -25.9673
 Red. masses --      1.0428                 1.0428                 1.0532
 Frc consts  --      4.5285                 4.5285                 0.0004
 IR Inten    --    207.0755               207.0755                 0.0071

                      4
                      A
 Frequencies --   7586.7871
 Red. masses --      1.0583
 Frc consts  --     35.8905
 IR Inten    --    104.1153

 - Thermochemistry -
 -------------------
 Temperature   298.150 Kelvin.  Pressure   1.00000 Atm.
 Atom     1 has atomic number  1 and mass   1.00783

 Molecular mass:    21.01405 amu.
 Principal axes and moments of inertia in atomic units:
                           1         2         3
     Eigenvalues --     0.00000  78.00571  78.00571
           X            1.00000  -0.00000   0.00000
           Y            0.00000   1.00000   0.00000
           Z            0.00000   0.00000   1.00000
 This molecule is a prolate symmetric top.
 Rotational symmetry number  1.
 Rotational temperature (Kelvin)      1.11035
 Rotational constant (GHZ):          23.136013
    3 imaginary frequencies ignored.
 Zero-point vibrational energy      45379.1 (Joules/Mol)
                                   10.84586 (Kcal/Mol)
 Vibrational temperatures:  10915.69
          (Kelvin)

 Zero-point correction=                           0.017284 (Hartree/Particle)
 Thermal correction to Energy=                    0.019644
 Thermal correction to Enthalpy=                  0.020589
 Thermal correction to Gibbs Free Energy=        -0.002953
 Sum of electronic and zero-point Energies=           -100.904629
 Sum of electronic and thermal Energies=              -100.902269
 Sum of electronic and thermal Enthalpies=            -100.901325
 Sum of electronic and thermal Free Energies=         -100.924866

                     E (Thermal)             CV                S
                      KCal/Mol        Cal/Mol-Kelvin    Cal/Mol-Kelvin
 Total                   12.327              4.968             49.547
 Electronic               0.000              0.000              1.377
 Translational            0.889              2.981             35.068
 Rotational               0.592              1.987             13.101
 Vibrational             10.846              0.000              0.000

 Normal termination of Gaussian 16 at Fri Aug 22 15:50:01 2025.
