 Gaussian 16, Revision C.01,
 Gaussian 16:  ES64L-G16RevC.01  3-Jul-2019

 -----------------------------------------
 # sp b3lyp/6-311g** Force nosymm scf=(qc)
 -----------------------------------------

 -------------------
 Title Card Required
 -------------------
 Symbolic Z-matrix:
 Charge =  0 Multiplicity = 2

                          Input orientation:
 ---------------------------------------------------------------------
 Center     Atomic      Atomic             Coordinates (Angstroms)
 Number     Number       Type             X           Y           Z
 ---------------------------------------------------------------------
      1          1           0        0.000000    0.000000    0.000000
      2          1           0       -1.950000    0.000000    0.000000
      3          9           0        2.050000    0.000000    0.000000
 ---------------------------------------------------------------------

 SCF Done:  E(UB3LYP) =  -100.799340436     a.u. after   13 cycles

 Alpha  occ. eigenvalues --  -24.68616  -1.14947  -0.47721  -0.40066  -0.40066
 Alpha  occ. eigenvalues --   -0.36407
 Alpha virt. eigenvalues --   -0.13368   0.23913   0.31032   0.87575   0.94857
 Alpha virt. eigenvalues --    0.94857   1.04600   1.21474   1.21474   1.27465
 Alpha virt. eigenvalues --    1.33969   1.33969   1.59224   2.11147   2.32561

  Beta  occ. eigenvalues --  -24.66143  -1.08012  -0.37624  -0.37624  -0.37090
  Beta virt. eigenvalues --   -0.21782  -0.11659   0.26212   0.31434   0.90673
  Beta virt. eigenvalues --    0.95725   0.95725   1.08180   1.22848   1.22848
  Beta virt. eigenvalues --    1.35917   1.35917   1.36354   1.57198   2.12016

 Mulliken charges and spin densities:
               1          2
     1  H    0.126258  -0.642130
     2  H    0.045851   0.864757
     3  F   -0.172109   0.777373
 Sum of Mulliken charges =  -0.00000   1.00000

 Dipole moment (field-independent basis, Debye):
    X=             -2.1870    Y=             -0.0000    Z=              0.0000  Tot=              2.1870
 Quadrupole moment (field-independent basis, Debye-Ang):
   XX=             -8.5989   YY=             -7.5664   ZZ=             -7.5664
   XY=             -0.0000   XZ=              0.0000   YZ=              0.0000

  Exact polarizability:      51.797      -0.000       2.054       0.000       0.000       2.054
 Approx polarizability:      62.586       0.000       1.966      -0.000       0.000       1.966

 ******    2 imaginary frequencies (negative Signs) ******

                      1                      2                      3
                      A                      A                      A
 Frequencies --  -1600.5089              -561.3123               662.3651
 Red. masses --      1.0161                 1.0987                 1.0173
 Frc consts  --      1.5335                 0.2040                 0.2630
 IR Inten    --    132.7072                38.9396                 9.3576

                      4
                      A
 Frequencies --    662.3651
 Red. masses --      1.0173
 Frc consts  --      0.2630
 IR Inten    --      9.3576

 - Thermochemistry -
 -------------------
 Temperature   298.150 Kelvin.  Pressure   1.00000 Atm.
 Atom     1 has atomic number  1 and mass   1.00783

 Molecular mass:    21.01405 amu.
 Principal axes and moments of inertia in atomic units:
                           1         2         3
     Eigenvalues --     0.00000  66.39113  66.39113
           X            1.00000  -0.00000   0.00000
           Y            0.00000   1.00000   0.00000
           Z            0.00000   0.00000   1.00000
 This molecule is a prolate symmetric top.
 Rotational symmetry number  1.
 Rotational temperature (Kelvin)      1.30460
 Rotational constant (GHZ):          27.183471
    2 imaginary frequencies ignored.
 Zero-point vibrational energy       7923.6 (Joules/Mol)
                                    1.89380 (Kcal/Mol)
 Vibrational temperatures:    953.00   953.00
          (Kelvin)

 Zero-point correction=                           0.003018 (Hartree/Particle)
 Thermal correction to Energy=                    0.005636
 Thermal correction to Enthalpy=                  0.006580
 Thermal correction to Gibbs Free Energy=        -0.017145
 Sum of electronic and zero-point Energies=           -100.796322
 Sum of electronic and thermal Energies=              -100.793705
 Sum of electronic and thermal Enthalpies=            -100.792760
 Sum of electronic and thermal Free Energies=         -100.816486

                     E (Thermal)             CV                S
                      KCal/Mol        Cal/Mol-Kelvin    Cal/Mol-Kelvin
 Total                    3.537              6.774             49.934
 Electronic               0.000              0.000              1.377
 Translational            0.889              2.981             35.068
 Rotational               0.592              1.987             12.781
 Vibrational              2.055              1.806              0.708

 Normal termination of Gaussian 16 at Fri Aug 22 17:00:04 2025.
