 Gaussian 16, Revision C.01,
 Gaussian 16:  ES64L-G16RevC.01  3-Jul-2019

 -----------------------------------------
 # sp b3lyp/6-311g** Force nosymm scf=(qc)
 -----------------------------------------

 -------------------
 Title Card Required
 -------------------
 Symbolic Z-matrix:
 Charge =  0 Multiplicity = 2

                          Input orientation:
 ---------------------------------------------------------------------
 Center     Atomic      Atomic             Coordinates (Angstroms)
 Number     Number       Type             X           Y           Z
 ---------------------------------------------------------------------
      1          1           0        0.000000    0.000000    0.000000
      2          1           0       -3.750000    0.000000    0.000000
      3          9           0        1.100000    0.000000    0.000000
 ---------------------------------------------------------------------

 SCF Done:  E(UB3LYP) =  -100.948411758     a.u. after    6 cycles

 Alpha  occ. eigenvalues --  -24.64301  -1.13871  -0.49616  -0.38107  -0.38107
 Alpha  occ. eigenvalues --   -0.33580
 Alpha virt. eigenvalues --   -0.02505   0.22928   0.31238   0.93565   0.93565
 Alpha virt. eigenvalues --    0.99599   1.23871   1.23930   1.23930   1.28442
 Alpha virt. eigenvalues --    1.35208   1.35208   1.79431   2.13798   2.31731

  Beta  occ. eigenvalues --  -24.64299  -1.13867  -0.49612  -0.38105  -0.38105
  Beta virt. eigenvalues --   -0.05899  -0.01899   0.29389   0.39291   0.93565
  Beta virt. eigenvalues --    0.93565   0.99603   1.28418   1.35206   1.35206
  Beta virt. eigenvalues --    1.49627   1.49627   1.49664   1.79455   2.31230

 Mulliken charges and spin densities:
               1          2
     1  H    0.340542   0.000222
     2  H    0.000643   0.999289
     3  F   -0.341186   0.000489
 Sum of Mulliken charges =   0.00000   1.00000

 Dipole moment (field-independent basis, Debye):
    X=             -2.1641    Y=             -0.0000    Z=              0.0000  Tot=              2.1641
 Quadrupole moment (field-independent basis, Debye-Ang):
   XX=             -8.5742   YY=             -7.0486   ZZ=             -7.0486
   XY=             -0.0000   XZ=              0.0000   YZ=              0.0000

  Exact polarizability:       7.773       0.000       2.362      -0.000      -0.000       2.362
 Approx polarizability:      10.283       0.000       2.326       0.000      -0.000       2.326

 ******    1 imaginary frequencies (negative Signs) ******

                      1                      2                      3
                      A                      A                      A
 Frequencies --    -39.8262              1187.8983              1187.8983
 Red. masses --      1.0532                 1.0366                 1.0366
 Frc consts  --      0.0010                 0.8618                 0.8618
 IR Inten    --      0.0315               158.6169               158.6169

                      4
                      A
 Frequencies --   1940.9820
 Red. masses --      1.0584
 Frc consts  --      2.3493
 IR Inten    --     75.8399

 - Thermochemistry -
 -------------------
 Temperature   298.150 Kelvin.  Pressure   1.00000 Atm.
 Atom     1 has atomic number  1 and mass   1.00783

 Molecular mass:    21.01405 amu.
 Principal axes and moments of inertia in atomic units:
                           1         2         3
     Eigenvalues --     0.00000  82.90176  82.90176
           X            1.00000  -0.00000   0.00000
           Y            0.00000   1.00000   0.00000
           Z            0.00000   0.00000   1.00000
 This molecule is a prolate symmetric top.
 Rotational symmetry number  1.
 Rotational temperature (Kelvin)      1.04478
 Rotational constant (GHZ):          21.769636
    1 imaginary frequencies ignored.
 Zero-point vibrational energy      25820.1 (Joules/Mol)
                                    6.17114 (Kcal/Mol)
 Vibrational temperatures:   1709.12  1709.12  2792.64
          (Kelvin)

 Zero-point correction=                           0.009834 (Hartree/Particle)
 Thermal correction to Energy=                    0.012231
 Thermal correction to Enthalpy=                  0.013175
 Thermal correction to Gibbs Free Energy=        -0.010466
 Sum of electronic and zero-point Energies=           -100.938577
 Sum of electronic and thermal Energies=              -100.936181
 Sum of electronic and thermal Enthalpies=            -100.935237
 Sum of electronic and thermal Free Energies=         -100.958878

                     E (Thermal)             CV                S
                      KCal/Mol        Cal/Mol-Kelvin    Cal/Mol-Kelvin
 Total                    7.675              5.409             49.757
 Electronic               0.000              0.000              1.377
 Translational            0.889              2.981             35.068
 Rotational               0.592              1.987             13.222
 Vibrational              6.194              0.441              0.089

 Normal termination of Gaussian 16 at Fri Aug 22 16:06:28 2025.
