 Gaussian 16, Revision C.01,
 Gaussian 16:  ES64L-G16RevC.01  3-Jul-2019

 -----------------------------------------
 # sp b3lyp/6-311g** Force nosymm scf=(qc)
 -----------------------------------------

 -------------------
 Title Card Required
 -------------------
 Symbolic Z-matrix:
 Charge =  0 Multiplicity = 2

                          Input orientation:
 ---------------------------------------------------------------------
 Center     Atomic      Atomic             Coordinates (Angstroms)
 Number     Number       Type             X           Y           Z
 ---------------------------------------------------------------------
      1          1           0        0.000000    0.000000    0.000000
      2          1           0       -4.000000    0.000000    0.000000
      3          9           0        1.850000    0.000000    0.000000
 ---------------------------------------------------------------------

 SCF Done:  E(UB3LYP) =  -100.799251361     a.u. after   17 cycles

 Alpha  occ. eigenvalues --  -24.67030  -1.13266  -0.45878  -0.38726  -0.38726
 Alpha  occ. eigenvalues --   -0.33303
 Alpha virt. eigenvalues --   -0.14768   0.22071   0.29763   0.91361   0.94822
 Alpha virt. eigenvalues --    0.94822   1.05618   1.24180   1.24202   1.24202
 Alpha virt. eigenvalues --    1.34074   1.34074   1.67530   2.13442   2.26813

  Beta  occ. eigenvalues --  -24.64978  -1.07592  -0.38985  -0.36719  -0.36719
  Beta virt. eigenvalues --   -0.19666  -0.06261   0.21886   0.37995   0.92021
  Beta virt. eigenvalues --    0.94986   0.94986   1.07923   1.23115   1.23115
  Beta virt. eigenvalues --    1.46425   1.46633   1.46633   1.61958   2.11653

 Mulliken charges and spin densities:
               1          2
     1  H    0.239563  -0.644450
     2  H    0.000517   0.999319
     3  F   -0.240079   0.645131
 Sum of Mulliken charges =   0.00000   1.00000

 Dipole moment (field-independent basis, Debye):
    X=             -2.1831    Y=              0.0000    Z=             -0.0000  Tot=              2.1831
 Quadrupole moment (field-independent basis, Debye-Ang):
   XX=            -10.2324   YY=             -7.4494   ZZ=             -7.4494
   XY=              0.0000   XZ=             -0.0000   YZ=             -0.0000

  Exact polarizability:      22.849      -0.000       2.087       0.000       0.000       2.087
 Approx polarizability:      35.627       0.000       1.974       0.000      -0.000       1.974

 ******    2 imaginary frequencies (negative Signs) ******

                      1                      2                      3
                      A                      A                      A
 Frequencies --  -1406.1340               -63.9601               609.3722
 Red. masses --      1.0580                 1.0535                 1.0293
 Frc consts  --      1.2326                 0.0025                 0.2252
 IR Inten    --    134.3999                 0.0351                54.5693

                      4
                      A
 Frequencies --    609.3722
 Red. masses --      1.0293
 Frc consts  --      0.2252
 IR Inten    --     54.5693

 - Thermochemistry -
 -------------------
 Temperature   298.150 Kelvin.  Pressure   1.00000 Atm.
 Atom     1 has atomic number  1 and mass   1.00783

 Molecular mass:    21.01405 amu.
 Principal axes and moments of inertia in atomic units:
                           1         2         3
     Eigenvalues --     0.00000 125.25081 125.25081
           X            1.00000  -0.00000   0.00000
           Y            0.00000   1.00000   0.00000
           Z            0.00000   0.00000   1.00000
 This molecule is a prolate symmetric top.
 Rotational symmetry number  1.
 Rotational temperature (Kelvin)      0.69152
 Rotational constant (GHZ):          14.409018
    2 imaginary frequencies ignored.
 Zero-point vibrational energy       7289.7 (Joules/Mol)
                                    1.74228 (Kcal/Mol)
 Warning -- explicit consideration of   2 degrees of freedom as
           vibrations may cause significant error
 Vibrational temperatures:    876.75   876.75
          (Kelvin)

 Zero-point correction=                           0.002777 (Hartree/Particle)
 Thermal correction to Energy=                    0.005447
 Thermal correction to Enthalpy=                  0.006391
 Thermal correction to Gibbs Free Energy=        -0.018010
 Sum of electronic and zero-point Energies=           -100.796475
 Sum of electronic and thermal Energies=              -100.793805
 Sum of electronic and thermal Enthalpies=            -100.792860
 Sum of electronic and thermal Free Energies=         -100.817261

                     E (Thermal)             CV                S
                      KCal/Mol        Cal/Mol-Kelvin    Cal/Mol-Kelvin
 Total                    3.418              6.992             51.356
 Electronic               0.000              0.000              1.377
 Translational            0.889              2.981             35.068
 Rotational               0.592              1.987             14.042
 Vibrational              1.937              2.024              0.868
 Vibration     1          0.968              1.012              0.434
 Vibration     2          0.968              1.012              0.434

 Normal termination of Gaussian 16 at Fri Aug 22 16:48:41 2025.
