 Gaussian 16, Revision C.01,
 Gaussian 16:  ES64L-G16RevC.01  3-Jul-2019

 -----------------------------------------
 # sp b3lyp/6-311g** Force nosymm scf=(qc)
 -----------------------------------------

 -------------------
 Title Card Required
 -------------------
 Symbolic Z-matrix:
 Charge =  0 Multiplicity = 2

                          Input orientation:
 ---------------------------------------------------------------------
 Center     Atomic      Atomic             Coordinates (Angstroms)
 Number     Number       Type             X           Y           Z
 ---------------------------------------------------------------------
      1          1           0        0.000000    0.000000    0.000000
      2          1           0       -1.600000    0.000000    0.000000
      3          9           0        3.500000    0.000000    0.000000
 ---------------------------------------------------------------------

 SCF Done:  E(UB3LYP) =  -100.806167190     a.u. after  255 cycles

 Alpha  occ. eigenvalues --  -24.76354  -1.22233  -0.55434  -0.46623  -0.46588
 Alpha  occ. eigenvalues --   -0.33249
 Alpha virt. eigenvalues --   -0.10226   0.25425   0.30546   0.85956   0.90833
 Alpha virt. eigenvalues --    0.91981   1.01273   1.06720   1.22423   1.22425
 Alpha virt. eigenvalues --    1.39519   1.39523   1.74683   2.19494   2.44201

  Beta  occ. eigenvalues --  -24.73199  -1.13159  -0.43467  -0.43425  -0.33240
  Beta virt. eigenvalues --   -0.26078  -0.10256   0.25413   0.30628   0.92335
  Beta virt. eigenvalues --    0.93439   0.95423   1.05348   1.06722   1.22414
  Beta virt. eigenvalues --    1.22417   1.39512   1.39514   1.74731   2.19713

 Mulliken charges and spin densities:
               1          2
     1  H    0.000527  -0.451700
     2  H   -0.003036   0.451613
     3  F    0.002510   1.000087
 Sum of Mulliken charges =   0.00000   1.00000

 Dipole moment (field-independent basis, Debye):
    X=              0.0487    Y=              0.0000    Z=              0.0000  Tot=              0.0487
 Quadrupole moment (field-independent basis, Debye-Ang):
   XX=             -6.4043   YY=             -6.9075   ZZ=             -7.7717
   XY=              0.0000   XZ=              0.0000   YZ=              0.0062

  Exact polarizability:      23.715       0.000       2.488      -0.000       0.003       2.027
 Approx polarizability:      41.316       0.000       2.587       0.000       0.004       2.005

 ******    2 imaginary frequencies (negative Signs) ******

                      1                      2                      3
                      A                      A                      A
 Frequencies --  -2062.4021               -27.6966              1056.1934
 Red. masses --      1.0078                 1.1085                 1.0112
 Frc consts  --      2.5257                 0.0005                 0.6646
 IR Inten    --      0.0595                 0.1637                 0.0025

                      4
                      A
 Frequencies --   1057.8556
 Red. masses --      1.0112
 Frc consts  --      0.6667
 IR Inten    --      0.0006

 - Thermochemistry -
 -------------------
 Temperature   298.150 Kelvin.  Pressure   1.00000 Atm.
 Atom     1 has atomic number  1 and mass   1.00783

 Molecular mass:    21.01405 amu.
 Principal axes and moments of inertia in atomic units:
                           1         2         3
     Eigenvalues --     0.00000 124.93206 124.93206
           X            1.00000  -0.00000   0.00000
           Y            0.00000   1.00000   0.00000
           Z            0.00000   0.00000   1.00000
 This molecule is a prolate symmetric top.
 Rotational symmetry number  1.
 Rotational temperature (Kelvin)      0.69329
 Rotational constant (GHZ):          14.445781
    2 imaginary frequencies ignored.
 Zero-point vibrational energy      12644.8 (Joules/Mol)
                                    3.02218 (Kcal/Mol)
 Vibrational temperatures:   1519.63  1522.02
          (Kelvin)

 Zero-point correction=                           0.004816 (Hartree/Particle)
 Thermal correction to Energy=                    0.007236
 Thermal correction to Enthalpy=                  0.008180
 Thermal correction to Gibbs Free Energy=        -0.015877
 Sum of electronic and zero-point Energies=           -100.801351
 Sum of electronic and thermal Energies=              -100.798932
 Sum of electronic and thermal Enthalpies=            -100.797987
 Sum of electronic and thermal Free Energies=         -100.822044

                     E (Thermal)             CV                S
                      KCal/Mol        Cal/Mol-Kelvin    Cal/Mol-Kelvin
 Total                    4.540              5.606             50.631
 Electronic               0.000              0.000              1.377
 Translational            0.889              2.981             35.068
 Rotational               0.592              1.987             14.037
 Vibrational              3.059              0.638              0.149

 Normal termination of Gaussian 16 at Fri Aug 22 22:06:41 2025.
