 Gaussian 16, Revision C.01,
 Gaussian 16:  ES64L-G16RevC.01  3-Jul-2019

 -----------------------------------------
 # sp b3lyp/6-311g** Force nosymm scf=(qc)
 -----------------------------------------

 -------------------
 Title Card Required
 -------------------
 Symbolic Z-matrix:
 Charge =  0 Multiplicity = 2

                          Input orientation:
 ---------------------------------------------------------------------
 Center     Atomic      Atomic             Coordinates (Angstroms)
 Number     Number       Type             X           Y           Z
 ---------------------------------------------------------------------
      1          1           0        0.000000    0.000000    0.000000
      2          1           0       -3.200000    0.000000    0.000000
      3          9           0        3.000000    0.000000    0.000000
 ---------------------------------------------------------------------

 SCF Done:  E(UB3LYP) =  -100.761462182     a.u. after   21 cycles

 Alpha  occ. eigenvalues --  -24.74094  -1.20153  -0.53213  -0.44682  -0.44682
 Alpha  occ. eigenvalues --   -0.32633
 Alpha virt. eigenvalues --   -0.08624   0.24360   0.35613   0.89422   0.92270
 Alpha virt. eigenvalues --    0.92270   1.03925   1.24888   1.24888   1.25336
 Alpha virt. eigenvalues --    1.43185   1.43185   1.43527   2.15235   2.39423

  Beta  occ. eigenvalues --  -24.71066  -1.11477  -0.41651  -0.41651  -0.33748
  Beta virt. eigenvalues --   -0.24782  -0.07155   0.24344   0.37292   0.93732
  Beta virt. eigenvalues --    0.93732   0.98125   1.07685   1.23603   1.23603
  Beta virt. eigenvalues --    1.24287   1.45134   1.45344   1.45344   2.15545

 Mulliken charges and spin densities:
               1          2
     1  H    0.035976  -0.954956
     2  H    0.000970   0.995606
     3  F   -0.036946   0.959350
 Sum of Mulliken charges =  -0.00000   1.00000

 Dipole moment (field-independent basis, Debye):
    X=             -0.5841    Y=              0.0000    Z=              0.0000  Tot=              0.5841
 Quadrupole moment (field-independent basis, Debye-Ang):
   XX=             -8.2510   YY=             -7.6156   ZZ=             -7.6156
   XY=             -0.0000   XZ=             -0.0000   YZ=             -0.0000

  Exact polarizability:      33.372      -0.000       2.024      -0.000      -0.000       2.024
 Approx polarizability:      33.288      -0.000       1.925      -0.000       0.000       1.925

 ******    2 imaginary frequencies (negative Signs) ******

                      1                      2                      3
                      A                      A                      A
 Frequencies --   -406.4072              -158.2684               147.0085
 Red. masses --      1.0356                 1.0767                 1.0187
 Frc consts  --      0.1008                 0.0159                 0.0130
 IR Inten    --     37.4816                 2.5487                 1.1797

                      4
                      A
 Frequencies --    147.0085
 Red. masses --      1.0187
 Frc consts  --      0.0130
 IR Inten    --      1.1797

 - Thermochemistry -
 -------------------
 Temperature   298.150 Kelvin.  Pressure   1.00000 Atm.
 Atom     1 has atomic number  1 and mass   1.00783

 Molecular mass:    21.01405 amu.
 Principal axes and moments of inertia in atomic units:
                           1         2         3
     Eigenvalues --     0.00000 156.12752 156.12752
           X            1.00000  -0.00000   0.00000
           Y            0.00000   1.00000   0.00000
           Z            0.00000   0.00000   1.00000
 This molecule is a prolate symmetric top.
 Rotational symmetry number  1.
 Rotational temperature (Kelvin)      0.55476
 Rotational constant (GHZ):          11.559405
    2 imaginary frequencies ignored.
 Zero-point vibrational energy       1758.6 (Joules/Mol)
                                    0.42032 (Kcal/Mol)
 Warning -- explicit consideration of   2 degrees of freedom as
           vibrations may cause significant error
 Vibrational temperatures:    211.51   211.51
          (Kelvin)

 Zero-point correction=                           0.000670 (Hartree/Particle)
 Thermal correction to Energy=                    0.004327
 Thermal correction to Enthalpy=                  0.005272
 Thermal correction to Gibbs Free Energy=        -0.021501
 Sum of electronic and zero-point Energies=           -100.760792
 Sum of electronic and thermal Energies=              -100.757135
 Sum of electronic and thermal Enthalpies=            -100.756191
 Sum of electronic and thermal Free Energies=         -100.782963

                     E (Thermal)             CV                S
                      KCal/Mol        Cal/Mol-Kelvin    Cal/Mol-Kelvin
 Total                    2.715              8.780             56.347
 Electronic               0.000              0.000              1.377
 Translational            0.889              2.981             35.068
 Rotational               0.592              1.987             14.480
 Vibrational              1.234              3.812              5.421
 Vibration     1          0.617              1.906              2.711
 Vibration     2          0.617              1.906              2.711

 Normal termination of Gaussian 16 at Fri Aug 22 19:32:50 2025.
