 Gaussian 16, Revision C.01,
 Gaussian 16:  ES64L-G16RevC.01  3-Jul-2019

 -----------------------------------------
 # sp b3lyp/6-311g** Force nosymm scf=(qc)
 -----------------------------------------

 -------------------
 Title Card Required
 -------------------
 Symbolic Z-matrix:
 Charge =  0 Multiplicity = 2

                          Input orientation:
 ---------------------------------------------------------------------
 Center     Atomic      Atomic             Coordinates (Angstroms)
 Number     Number       Type             X           Y           Z
 ---------------------------------------------------------------------
      1          1           0        0.000000    0.000000    0.000000
      2          1           0       -3.450000    0.000000    0.000000
      3          9           0        2.850000    0.000000    0.000000
 ---------------------------------------------------------------------

 SCF Done:  E(UB3LYP) =  -100.762349096     a.u. after   21 cycles

 Alpha  occ. eigenvalues --  -24.73498  -1.19600  -0.52615  -0.44183  -0.44183
 Alpha  occ. eigenvalues --   -0.32648
 Alpha virt. eigenvalues --   -0.08757   0.23938   0.35833   0.89798   0.92625
 Alpha virt. eigenvalues --    0.92625   1.04783   1.24861   1.24861   1.25060
 Alpha virt. eigenvalues --    1.43173   1.43173   1.43729   2.14796   2.39032

  Beta  occ. eigenvalues --  -24.70513  -1.11058  -0.41197  -0.41197  -0.34139
  Beta virt. eigenvalues --   -0.24434  -0.06705   0.24041   0.37798   0.94071
  Beta virt. eigenvalues --    0.94071   0.98186   1.08303   1.23181   1.23181
  Beta virt. eigenvalues --    1.24376   1.45682   1.45949   1.45949   2.14645

 Mulliken charges and spin densities:
               1          2
     1  H    0.048877  -0.943110
     2  H    0.000640   0.997670
     3  F   -0.049517   0.945440
 Sum of Mulliken charges =  -0.00000   1.00000

 Dipole moment (field-independent basis, Debye):
    X=             -0.7344    Y=             -0.0000    Z=             -0.0000  Tot=              0.7344
 Quadrupole moment (field-independent basis, Debye-Ang):
   XX=             -8.6040   YY=             -7.6024   ZZ=             -7.6024
   XY=             -0.0000   XZ=             -0.0000   YZ=             -0.0000

  Exact polarizability:      32.543      -0.000       2.024      -0.000      -0.000       2.024
 Approx polarizability:      35.497      -0.000       1.924      -0.000       0.000       1.924

 ******    2 imaginary frequencies (negative Signs) ******

                      1                      2                      3
                      A                      A                      A
 Frequencies --   -439.7540              -126.1633               159.5458
 Red. masses --      1.0485                 1.0632                 1.0204
 Frc consts  --      0.1195                 0.0100                 0.0153
 IR Inten    --     50.5155                 0.6411                 2.2483

                      4
                      A
 Frequencies --    159.5458
 Red. masses --      1.0204
 Frc consts  --      0.0153
 IR Inten    --      2.2483

 - Thermochemistry -
 -------------------
 Temperature   298.150 Kelvin.  Pressure   1.00000 Atm.
 Atom     1 has atomic number  1 and mass   1.00783

 Molecular mass:    21.01405 amu.
 Principal axes and moments of inertia in atomic units:
                           1         2         3
     Eigenvalues --     0.00000 157.62651 157.62651
           X            1.00000  -0.00000   0.00000
           Y            0.00000   1.00000   0.00000
           Z            0.00000   0.00000   1.00000
 This molecule is a prolate symmetric top.
 Rotational symmetry number  1.
 Rotational temperature (Kelvin)      0.54949
 Rotational constant (GHZ):          11.449477
    2 imaginary frequencies ignored.
 Zero-point vibrational energy       1908.6 (Joules/Mol)
                                    0.45616 (Kcal/Mol)
 Warning -- explicit consideration of   2 degrees of freedom as
           vibrations may cause significant error
 Vibrational temperatures:    229.55   229.55
          (Kelvin)

 Zero-point correction=                           0.000727 (Hartree/Particle)
 Thermal correction to Energy=                    0.004341
 Thermal correction to Enthalpy=                  0.005285
 Thermal correction to Gibbs Free Energy=        -0.021348
 Sum of electronic and zero-point Energies=           -100.761622
 Sum of electronic and thermal Energies=              -100.758008
 Sum of electronic and thermal Enthalpies=            -100.757064
 Sum of electronic and thermal Free Energies=         -100.783697

                     E (Thermal)             CV                S
                      KCal/Mol        Cal/Mol-Kelvin    Cal/Mol-Kelvin
 Total                    2.724              8.752             56.055
 Electronic               0.000              0.000              1.377
 Translational            0.889              2.981             35.068
 Rotational               0.592              1.987             14.499
 Vibrational              1.243              3.784              5.110
 Vibration     1          0.621              1.892              2.555
 Vibration     2          0.621              1.892              2.555

 Normal termination of Gaussian 16 at Fri Aug 22 18:54:53 2025.
